Written by MDAnalysis
153340
    1GLN     BB    1  14.246  11.295  23.900
    1GLN     SC    2  14.284  11.677  23.712
    1ASN     BB    3  14.534  11.136  23.861
    1ASN     SC    4  14.460  11.210  23.540
    1PHE     BB    5  14.663  10.802  23.904
    1PHE     SC    6  14.504  10.864  24.169
    1PHE     SC    7  14.283  10.939  24.149
    1PHE     SC    8  14.362  11.053  24.306
    1ALA     BB    9  14.976  10.633  24.011
    1ILE     BB   10  15.054  10.263  24.052
    1ILE     SC   11  14.820  10.252  24.225
    1ILE     BB   12  15.341  10.122  24.230
    1ILE     SC   13  15.526  10.317  24.069
    1GLY     BB   14  15.397   9.805  24.307
    1VAL     BB   15  15.170   9.527  24.326
    1VAL     SC   16  15.098   9.585  24.100
    1SER     BB   17  15.101   9.471  24.604
    1SER     SC   18  15.253   9.557  24.789
    1ASN     BB   19  14.849   9.408  24.833
    1ASN     SC   20  14.947   9.091  24.879
    1PHE     BB   21  14.816   9.712  24.889
    1PHE     SC   22  14.911   9.869  25.098
    1PHE     SC   23  15.000  10.075  25.038
    1PHE     SC   24  14.847  10.124  25.173
    1THR     BB   25  14.837   9.829  24.593
    1THR     SC   26  15.097   9.846  24.554
    1LEU     BB   27  14.594   9.667  24.485
    1LEU     SC   28  14.563   9.348  24.494
    1SER     BB   29  14.382   9.810  24.663
    1SER     SC   30  14.316   9.741  24.889
    1VAL     BB   31  14.428  10.099  24.558
    1VAL     SC   32  14.612  10.225  24.695
    1ILE     BB   33  14.344  10.035  24.270
    1ILE     SC   34  14.489   9.956  24.073
    1GLU     BB   35  14.069   9.874  24.313
    1GLU     SC   36  14.054   9.483  24.429
    1THR     BB   37  13.933  10.108  24.465
    1THR     SC   38  13.974  10.085  24.722
    1LEU     BB   39  13.969  10.354  24.263
    1LEU     SC   40  14.234  10.527  24.388
    1VAL     BB   41  13.817  10.214  24.019
    1VAL     SC   42  14.014  10.075  23.923
    1GLN     BB   43  13.544  10.158  24.181
    1GLN     SC   44  13.411   9.876  24.247
    1LYS     BB   45  13.546  10.495  24.209
    1LYS     SC   46  13.586  10.477  24.509
    1LYS     SC   47  13.467  10.414  24.798
    1ARG     BB   48  13.615  10.606  23.907
    1ARG     SC   49  13.316  10.504  23.863
    1ARG     SC   50  12.969  10.369  23.863
    1GLN     BB   51  13.920  10.652  23.849
    1GLN     SC   52  13.854  10.898  24.123
    1SER     BB   53  14.223  10.763  23.727
    1SER     SC   54  14.259  10.875  23.504
    1VAL     BB   55  14.432  10.461  23.676
    1VAL     SC   56  14.391  10.437  23.938
    1THR     BB   57  14.770  10.345  23.696
    1THR     SC   58  14.844  10.512  23.518
    1VAL     BB   59  14.964  10.037  23.627
    1VAL     SC   60  14.797   9.876  23.749
    1PHE     BB   61  15.279   9.936  23.800
    1PHE     SC   62  15.298  10.182  23.622
    1PHE     SC   63  15.234  10.402  23.659
    1PHE     SC   64  15.180  10.368  23.459
    1ASP     BB   65  15.527   9.695  23.703
    1ASP     SC   66  15.495   9.481  23.979
    1ILE     BB   67  15.773   9.423  23.638
    1ILE     SC   68  16.031   9.491  23.737
    1ASP     BB   69  15.551   9.210  23.646
    1ASP     SC   70  15.546   8.940  23.807
    1GLU     BB   71  15.361   9.056  23.398
    1GLU     SC   72  15.536   9.024  23.026
    1ARG     BB   73  15.160   8.887  23.574
    1ARG     SC   74  15.326   8.597  23.597
    1ARG     SC   75  15.494   8.267  23.561
    1ARG     BB   76  15.051   9.112  23.758
    1ARG     SC   77  15.275   9.139  24.007
    1ARG     SC   78  15.546   9.140  24.254
    1LEU     BB   79  14.943   9.279  23.525
    1LEU     SC   80  15.205   9.491  23.493
    1ASN     BB   81  14.759   9.078  23.369
    1ASN     SC   82  14.975   8.987  23.133
    1LEU     BB   83  14.565   9.060  23.608
    1LEU     SC   84  14.699   8.804  23.798
    1TYR     BB   85  14.494   9.382  23.672
    1TYR     SC   86  14.669   9.352  23.917
    1TYR     SC   87  14.751   9.441  24.115
    1TYR     SC   88  14.835   9.233  24.194
    1LEU     BB   89  14.400   9.464  23.378
    1LEU     SC   90  14.724   9.550  23.330
    1SER     BB   91  14.148   9.256  23.332
    1SER     SC   92  14.261   9.072  23.212
    1GLU     BB   93  14.050   9.168  23.662
    1GLU     SC   94  14.086   8.875  23.461
    1PHE     BB   95  14.079   9.490  23.823
    1PHE     SC   96  14.258   9.297  23.973
    1PHE     SC   97  14.285   9.240  24.197
    1PHE     SC   98  14.351   9.069  24.094
    1ASP     BB   99  13.958   9.754  23.655
    1ASP     SC  100  13.648   9.655  23.649
    1THR     BB  101  14.165   9.915  23.499
    1THR     SC  102  14.410   9.927  23.563
    1VAL     BB  103  14.252  10.180  23.297
    1VAL     SC  104  14.154  10.407  23.388
    1GLU     BB  105  14.575  10.103  23.321
    1GLU     SC  106  14.651  10.140  22.972
    1GLY     BB  107  14.878   9.898  23.203
    1ILE     BB  108  15.244   9.860  23.266
    1ILE     SC  109  15.223  10.083  23.069
    1VAL     BB  110  15.559   9.738  23.171
    1VAL     SC  111  15.548   9.480  23.139
    1ILE     BB  112  15.791   9.834  23.446
    1ILE     SC  113  15.744  10.073  23.337
    1ASP     BB  114  16.066  10.010  23.531
    1ASP     SC  115  16.344   9.885  23.634
    1THR     BB  116  16.101  10.259  23.804
    1THR     SC  117  15.881  10.196  23.899
    1THR     BB  118  16.421  10.317  23.806
    1THR     SC  119  16.490  10.106  23.930
    1ASN     BB  120  16.378  10.408  23.518
    1ASN     SC  121  16.522  10.291  23.265
    1LYS     BB  122  16.345  10.712  23.352
    1LYS     SC  123  16.495  10.969  23.404
    1LYS     SC  124  16.533  11.283  23.352
    1VAL     BB  125  16.243  10.648  23.063
    1VAL     SC  126  16.437  10.645  22.885
    1ALA     BB  127  16.049  10.417  23.168
    1LEU     BB  128  15.872  10.666  23.325
    1LEU     SC  129  15.921  10.679  23.647
    1ALA     BB  130  15.852  10.896  23.080
    1LYS     BB  131  15.657  10.675  22.878
    1LYS     SC  132  15.887  10.570  22.721
    1LYS     SC  133  16.076  10.649  22.472
    1LYS     BB  134  15.388  10.696  23.080
    1LYS     SC  135  15.488  10.467  23.278
    1LYS     SC  136  15.586  10.419  23.551
    1GLY     BB  137  15.342  10.992  23.183
    1ILE     BB  138  15.416  11.069  23.496
    1ILE     SC  139  15.551  10.888  23.616
    1GLN     BB  140  15.366  11.396  23.472
    1GLN     SC  141  15.584  11.354  23.211
    1SER     BB  142  15.025  11.334  23.450
    1SER     SC  143  15.055  11.311  23.194
    1TYR     BB  144  15.028  11.285  23.771
    1TYR     SC  145  14.959  11.001  23.668
    1TYR     SC  146  15.109  10.889  23.530
    1TYR     SC  147  14.946  10.826  23.373
    1ASP     BB  148  14.930  11.398  24.077
    1ASP     SC  149  14.627  11.517  23.950
    1TRP     BB  150  14.940  11.093  24.198
    1TRP     SC  151  14.763  11.200  24.459
    1TRP     SC  152  14.633  11.362  24.494
    1TRP     SC  153  14.804  11.207  24.745
    1TRP     SC  154  14.677  11.372  24.789
    1VAL     BB  155  15.200  10.885  24.345
    1VAL     SC  156  15.327  10.870  24.107
    1ILE     BB  157  15.220  10.533  24.425
    1ILE     SC  158  14.973  10.577  24.563
    1VAL     BB  159  15.457  10.355  24.634
    1VAL     SC  160  15.669  10.425  24.499
    1GLY     BB  161  15.433   9.994  24.721
    1ILE     BB  162  15.734   9.937  24.786
    1ILE     SC  163  15.842   9.890  24.502
    1GLU     BB  164  15.882   9.733  25.054
    1GLU     SC  165  15.600   9.625  25.317
    1ASN     BB  166  16.095   9.498  25.036
    1ASN     SC  167  15.865   9.259  25.043
    1GLU     BB  168  16.245   9.697  24.838
    1GLU     SC  169  16.207   9.480  24.504
    1LEU     BB  170  16.450   9.967  24.868
    1LEU     SC  171  16.546  10.077  25.144
    1GLU     BB  172  16.594  10.042  24.600
    1GLU     SC  173  16.946   9.899  24.456
    1SER     BB  174  16.332  10.066  24.430
    1SER     SC  175  16.223   9.865  24.320
    1SER     BB  176  16.179  10.281  24.608
    1SER     SC  177  16.026  10.217  24.799
    1LEU     BB  178  16.405  10.511  24.618
    1LEU     SC  179  16.540  10.438  24.913
    1VAL     BB  180  16.443  10.551  24.310
    1VAL     SC  181  16.651  10.419  24.223
    1THR     BB  182  16.142  10.609  24.251
    1THR     SC  183  16.012  10.385  24.203
    1VAL     BB  184  16.104  10.862  24.440
    1VAL     SC  185  16.065  10.829  24.681
    1LEU     BB  186  16.332  11.031  24.316
    1LEU     SC  187  16.642  11.026  24.358
    1ASN     BB  188  16.218  11.040  24.023
    1ASN     SC  189  16.387  10.778  23.890
    1LEU     BB  190  15.946  11.182  24.108
    1LEU     SC  191  15.747  10.909  24.140
    1LEU     BB  192  16.082  11.440  24.222
    1LEU     SC  193  16.166  11.500  24.519
    1ASP     BB  194  16.268  11.518  23.967
    1ASP     SC  195  16.558  11.379  24.074
    1LEU     BB  196  15.977  11.525  23.791
    1LEU     SC  197  16.073  11.259  23.620
    1LYS     BB  198  15.751  11.682  23.971
    1LYS     SC  199  15.931  11.932  23.887
    1LYS     SC  200  16.115  12.171  23.782
    1CYS     BB  201  15.558  11.544  24.177
    1CYS     SC  202  15.408  11.296  24.142
    1THR     BB  203  15.304  11.662  24.388
    1THR     SC  204  15.144  11.812  24.248
    1ASN     BB  205  15.215  11.354  24.491
    1ASN     SC  206  14.972  11.552  24.606
    1ILE     BB  207  15.389  11.140  24.719
    1ILE     SC  208  15.630  11.157  24.524
    1THR     BB  209  15.333  10.792  24.799
    1THR     SC  210  15.096  10.860  24.908
    1VAL     BB  211  15.475  10.570  25.054
    1VAL     SC  212  15.690  10.671  24.952
    1LYS     BB  213  15.609  10.255  25.129
    1LYS     SC  214  15.400  10.007  25.133
    1LYS     SC  215  15.302   9.706  25.195
    1ALA     BB  216  15.740  10.156  25.458
    1LYS     BB  217  15.896   9.876  25.630
    1LYS     SC  218  16.078   9.665  25.477
    1LYS     SC  219  16.259   9.426  25.375
    1ASP     BB  220  16.085  10.082  25.803
    1ASP     SC  221  16.228   9.891  26.030
    1ASP     BB  222  16.259  10.327  25.981
    1ASP     SC  223  16.093  10.290  26.259
    1ASN     BB  224  16.502  10.358  25.782
    1ASN     SC  225  16.724  10.192  25.966
    1TYR     BB  226  16.329  10.366  25.521
    1TYR     SC  227  16.354  10.051  25.507
    1TYR     SC  228  16.340   9.876  25.358
    1TYR     SC  229  16.516   9.751  25.445
    1ARG     BB  230  16.180  10.623  25.611
    1ARG     SC  231  15.943  10.634  25.817
    1ARG     SC  232  15.939  10.563  26.120
    1ARG     BB  233  16.437  10.813  25.632
    1ARG     SC  234  16.560  10.743  25.938
    1ARG     SC  235  16.626  10.686  26.303
    1VAL     BB  236  16.497  10.813  25.325
    1VAL     SC  237  16.674  10.631  25.265
    1LEU     BB  238  16.211  10.918  25.231
    1LEU     SC  239  16.063  10.613  25.164
    1LEU     BB  240  16.247  11.183  25.397
    1LEU     SC  241  16.106  11.101  25.705
    1ALA     BB  242  16.528  11.278  25.258
    1LEU     BB  243  16.332  11.227  24.960
    1LEU     SC  244  16.550  11.004  24.857
    1GLY     BB  245  16.098  11.481  24.958
    1LEU     BB  246  15.903  11.559  25.216
    1LEU     SC  247  15.961  11.496  25.504
    1THR     BB  248  15.769  11.838  25.137
    1THR     SC  249  15.972  11.989  25.064
    1GLU     BB  250  15.576  11.631  24.910
    1GLU     SC  251  15.628  11.966  24.676
    1ASN     BB  252  15.522  11.377  25.123
    1ASN     SC  253  15.781  11.218  25.078
    1GLN     BB  254  15.397  11.033  25.209
    1GLN     SC  255  15.164  11.119  25.468
    1ILE     BB  256  15.418  10.793  25.478
    1ILE     SC  257  15.729  10.806  25.453
    1ILE     BB  258  15.361  10.432  25.500
    1ILE     SC  259  15.073  10.497  25.391
    1VAL     BB  260  15.282  10.156  25.758
    1VAL     SC  261  15.482  10.236  25.874
    1PRO     BB  262  15.050   9.920  25.727
    1PRO     SC  263  15.102   9.993  25.483
    1ASN     BB  264  15.155   9.683  25.906
    1ASN     SC  265  15.259   9.475  25.656
    1LYS     BB  266  15.215   9.855  26.166
    1LYS     SC  267  15.551   9.917  26.171
    1LYS     SC  268  15.872   9.929  26.235
    1ILE     BB  269  14.931   9.989  26.204
    1ILE     SC  270  14.927  10.248  26.033
    1ALA     BB  271  14.752   9.717  26.173
    1GLY     BB  272  14.912   9.588  26.455
    1GLU     BB  273  14.816   9.784  26.685
    1GLU     SC  274  14.963  10.097  26.877
    1ILE     BB  275  14.511   9.748  26.638
    1ILE     SC  276  14.433   9.960  26.420
    1THR     BB  277  14.505   9.434  26.671
    1THR     SC  278  14.571   9.356  26.431
    1ALA     BB  279  14.686   9.436  26.944
    1THR     BB  280  14.432   9.591  27.107
    1THR     SC  281  14.472   9.853  27.088
    1ARG     BB  282  14.206   9.378  27.060
    1ARG     SC  283  14.025   9.358  26.811
    1ARG     SC  284  13.692   9.264  26.676
    1VAL     BB  285  14.371   9.131  27.193
    1VAL     SC  286  14.522   9.024  27.012
    1ILE     BB  287  14.376   9.244  27.495
    1ILE     SC  288  14.575   9.475  27.497
    1PHE     BB  289  14.055   9.213  27.492
    1PHE     SC  290  13.988   9.506  27.560
    1PHE     SC  291  14.093   9.676  27.445
    1PHE     SC  292  14.040   9.765  27.627
    1ASN     BB  293  13.919   8.915  27.606
    1ASN     SC  294  14.052   8.703  27.730
    1ILE     BB  295  13.602   9.029  27.568
    1ILE     SC  296  13.579   9.149  27.823
    1ASP     BB  297  13.584   9.223  27.306
    1ASP     SC  298  13.523   9.090  27.045
    1PHE     BB  299  13.594   9.556  27.370
    1PHE     SC  300  13.577   9.663  27.616
    1PHE     SC  301  13.374   9.667  27.728
    1PHE     SC  302  13.432   9.868  27.725
    1ASP     BB  303  13.744   9.575  27.095
    1ASP     SC  304  13.961   9.801  27.046
    1ILE     BB  305  13.661   9.627  26.757
    1ILE     SC  306  13.362   9.549  26.783
    1GLU     BB  307  13.722   9.950  26.703
    1GLU     SC  308  13.857   9.927  26.369
    1VAL     BB  309  13.954  10.244  26.623
    1VAL     SC  310  14.047  10.234  26.855
    1SER     BB  311  14.245  10.838  26.675
    1SER     SC  312  14.429  10.777  26.850
    1ILE     BB  313  14.268  11.180  26.748
    1ILE     SC  314  13.990  11.233  26.759
    1ASP     BB  315  14.491  11.143  26.976
    1ASP     SC  316  14.625  11.446  26.974
    1ASP     BB  317  14.827  11.053  27.123
    1ASP     SC  318  14.789  10.872  26.849
    1GLU     BB  319  14.911  11.297  27.309
    1GLU     SC  320  15.180  11.477  27.021
    1PHE     BB  321  14.623  11.334  27.342
    1PHE     SC  322  14.618  11.635  27.316
    1PHE     SC  323  14.575  11.820  27.451
    1PHE     SC  324  14.729  11.885  27.323
    1ILE     BB  325  14.403  11.159  27.535
    1ILE     SC  326  14.566  11.034  27.757
    1SER     BB  327  14.205  11.047  27.238
    1SER     SC  328  14.074  11.267  27.256
    1SER     BB  329  13.893  10.857  27.152
    1SER     SC  330  14.050  10.666  27.178
    1THR     BB  331  13.716  10.623  26.929
    1THR     SC  332  13.545  10.797  26.826
    1LEU     BB  333  13.509  10.345  27.049
    1LEU     SC  334  13.726  10.167  27.218
    1GLU     BB  335  13.423   9.995  26.991
    1GLU     SC  336  13.225   9.936  26.643
    1VAL     BB  337  13.182   9.804  27.182
    1VAL     SC  338  13.294   9.941  27.390
    1LYS     BB  339  13.080   9.568  27.444
    1LYS     SC  340  13.130   9.330  27.237
    1LYS     SC  341  13.134   9.057  27.120
    1ASN     BB  342  12.853   9.345  27.663
    1ASN     SC  343  13.132   9.192  27.630
    1PRO     BB  344  12.661   9.154  27.921
    1PRO     SC  345  12.831   8.995  27.881
    1ASP     BB  346  12.646   9.365  28.162
    1ASP     SC  347  12.943   9.411  28.114
    1LEU     BB  348  12.462   9.548  27.942
    1LEU     SC  349  12.726   9.740  27.908
    1PHE     BB  350  12.206   9.389  27.972
    1PHE     SC  351  12.110   9.134  27.901
    1PHE     SC  352  11.994   9.107  27.700
    1PHE     SC  353  11.859   9.038  27.845
    1ASN     BB  354  11.936   9.575  27.999
    1ASN     SC  355  11.658   9.498  27.982
    1LYS     BB  356  12.038   9.887  27.961
    1LYS     SC  357  12.224   9.769  28.191
    1LYS     SC  358  12.213   9.579  28.447
    1ASN     BB  359  12.035  10.220  28.044
    1ASN     SC  360  11.702  10.187  28.059
    1ILE     BB  361  12.200  10.504  27.972
    1ILE     SC  362  12.205  10.559  27.665
    1GLN     BB  363  12.126  10.691  28.225
    1GLN     SC  364  12.018  10.998  28.223
    1GLN     BB  365  12.168  10.467  28.449
    1GLN     SC  366  11.926  10.158  28.484
    1VAL     BB  367  12.448  10.417  28.289
    1VAL     SC  368  12.490  10.169  28.301
    1GLY     BB  369  12.608  10.706  28.313
    1LEU     BB  370  12.872  10.788  28.120
    1LEU     SC  371  12.842  10.517  27.891
    1SER     BB  372  12.923  11.101  28.151
    1SER     SC  373  12.766  11.187  27.938
    1THR     BB  374  12.909  11.158  28.477
    1THR     SC  375  12.670  11.237  28.525
    1ASN     BB  376  13.106  10.914  28.599
    1ASN     SC  377  12.843  10.752  28.687
    1LYS     BB  378  13.373  10.959  28.350
    1LYS     SC  379  13.374  10.668  28.440
    1LYS     SC  380  13.482  10.407  28.586
    1ASP     BB  381  13.381  11.153  28.079
    1ASP     SC  382  13.490  11.350  28.311
    1PHE     BB  383  13.158  11.011  27.846
    1PHE     SC  384  13.354  10.810  27.886
    1PHE     SC  385  13.204  10.641  27.931
    1PHE     SC  386  13.351  10.619  28.078
    1ASN     BB  387  13.026  10.933  27.516
    1ASN     SC  388  12.840  11.191  27.439
    1ILE     BB  389  12.746  10.825  27.329
    1ILE     SC  390  12.663  10.555  27.460
    1ILE     BB  391  12.703  10.784  26.980
    1ILE     SC  392  12.976  10.901  26.899
    1GLN     BB  393  12.632  10.457  26.943
    1GLN     SC  394  12.461  10.535  26.632
    1ILE     BB  395  12.387  10.189  26.852
    1ILE     SC  396  12.304  10.184  27.147
    1ARG     BB  397  12.409   9.832  26.761
    1ARG     SC  398  12.548   9.802  26.482
    1ARG     SC  399  12.673   9.632  26.175
    1ARG     BB  400  12.109   9.627  26.694
    1ARG     SC  401  11.965   9.617  26.964
    1ARG     SC  402  11.662   9.710  27.099
    1LYS     BB  403  12.083   9.370  26.488
    1LYS     SC  404  11.886   9.200  26.670
    1LYS     SC  405  11.692   8.995  26.816
    1GLY     BB  406  12.200   9.605  26.271
    1LYS     BB  407  12.060   9.828  26.409
    1LYS     SC  408  11.732   9.745  26.361
    1LYS     SC  409  11.435   9.636  26.327
    1ILE     BB  410  11.980  10.156  26.479
    1ILE     SC  411  12.224  10.303  26.342
    1LEU     BB  412  11.989  10.353  26.777
    1LEU     SC  413  11.840  10.082  26.929
    1LEU     BB  414  11.889  10.602  26.949
    1LEU     SC  415  11.759  10.893  26.839
    1PRO     BB  416  12.075  10.775  27.226
    1PRO     SC  417  12.216  10.785  27.050
    1ASP     BB  418  11.828  10.876  27.365
    1ASP     SC  419  11.681  11.157  27.288
    1ASP     BB  420  11.735  10.915  27.687
    1ASP     SC  421  12.052  10.943  27.795
    1TYR     BB  422  11.626  10.594  27.685
    1TYR     SC  423  11.508  10.548  27.918
    1TYR     SC  424  11.371  10.375  27.844
    1TYR     SC  425  11.172  10.479  27.913
    1THR     BB  426  11.820  10.301  27.582
    1THR     SC  427  11.805  10.383  27.319
    1GLU     BB  428  11.839   9.966  27.488
    1GLU     SC  429  11.600   9.669  27.510
    1LEU     BB  430  12.084   9.729  27.573
    1LEU     SC  431  12.311   9.995  27.566
    1LYS     BB  432  12.258   9.452  27.443
    1LYS     SC  433  11.938   9.333  27.344
    1LYS     SC  434  11.626   9.276  27.303
    1GLU     BB  435  12.411   9.165  27.388
    1GLU     SC  436  12.520   8.847  27.599
    1GLY     BB  437  12.659   9.244  27.140
    1ASP     BB  438  12.631   9.529  27.105
    1ASP     SC  439  12.281   9.548  27.119
    1ILE     BB  440  12.940  10.056  27.123
    1ILE     SC  441  12.793   9.988  27.378
    1VAL     BB  442  12.996  10.411  27.106
    1VAL     SC  443  13.043  10.406  26.847
    1VAL     BB  444  13.284  10.572  27.237
    1VAL     SC  445  13.258  10.429  27.453
    1PHE     BB  446  13.393  10.899  27.389
    1PHE     SC  447  13.386  11.093  27.190
    1PHE     SC  448  13.590  11.162  27.104
    1PHE     SC  449  13.505  11.337  27.181
    1ALA     BB  450  13.717  11.018  27.513
    1ARG     BB  451  13.962  10.900  27.700
    1ARG     SC  452  14.068  11.188  27.851
    1ARG     SC  453  14.073  11.513  28.036
    1THR     BB  454  14.156  10.617  27.710
    1THR     SC  455  14.324  10.612  27.506
    1THR     BB  456  14.175  10.580  28.026
    1THR     SC  457  14.398  10.690  28.110
    1ILE     BB  458  13.867  10.629  28.074
    1ILE     SC  459  13.832  10.936  28.096
    1ILE     BB  460  13.760  10.389  27.899
    1ILE     SC  461  13.727  10.501  27.611
    1ASN     BB  462  13.905  10.167  28.065
    1ASN     SC  463  14.157  10.133  27.851
    1SER     BB  464  13.755  10.244  28.338
    1SER     SC  465  13.819  10.435  28.480
    1LEU     BB  466  13.492  10.117  28.221
    1LEU     SC  467  13.266  10.233  28.048
    1ALA     BB  468  13.619   9.824  28.108
    1GLU     BB  469  13.643   9.776  28.478
    1GLU     SC  470  14.036   9.882  28.449
    1LYS     BB  471  13.301   9.932  28.556
    1LYS     SC  472  13.378  10.078  28.810
    1LYS     SC  473  13.243  10.245  29.049
    1LYS     BB  474  14.617   8.637  28.263
    1LYS     SC  475  14.608   8.978  28.202
    1LYS     SC  476  14.527   9.253  28.054
    1GLN     BB  477  14.716   8.644  27.928
    1GLN     SC  478  14.345   8.518  27.901
    1ASN     BB  479  14.825   8.457  27.628
    1ASN     SC  480  14.958   8.321  27.901
    1PHE     BB  481  15.058   8.507  27.353
    1PHE     SC  482  14.851   8.738  27.330
    1PHE     SC  483  14.815   8.886  27.507
    1PHE     SC  484  14.623   8.847  27.433
    1ALA     BB  485  15.106   8.370  27.016
    1ILE     BB  486  15.358   8.468  26.750
    1ILE     SC  487  15.266   8.741  26.792
    1ILE     BB  488  15.340   8.390  26.393
    1ILE     SC  489  15.276   8.095  26.467
    1GLY     BB  490  15.533   8.500  26.147
    1VAL     BB  491  15.750   8.786  26.141
    1VAL     SC  492  15.841   8.693  26.350
    1SER     BB  493  15.621   9.001  25.992
    1SER     SC  494  15.436   8.945  25.831
    1ASN     BB  495  15.542   9.339  25.986
    1ASN     SC  496  15.753   9.407  25.736
    1PHE     BB  497  15.270   9.281  26.130
    1PHE     SC  498  15.012   9.258  26.026
    1PHE     SC  499  14.891   9.078  26.110
    1PHE     SC  500  14.769   9.244  26.151
    1THR     BB  501  15.355   9.064  26.346
    1THR     SC  502  15.354   8.839  26.211
    1LEU     BB  503  15.561   9.246  26.477
    1LEU     SC  504  15.804   9.390  26.294
    1SER     BB  505  15.362   9.473  26.580
    1SER     SC  506  15.287   9.665  26.453
    1VAL     BB  507  15.197   9.287  26.770
    1VAL     SC  508  15.011   9.158  26.640
    1ILE     BB  509  15.428   9.220  26.970
    1ILE     SC  510  15.600   9.020  26.946
    1GLU     BB  511  15.535   9.504  27.050
    1GLU     SC  512  15.719   9.750  26.784
    1THR     BB  513  15.266   9.610  27.149
    1THR     SC  514  15.120   9.711  26.956
    1LEU     BB  515  15.200   9.388  27.368
    1LEU     SC  516  14.985   9.176  27.208
    1VAL     BB  517  15.471   9.434  27.534
    1VAL     SC  518  15.634   9.246  27.471
    1GLN     BB  519  15.443   9.749  27.577
    1GLN     SC  520  15.617   9.998  27.474
    1LYS     BB  521  15.160   9.661  27.740
    1LYS     SC  522  14.983   9.785  27.520
    1LYS     SC  523  14.882  10.040  27.349
    1ARG     BB  524  15.250   9.393  27.922
    1ARG     SC  525  15.386   9.632  28.086
    1ARG     SC  526  15.524   9.939  28.244
    1GLN     BB  527  15.241   9.108  27.787
    1GLN     SC  528  14.863   9.167  27.805
    1SER     BB  529  15.218   8.774  27.723
    1SER     SC  530  15.277   8.586  27.884
    1VAL     BB  531  15.471   8.698  27.460
    1VAL     SC  532  15.321   8.870  27.327
    1THR     BB  533  15.536   8.471  27.180
    1THR     SC  534  15.606   8.287  27.365
    1VAL     BB  535  15.805   8.407  26.941
    1VAL     SC  536  15.864   8.652  26.880
    1PHE     BB  537  15.759   8.274  26.592
    1PHE     SC  538  15.685   8.079  26.811
    1PHE     SC  539  15.492   8.062  26.941
    1PHE     SC  540  15.647   8.017  27.075
    1ASP     BB  541  16.011   8.140  26.374
    1ASP     SC  542  15.989   8.375  26.118
    1ILE     BB  543  16.228   8.003  26.109
    1ILE     SC  544  16.095   7.835  25.923
    1ASP     BB  545  16.396   8.253  26.137
    1ASP     SC  546  16.508   8.445  25.909
    1GLU     BB  547  16.674   8.346  26.318
    1GLU     SC  548  17.004   8.154  26.397
    1ARG     BB  549  16.704   8.652  26.255
    1ARG     SC  550  16.906   8.637  25.985
    1ARG     SC  551  17.178   8.606  25.732
    1ARG     BB  552  16.418   8.734  26.343
    1ARG     SC  553  16.236   8.683  26.066
    1ARG     SC  554  16.073   8.605  25.748
    1LEU     BB  555  16.448   8.633  26.631
    1LEU     SC  556  16.427   8.368  26.772
    1ASN     BB  557  16.718   8.781  26.718
    1ASN     SC  558  16.916   8.519  26.667
    1LEU     BB  559  16.584   9.055  26.688
    1LEU     SC  560  16.653   9.146  26.364
    1TYR     BB  561  16.304   8.989  26.871
    1TYR     SC  562  16.174   9.031  26.606
    1TYR     SC  563  15.996   9.009  26.462
    1TYR     SC  564  16.113   9.086  26.275
    1LEU     BB  565  16.429   8.911  27.155
    1LEU     SC  566  16.546   8.635  27.232
    1SER     BB  567  16.588   9.209  27.210
    1SER     SC  568  16.812   9.121  27.147
    1GLU     BB  569  16.507   9.472  26.991
    1GLU     SC  570  16.851   9.437  26.961
    1PHE     BB  571  16.152   9.427  27.017
    1PHE     SC  572  16.081   9.342  26.784
    1PHE     SC  573  16.014   9.523  26.655
    1PHE     SC  574  15.843   9.404  26.672
    1ASP     BB  575  15.999   9.314  27.249
    1ASP     SC  576  16.071   9.601  27.395
    1THR     BB  577  16.006   9.022  27.435
    1THR     SC  578  15.962   8.839  27.258
    1VAL     BB  579  15.944   8.753  27.639
    1VAL     SC  580  15.719   8.783  27.772
    1GLU     BB  581  15.970   8.535  27.389
    1GLU     SC  582  15.946   8.167  27.574
    1GLY     BB  583  16.203   8.335  27.165
    1ILE     BB  584  16.160   8.080  26.890
    1ILE     SC  585  16.110   7.910  27.153
    1VAL     BB  586  16.283   7.835  26.684
    1VAL     SC  587  16.497   7.901  26.540
    1ILE     BB  588  16.036   7.746  26.423
    1ILE     SC  589  15.927   7.626  26.648
    1ASP     BB  590  15.825   7.514  26.296
    1ASP     SC  591  15.846   7.397  25.994
    1THR     BB  592  15.458   7.535  26.233
    1THR     SC  593  15.460   7.779  26.275
    1THR     BB  594  15.396   7.262  26.067
    1THR     SC  595  15.475   7.347  25.840
    1ASN     BB  596  15.516   7.120  26.312
    1ASN     SC  597  15.755   6.924  26.305
    1LYS     BB  598  15.387   6.951  26.590
    1LYS     SC  599  15.130   6.797  26.445
    1LYS     SC  600  14.865   6.701  26.294
    1VAL     BB  601  15.635   6.901  26.783
    1VAL     SC  602  15.720   6.656  26.759
    1ALA     BB  603  15.750   7.195  26.723
    1LEU     BB  604  15.464   7.312  26.874
    1LEU     SC  605  15.246   7.430  26.659
    1ALA     BB  606  15.464   7.113  27.146
    1LYS     BB  607  15.764   7.255  27.269
    1LYS     SC  608  15.981   7.077  27.093
    1LYS     SC  609  16.183   6.878  26.944
    1LYS     BB  610  15.620   7.551  27.326
    1LYS     SC  611  15.675   7.662  27.034
    1LYS     SC  612  15.535   7.722  26.784
    1GLY     BB  613  15.327   7.508  27.448
    1ILE     BB  614  15.066   7.599  27.263
    1ILE     SC  615  15.119   7.631  27.020
    1GLN     BB  616  14.832   7.507  27.484
    1GLN     SC  617  15.012   7.219  27.480
    1SER     BB  618  14.895   7.789  27.679
    1SER     SC  619  15.112   7.760  27.734
    1TYR     BB  620  14.744   7.971  27.462
    1TYR     SC  621  15.031   8.095  27.406
    1TYR     SC  622  15.195   7.934  27.381
    1TYR     SC  623  15.365   8.065  27.477
    1ASP     BB  624  14.470   8.168  27.416
    1ASP     SC  625  14.494   8.240  27.749
    1TRP     BB  626  14.629   8.332  27.180
    1TRP     SC  627  14.387   8.560  27.192
    1TRP     SC  628  14.243   8.610  27.337
    1TRP     SC  629  14.199   8.680  27.006
    1TRP     SC  630  14.049   8.731  27.146
    1VAL     BB  631  14.680   8.287  26.821
    1VAL     SC  632  14.835   8.071  26.868
    1ILE     BB  633  14.904   8.434  26.573
    1ILE     SC  634  14.793   8.680  26.669
    1VAL     BB  635  14.895   8.422  26.210
    1VAL     SC  636  14.913   8.163  26.191
    1GLY     BB  637  15.119   8.617  25.985
    1ILE     BB  638  15.108   8.438  25.731
    1ILE     SC  639  15.320   8.225  25.803
    1GLU     BB  640  15.086   8.535  25.374
    1GLU     SC  641  15.029   8.922  25.336
    1ASN     BB  642  15.268   8.448  25.127
    1ASN     SC  643  15.464   8.714  25.144
    1GLU     BB  644  15.227   8.153  25.250
    1GLU     SC  645  15.609   8.094  25.353
    1LEU     BB  646  14.987   7.914  25.246
    1LEU     SC  647  14.717   7.943  25.091
    1GLU     BB  648  15.093   7.638  25.350
    1GLU     SC  649  15.258   7.338  25.132
    1SER     BB  650  15.198   7.744  25.625
    1SER     SC  651  15.428   7.843  25.656
    1SER     BB  652  14.928   7.876  25.730
    1SER     SC  653  14.868   8.118  25.682
    1LEU     BB  654  14.730   7.625  25.703
    1LEU     SC  655  14.585   7.696  25.410
    1VAL     BB  656  14.892   7.420  25.878
    1VAL     SC  657  15.037   7.264  25.727
    1THR     BB  658  14.902   7.604  26.130
    1THR     SC  659  15.111   7.762  26.122
    1VAL     BB  660  14.588   7.636  26.178
    1VAL     SC  661  14.463   7.804  26.048
    1LEU     BB  662  14.524   7.332  26.191
    1LEU     SC  663  14.485   7.124  25.962
    1ASN     BB  664  14.708   7.268  26.437
    1ASN     SC  665  14.984   7.169  26.268
    1LEU     BB  666  14.556   7.470  26.631
    1LEU     SC  667  14.760   7.740  26.602
    1LEU     BB  668  14.280   7.324  26.607
    1LEU     SC  669  14.055   7.343  26.384
    1ASP     BB  670  14.370   7.025  26.681
    1ASP     SC  671  14.427   6.888  26.374
    1LEU     BB  672  14.494   7.152  26.973
    1LEU     SC  673  14.803   7.085  26.877
    1LYS     BB  674  14.274   7.362  27.096
    1LYS     SC  675  14.120   7.092  27.157
    1LYS     SC  676  13.990   6.810  27.230
    1CYS     BB  677  14.268   7.658  27.043
    1CYS     SC  678  14.484   7.860  27.010
    1THR     BB  679  14.078   7.921  27.118
    1THR     SC  680  14.039   7.948  27.384
    1ASN     BB  681  14.233   8.178  26.960
    1ASN     SC  682  14.003   8.335  27.143
    1ILE     BB  683  14.250   8.225  26.596
    1ILE     SC  684  14.345   7.938  26.588
    1THR     BB  685  14.461   8.449  26.417
    1THR     SC  686  14.348   8.663  26.534
    1VAL     BB  687  14.464   8.549  26.065
    1VAL     SC  688  14.436   8.292  26.040
    1LYS     BB  689  14.652   8.599  25.774
    1LYS     SC  690  14.853   8.855  25.772
    1LYS     SC  691  15.053   9.070  25.639
    1ALA     BB  692  14.515   8.705  25.449
    1LYS     BB  693  14.612   8.772  25.108
    1LYS     SC  694  14.859   8.626  24.972
    1LYS     SC  695  15.090   8.513  24.788
    1ASP     BB  696  14.331   8.641  24.995
    1ASP     SC  697  14.343   8.728  24.669
    1ASP     BB  698  14.019   8.509  24.910
    1ASP     SC  699  13.881   8.796  24.832
    1ASN     BB  700  14.099   8.204  24.885
    1ASN     SC  701  14.070   8.185  24.551
    1TYR     BB  702  14.268   8.199  25.150
    1TYR     SC  703  14.523   8.284  24.981
    1TYR     SC  704  14.753   8.286  24.993
    1TYR     SC  705  14.789   8.241  24.766
    1ARG     BB  706  14.021   8.276  25.334
    1ARG     SC  707  13.901   8.562  25.365
    1ARG     SC  708  13.766   8.739  25.153
    1ARG     BB  709  13.848   8.018  25.268
    1ARG     SC  710  13.700   8.101  24.976
    1ARG     SC  711  13.544   8.258  24.681
    1VAL     BB  712  14.042   7.810  25.399
    1VAL     SC  713  14.198   7.700  25.223
    1LEU     BB  714  14.054   7.945  25.687
    1LEU     SC  715  14.334   8.138  25.653
    1LEU     BB  716  13.742   7.911  25.732
    1LEU     SC  717  13.514   8.097  25.624
    1ALA     BB  718  13.726   7.577  25.664
    1LEU     BB  719  13.986   7.590  25.935
    1LEU     SC  720  14.177   7.438  25.723
    1GLY     BB  721  13.765   7.701  26.138
    1LEU     BB  722  13.633   7.846  26.416
    1LEU     SC  723  13.688   7.526  26.577
    1THR     BB  724  13.435   8.069  26.596
    1THR     SC  725  13.213   7.967  26.677
    1GLU     BB  726  13.724   8.198  26.732
    1GLU     SC  727  13.572   8.149  27.040
    1ASN     BB  728  13.801   8.288  26.453
    1ASN     SC  729  13.967   7.986  26.411
    1GLN     BB  730  14.016   8.523  26.258
    1GLN     SC  731  13.711   8.723  26.381
    1ILE     BB  732  14.032   8.731  25.952
    1ILE     SC  733  14.008   8.468  25.794
    1ILE     BB  734  14.299   8.918  25.801
    1ILE     SC  735  14.330   9.059  26.080
    1VAL     BB  736  14.350   9.212  25.558
    1VAL     SC  737  14.201   9.088  25.409
    1PRO     BB  738  14.568   9.462  25.596
    1PRO     SC  739  14.662   9.269  25.744
    1ASN     BB  740  14.630   9.555  25.302
    1ASN     SC  741  14.939   9.418  25.277
    1LYS     BB  742  14.331   9.587  25.206
    1LYS     SC  743  14.256   9.306  25.025
    1LYS     SC  744  14.191   9.089  24.787
    1ILE     BB  745  14.220   9.779  25.433
    1ILE     SC  746  14.125   9.599  25.669
    1ALA     BB  747  14.463   9.995  25.422
    1GLY     BB  748  14.377  10.062  25.092
    1GLU     BB  749  14.082  10.175  25.126
    1GLU     SC  750  13.810   9.855  25.109
    1ILE     BB  751  14.157  10.406  25.322
    1ILE     SC  752  14.132  10.281  25.608
    1THR     BB  753  14.376  10.544  25.143
    1THR     SC  754  14.587  10.401  25.194
    1ALA     BB  755  14.191  10.542  24.872
    1THR     BB  756  13.983  10.768  25.019
    1THR     SC  757  13.790  10.633  25.142
    1ARG     BB  758  14.190  10.998  25.079
    1ARG     SC  759  14.371  11.017  25.327
    1ARG     SC  760  14.544  11.241  25.568
    1VAL     BB  761  14.290  11.032  24.771
    1VAL     SC  762  14.476  10.859  24.723
    1ILE     BB  763  14.016  11.143  24.644
    1ILE     SC  764  13.823  10.905  24.641
    1PHE     BB  765  14.054  11.406  24.824
    1PHE     SC  766  13.791  11.385  24.984
    1PHE     SC  767  13.728  11.182  25.078
    1PHE     SC  768  13.546  11.283  25.054
    1ASN     BB  769  14.213  11.684  24.682
    1ASN     SC  770  14.150  11.577  24.371
    1ILE     BB  771  14.165  11.856  24.982
    1ILE     SC  772  13.912  11.951  24.901
    1ASP     BB  773  14.180  11.667  25.246
    1ASP     SC  774  14.453  11.625  25.367
    1PHE     BB  775  13.886  11.563  25.380
    1PHE     SC  776  13.640  11.647  25.306
    1PHE     SC  777  13.571  11.855  25.382
    1PHE     SC  778  13.416  11.728  25.441
    1ASP     BB  779  14.038  11.299  25.454
    1ASP     SC  780  13.884  11.023  25.463
    1ILE     BB  781  14.216  11.175  25.728
    1ILE     SC  782  14.274  11.450  25.862
    1GLU     BB  783  13.998  10.981  25.889
    1GLU     SC  784  14.220  10.712  25.979
    1VAL     BB  785  13.807  10.653  25.940
    1VAL     SC  786  13.663  10.705  25.743
    1SER     BB  787  13.293  10.240  26.044
    1SER     SC  788  13.221  10.201  25.795
    1ILE     BB  789  12.975  10.141  26.161
    1ILE     SC  790  12.952  10.349  26.347
    1ASP     BB  791  12.853  10.093  25.868
    1ASP     SC  792  12.607   9.878  25.941
    1ASP     BB  793  12.816   9.939  25.526
    1ASP     SC  794  13.128   9.887  25.619
    1GLU     BB  795  12.505   9.881  25.493
    1GLU     SC  796  12.538   9.464  25.598
    1PHE     BB  797  12.471  10.111  25.673
    1PHE     SC  798  12.252   9.991  25.843
    1PHE     SC  799  12.026  10.028  25.885
    1PHE     SC  800  12.047   9.818  25.896
    1ILE     BB  801  12.497  10.441  25.609
    1ILE     SC  802  12.447  10.475  25.309
    1SER     BB  803  12.786  10.484  25.844
    1SER     SC  804  12.613  10.489  26.030
    1SER     BB  805  13.003  10.749  25.990
    1SER     SC  806  13.124  10.711  25.777
    1THR     BB  807  13.336  10.858  26.110
    1THR     SC  808  13.278  10.867  26.367
    1LEU     BB  809  13.486  11.182  26.027
    1LEU     SC  810  13.504  11.165  25.700
    1GLU     BB  811  13.798  11.351  25.933
    1GLU     SC  812  14.072  11.339  26.230
    1VAL     BB  813  13.837  11.709  25.872
    1VAL     SC  814  13.594  11.670  25.753
    1LYS     BB  815  13.860  12.007  25.653
    1LYS     SC  816  14.176  11.953  25.620
    1LYS     SC  817  14.468  11.972  25.561
    1ASN     BB  818  13.927  12.361  25.541
    1ASN     SC  819  13.882  12.105  25.288
    1PRO     BB  820  13.902  12.728  25.437
    1PRO     SC  821  14.039  12.650  25.269
    1ASP     BB  822  13.587  12.787  25.423
    1ASP     SC  823  13.560  12.518  25.295
    1LEU     BB  824  13.594  12.747  25.759
    1LEU     SC  825  13.461  12.450  25.721
    1PHE     BB  826  13.712  13.022  25.818
    1PHE     SC  827  13.963  13.145  25.800
    1PHE     SC  828  14.152  13.114  25.933
    1PHE     SC  829  14.108  13.317  25.958
    1ASN     BB  830  13.562  13.169  26.070
    1ASN     SC  831  13.645  13.405  26.215
    1LYS     BB  832  13.344  12.956  26.189
    1LYS     SC  833  13.278  12.979  25.874
    1LYS     SC  834  13.260  13.200  25.646
    1ASN     BB  835  13.012  12.864  26.309
    1ASN     SC  836  13.096  13.134  26.488
    1ILE     BB  837  12.793  12.623  26.421
    1ILE     SC  838  12.973  12.434  26.543
    1GLN     BB  839  12.530  12.807  26.447
    1GLN     SC  840  12.415  13.006  26.760
    1GLN     BB  841  12.568  12.903  26.140
    1GLN     SC  842  12.809  13.216  26.078
    1VAL     BB  843  12.712  12.636  26.052
    1VAL     SC  844  12.877  12.682  25.865
    1GLY     BB  845  12.478  12.402  26.033
    1LEU     BB  846  12.451  12.037  26.036
    1LEU     SC  847  12.796  12.074  26.044
    1SER     BB  848  12.184  11.894  26.127
    1SER     SC  849  12.206  11.904  26.385
    1THR     BB  850  11.953  12.076  25.995
    1THR     SC  851  11.885  12.255  26.166
    1ASN     BB  852  12.076  12.080  25.681
    1ASN     SC  853  12.161  12.387  25.719
    1LYS     BB  854  12.191  11.730  25.677
    1LYS     SC  855  12.358  11.884  25.473
    1LYS     SC  856  12.468  11.972  25.186
    1ASP     BB  857  12.212  11.508  25.930
    1ASP     SC  858  11.909  11.469  25.821
    1PHE     BB  859  12.471  11.613  26.137
    1PHE     SC  860  12.604  11.561  25.882
    1PHE     SC  861  12.721  11.759  25.850
    1PHE     SC  862  12.625  11.725  25.667
    1ASN     BB  863  12.760  11.583  26.360
    1ASN     SC  864  12.632  11.591  26.660
    1ILE     BB  865  12.980  11.745  26.593
    1ILE     SC  866  13.103  11.972  26.428
    1ILE     BB  867  13.228  11.616  26.804
    1ILE     SC  868  13.179  11.317  26.744
    1GLN     BB  869  13.507  11.773  26.696
    1GLN     SC  870  13.770  11.576  26.947
    1ILE     BB  871  13.786  12.009  26.764
    1ILE     SC  872  13.602  12.233  26.676
    1ARG     BB  873  14.118  12.075  26.618
    1ARG     SC  874  14.308  11.834  26.675
    1ARG     SC  875  14.630  11.650  26.651
    1ARG     BB  876  14.337  12.347  26.740
    1ARG     SC  877  14.176  12.597  26.668
    1ARG     SC  878  14.042  12.867  26.833
    1LYS     BB  879  14.669  12.350  26.744
    1LYS     SC  880  14.700  12.661  26.673
    1LYS     SC  881  14.780  12.960  26.600
    1GLY     BB  882  14.615  12.067  26.927
    1LYS     BB  883  14.362  12.164  27.044
    1LYS     SC  884  14.476  12.427  27.232
    1LYS     SC  885  14.604  12.677  27.382
    1ILE     BB  886  14.061  12.133  27.225
    1ILE     SC  887  14.049  11.824  27.225
    1LEU     BB  888  13.731  12.207  27.148
    1LEU     SC  889  13.847  12.509  27.021
    1LEU     BB  890  13.435  12.289  27.237
    1LEU     SC  891  13.278  12.221  27.530
    1PRO     BB  892  13.128  12.249  27.029
    1PRO     SC  893  13.208  12.035  27.050
    1ASP     BB  894  12.957  12.461  27.158
    1ASP     SC  895  12.800  12.420  27.441
    1ASP     BB  896  12.728  12.683  27.051
    1ASP     SC  897  12.596  12.477  26.810
    1TYR     BB  898  12.991  12.880  26.961
    1TYR     SC  899  12.888  13.107  26.879
    1TYR     SC  900  13.076  13.238  26.923
    1TYR     SC  901  12.963  13.385  27.068
    1THR     BB  902  13.275  12.775  26.752
    1THR     SC  903  13.373  12.621  26.958
    1GLU     BB  904  13.592  12.841  26.624
    1GLU     SC  905  13.820  13.145  26.613
    1LEU     BB  906  13.704  12.783  26.298
    1LEU     SC  907  13.487  12.515  26.286
    1LYS     BB  908  13.991  12.674  26.125
    1LYS     SC  909  14.165  12.911  26.326
    1LYS     SC  910  14.248  13.140  26.532
    1GLU     BB  911  14.242  12.629  25.916
    1GLU     SC  912  14.352  12.758  25.556
    1GLY     BB  913  14.323  12.283  25.948
    1ASP     BB  914  14.124  12.182  26.126
    1ASP     SC  915  14.103  12.452  26.346
    1ILE     BB  916  13.685  11.767  26.187
    1ILE     SC  917  13.598  12.042  26.160
    1VAL     BB  918  13.424  11.584  26.350
    1VAL     SC  919  13.588  11.415  26.467
    1VAL     BB  920  13.202  11.371  26.172
    1VAL     SC  921  13.177  11.561  25.994
    1PHE     BB  922  12.845  11.246  26.189
    1PHE     SC  923  12.831  11.075  26.413
    1PHE     SC  924  12.850  10.849  26.366
    1PHE     SC  925  12.675  10.862  26.483
    1ALA     BB  926  12.658  11.012  25.977
    1ARG     BB  927  12.618  10.961  25.654
    1ARG     SC  928  12.294  10.851  25.648
    1ARG     SC  929  11.926  10.826  25.703
    1THR     BB  930  12.821  10.920  25.379
    1THR     SC  931  12.946  10.689  25.389
    1THR     BB  932  12.649  11.081  25.164
    1THR     SC  933  12.497  10.912  25.033
    1ILE     BB  934  12.599  11.327  25.355
    1ILE     SC  935  12.349  11.254  25.525
    1ILE     BB  936  12.901  11.407  25.400
    1ILE     SC  937  12.997  11.245  25.646
    1ASN     BB  938  12.959  11.461  25.098
    1ASN     SC  939  13.108  11.169  25.045
    1SER     BB  940  12.736  11.691  25.074
    1SER     SC  941  12.494  11.644  25.050
    1LEU     BB  942  12.922  11.880  25.242
    1LEU     SC  943  12.955  11.923  25.543
    1ALA     BB  944  13.211  11.832  25.072
    1GLU     BB  945  13.013  12.022  24.819
    1GLU     SC  946  12.913  11.664  24.653
    1LYS     BB  947  12.862  12.269  25.070
    1LYS     SC  948  12.583  12.286  24.950
    1LYS     SC  949  12.310  12.451  24.984
    1GLN     BB  950  13.150   6.088  23.060
    1GLN     SC  951  12.951   6.033  23.406
    1ASN     BB  952  13.328   6.372  23.200
    1ASN     SC  953  13.195   6.517  22.923
    1PHE     BB  954  13.686   6.418  23.224
    1PHE     SC  955  13.636   6.137  23.351
    1PHE     SC  956  13.526   5.973  23.227
    1PHE     SC  957  13.451   5.949  23.421
    1ALA     BB  958  13.904   6.607  23.452
    1ILE     BB  959  14.281   6.624  23.460
    1ILE     SC  960  14.258   6.330  23.477
    1ILE     BB  961  14.505   6.730  23.733
    1ILE     SC  962  14.328   6.984  23.763
    1GLY     BB  963  14.837   6.706  23.754
    1VAL     BB  964  15.070   6.498  23.576
    1VAL     SC  965  14.969   6.580  23.369
    1SER     BB  966  15.148   6.268  23.741
    1SER     SC  967  15.117   6.281  23.990
    1ASN     BB  968  15.196   5.926  23.756
    1ASN     SC  969  15.528   5.955  23.792
    1PHE     BB  970  14.899   5.884  23.846
    1PHE     SC  971  14.794   5.845  24.101
    1PHE     SC  972  14.602   5.968  24.153
    1PHE     SC  973  14.544   5.768  24.185
    1THR     BB  974  14.751   6.087  23.651
    1THR     SC  975  14.779   6.318  23.775
    1LEU     BB  976  14.851   5.957  23.390
    1LEU     SC  977  15.160   5.910  23.312
    1SER     BB  978  14.706   5.680  23.436
    1SER     SC  979  14.800   5.491  23.561
    1VAL     BB  980  14.416   5.795  23.442
    1VAL     SC  981  14.342   5.870  23.680
    1ILE     BB  982  14.430   5.904  23.156
    1ILE     SC  983  14.570   6.183  23.167
    1GLU     BB  984  14.540   5.649  22.994
    1GLU     SC  985  14.933   5.538  23.006
    1THR     BB  986  14.307   5.467  23.084
    1THR     SC  987  14.363   5.341  23.308
    1LEU     BB  988  14.047   5.635  23.002
    1LEU     SC  989  13.941   5.775  23.294
    1VAL     BB  990  14.125   5.659  22.695
    1VAL     SC  991  14.291   5.862  22.710
    1GLN     BB  992  14.153   5.343  22.645
    1GLN     SC  993  14.413   5.171  22.563
    1LYS     BB  994  13.829   5.338  22.743
    1LYS     SC  995  13.901   5.182  22.997
    1LYS     SC  996  14.023   4.922  23.149
    1ARG     BB  997  13.691   5.584  22.573
    1ARG     SC  998  13.729   5.373  22.335
    1ARG     SC  999  13.797   5.103  22.090
    1GLN     BB 1000  13.697   5.863  22.718
    1GLN     SC 1001  13.470   5.663  22.939
    1SER     BB 1002  13.629   6.184  22.827
    1SER     SC 1003  13.483   6.349  22.707
    1VAL     BB 1004  13.952   6.360  22.835
    1VAL     SC 1005  14.037   6.168  22.990
    1THR     BB 1006  14.114   6.612  23.026
    1THR     SC 1007  13.933   6.781  22.964
    1VAL     BB 1008  14.443   6.786  23.020
    1VAL     SC 1009  14.572   6.565  22.983
    1PHE     BB 1010  14.622   6.929  23.314
    1PHE     SC 1011  14.361   7.061  23.240
    1PHE     SC 1012  14.144   6.994  23.287
    1PHE     SC 1013  14.132   7.067  23.091
    1ASP     BB 1014  14.893   7.164  23.317
    1ASP     SC 1015  15.127   6.964  23.481
    1ILE     BB 1016  15.177   7.394  23.372
    1ILE     SC 1017  15.167   7.534  23.619
    1ASP     BB 1018  15.344   7.209  23.204
    1ASP     SC 1019  15.631   7.088  23.260
    1GLU     BB 1020  15.427   7.178  22.871
    1GLU     SC 1021  15.520   7.422  22.584
    1ARG     BB 1022  15.579   6.905  22.855
    1ARG     SC 1023  15.898   7.009  22.910
    1ARG     SC 1024  16.245   7.141  22.912
    1ARG     BB 1025  15.352   6.740  22.984
    1ARG     SC 1026  15.413   6.764  23.311
    1ARG     SC 1027  15.501   6.819  23.662
    1LEU     BB 1028  15.138   6.805  22.775
    1LEU     SC 1029  14.949   7.036  22.715
    1ASN     BB 1030  15.282   6.733  22.499
    1ASN     SC 1031  15.387   7.041  22.438
    1LEU     BB 1032  15.308   6.436  22.563
    1LEU     SC 1033  15.610   6.413  22.735
    1TYR     BB 1034  14.987   6.372  22.629
    1TYR     SC 1035  15.083   6.358  22.919
    1TYR     SC 1036  15.039   6.290  23.136
    1TYR     SC 1037  15.267   6.304  23.205
    1LEU     BB 1038  14.857   6.475  22.358
    1LEU     SC 1039  14.785   6.768  22.285
    1SER     BB 1040  15.025   6.273  22.151
    1SER     SC 1041  15.206   6.424  22.082
    1GLU     BB 1042  15.144   5.999  22.347
    1GLU     SC 1043  15.411   6.123  22.140
    1PHE     BB 1044  14.856   5.952  22.559
    1PHE     SC 1045  15.094   5.994  22.738
    1PHE     SC 1046  15.191   5.867  22.907
    1PHE     SC 1047  15.352   5.978  22.829
    1ASP     BB 1048  14.557   5.965  22.407
    1ASP     SC 1049  14.672   5.704  22.269
    1THR     BB 1050  14.411   6.230  22.432
    1THR     SC 1051  14.444   6.380  22.635
    1VAL     BB 1052  14.137   6.435  22.376
    1VAL     SC 1053  13.912   6.314  22.437
    1GLU     BB 1054  14.272   6.671  22.569
    1GLU     SC 1055  14.025   6.998  22.524
    1GLY     BB 1056  14.513   6.963  22.602
    1ILE     BB 1057  14.614   7.213  22.866
    1ILE     SC 1058  14.335   7.335  22.769
    1VAL     BB 1059  14.770   7.506  22.955
    1VAL     SC 1060  15.026   7.517  22.892
    1ILE     BB 1061  14.757   7.541  23.321
    1ILE     SC 1062  14.492   7.595  23.249
    1ASP     BB 1063  14.639   7.714  23.587
    1ASP     SC 1064  14.825   7.865  23.804
    1THR     BB 1065  14.443   7.591  23.878
    1THR     SC 1066  14.483   7.357  23.812
    1THR     BB 1067  14.441   7.848  24.077
    1THR     SC 1068  14.676   7.815  24.171
    1ASN     BB 1069  14.309   7.992  23.840
    1ASN     SC 1070  14.412   8.251  23.707
    1LYS     BB 1071  13.983   8.077  23.758
    1LYS     SC 1072  13.765   8.183  23.942
    1LYS     SC 1073  13.461   8.270  23.993
    1VAL     BB 1074  13.998   8.179  23.455
    1VAL     SC 1075  13.994   8.439  23.445
    1ALA     BB 1076  14.203   7.945  23.376
    1LEU     BB 1077  13.950   7.724  23.451
    1LEU     SC 1078  13.985   7.568  23.736
    1ALA     BB 1079  13.705   7.881  23.289
    1LYS     BB 1080  13.875   7.824  22.983
    1LYS     SC 1081  14.076   8.088  22.972
    1LYS     SC 1082  14.234   8.368  22.923
    1LYS     BB 1083  13.803   7.491  23.003
    1LYS     SC 1084  14.071   7.427  23.152
    1LYS     SC 1085  14.167   7.339  23.414
    1GLY     BB 1086  13.501   7.449  23.104
    1ILE     BB 1087  13.488   7.299  23.406
    1ILE     SC 1088  13.704   7.308  23.536
    1GLN     BB 1089  13.153   7.275  23.425
    1GLN     SC 1090  13.111   7.651  23.584
    1SER     BB 1091  13.139   7.012  23.211
    1SER     SC 1092  13.265   7.087  23.034
    1TYR     BB 1093  13.235   6.817  23.441
    1TYR     SC 1094  13.506   6.805  23.288
    1TYR     SC 1095  13.607   7.006  23.234
    1TYR     SC 1096  13.647   6.946  23.010
    1ASP     BB 1097  13.159   6.545  23.624
    1ASP     SC 1098  12.948   6.420  23.378
    1TRP     BB 1099  13.479   6.481  23.665
    1TRP     SC 1100  13.387   6.188  23.799
    1TRP     SC 1101  13.208   6.078  23.791
    1TRP     SC 1102  13.431   6.039  24.045
    1TRP     SC 1103  13.250   5.928  24.043
    1VAL     BB 1104  13.747   6.579  23.893
    1VAL     SC 1105  13.755   6.827  23.790
    1ILE     BB 1106  14.108   6.533  23.897
    1ILE     SC 1107  14.039   6.254  23.872
    1VAL     BB 1108  14.352   6.579  24.162
    1VAL     SC 1109  14.301   6.832  24.200
    1GLY     BB 1110  14.715   6.490  24.139
    1ILE     BB 1111  14.831   6.684  24.356
    1ILE     SC 1112  14.856   6.939  24.189
    1GLU     BB 1113  15.090   6.625  24.611
    1GLU     SC 1114  15.185   6.237  24.629
    1ASN     BB 1115  15.355   6.793  24.674
    1ASN     SC 1116  15.548   6.595  24.492
    1GLU     BB 1117  15.158   7.047  24.653
    1GLU     SC 1118  15.320   7.204  24.321
    1LEU     BB 1119  14.936   7.203  24.854
    1LEU     SC 1120  14.879   7.118  25.150
    1GLU     BB 1121  14.853   7.484  24.743
    1GLU     SC 1122  15.037   7.839  24.811
    1SER     BB 1123  14.759   7.382  24.462
    1SER     SC 1124  14.917   7.353  24.267
    1SER     BB 1125  14.547   7.164  24.557
    1SER     SC 1126  14.611   6.923  24.600
    1LEU     BB 1127  14.363   7.348  24.747
    1LEU     SC 1128  14.494   7.269  25.044
    1VAL     BB 1129  14.288   7.568  24.537
    1VAL     SC 1130  14.441   7.778  24.564
    1THR     BB 1131  14.173   7.369  24.326
    1THR     SC 1132  14.362   7.284  24.166
    1VAL     BB 1133  13.944   7.238  24.504
    1VAL     SC 1134  14.001   7.058  24.660
    1LEU     BB 1135  13.801   7.504  24.578
    1LEU     SC 1136  13.873   7.720  24.794
    1ASN     BB 1137  13.735   7.598  24.286
    1ASN     SC 1138  14.003   7.795  24.223
    1LEU     BB 1139  13.562   7.339  24.224
    1LEU     SC 1140  13.794   7.150  24.068
    1LEU     BB 1141  13.347   7.397  24.441
    1LEU     SC 1142  13.328   7.316  24.747
    1ASP     BB 1143  13.271   7.706  24.369
    1ASP     SC 1144  13.470   7.850  24.600
    1LEU     BB 1145  13.184   7.595  24.059
    1LEU     SC 1146  13.444   7.745  23.926
    1LYS     BB 1147  13.014   7.317  24.082
    1LYS     SC 1148  12.790   7.511  24.195
    1LYS     SC 1149  12.574   7.730  24.278
    1CYS     BB 1150  13.117   7.040  24.084
    1CYS     SC 1151  13.354   6.906  23.944
    1THR     BB 1152  13.047   6.724  24.130
    1THR     SC 1153  12.835   6.640  23.972
    1ASN     BB 1154  13.321   6.538  24.106
    1ASN     SC 1155  13.103   6.284  24.094
    1ILE     BB 1156  13.598   6.525  24.348
    1ILE     SC 1157  13.612   6.828  24.334
    1THR     BB 1158  13.931   6.399  24.309
    1THR     SC 1159  13.839   6.149  24.278
    1VAL     BB 1160  14.205   6.349  24.549
    1VAL     SC 1161  14.127   6.586  24.622
    1LYS     BB 1162  14.547   6.393  24.618
    1LYS     SC 1163  14.755   6.211  24.445
    1LYS     SC 1164  15.037   6.074  24.374
    1ALA     BB 1165  14.711   6.289  24.930
    1LYS     BB 1166  15.032   6.295  25.099
    1LYS     SC 1167  15.246   6.522  25.043
    1LYS     SC 1168  15.493   6.719  25.027
    1ASP     BB 1169  14.887   6.348  25.390
    1ASP     SC 1170  15.133   6.315  25.609
    1ASP     BB 1171  14.704   6.390  25.687
    1ASP     SC 1172  14.749   6.085  25.798
    1ASN     BB 1173  14.686   6.703  25.685
    1ASN     SC 1174  14.907   6.754  25.930
    1TYR     BB 1175  14.608   6.727  25.381
    1TYR     SC 1176  14.919   6.744  25.314
    1TYR     SC 1177  15.065   6.812  25.149
    1TYR     SC 1178  15.232   6.890  25.292
    1ARG     BB 1179  14.341   6.562  25.417
    1ARG     SC 1180  14.326   6.252  25.435
    1ARG     SC 1181  14.434   6.065  25.655
    1ARG     BB 1182  14.201   6.762  25.619
    1ARG     SC 1183  14.338   6.675  25.917
    1ARG     SC 1184  14.455   6.503  26.229
    1VAL     BB 1185  14.174   6.999  25.416
    1VAL     SC 1186  14.369   7.166  25.441
    1LEU     BB 1187  14.022   6.843  25.183
    1LEU     SC 1188  14.286   6.747  24.988
    1LEU     BB 1189  13.775   6.776  25.368
    1LEU     SC 1190  13.753   6.546  25.579
    1ALA     BB 1191  13.715   7.096  25.471
    1LEU     BB 1192  13.703   7.132  25.098
    1LEU     SC 1193  13.939   7.351  25.133
    1GLY     BB 1194  13.454   6.935  25.063
    1LEU     BB 1195  13.229   6.781  24.883
    1LEU     SC 1196  13.202   6.882  24.587
    1THR     BB 1197  12.995   6.526  24.875
    1THR     SC 1198  12.749   6.610  24.876
    1GLU     BB 1199  13.176   6.377  24.618
    1GLU     SC 1200  12.857   6.336  24.447
    1ASN     BB 1201  13.437   6.352  24.778
    1ASN     SC 1202  13.664   6.587  24.778
    1GLN     BB 1203  13.770   6.197  24.720
    1GLN     SC 1204  13.500   5.929  24.774
    1ILE     BB 1205  14.052   6.060  24.907
    1ILE     SC 1206  14.067   6.322  25.068
    1ILE     BB 1207  14.386   5.982  24.800
    1ILE     SC 1208  14.254   5.826  24.563
    1VAL     BB 1209  14.676   5.747  24.899
    1VAL     SC 1210  14.645   5.837  25.123
    1PRO     BB 1211  14.865   5.570  24.688
    1PRO     SC 1212  14.766   5.763  24.543
    1ASN     BB 1213  15.136   5.534  24.841
    1ASN     SC 1214  15.323   5.758  24.663
    1LYS     BB 1215  15.012   5.429  25.114
    1LYS     SC 1216  15.009   5.695  25.328
    1LYS     SC 1217  15.067   5.908  25.572
    1ILE     BB 1218  14.839   5.189  25.004
    1ILE     SC 1219  14.561   5.301  24.924
    1ALA     BB 1220  15.069   5.052  24.818
    1GLY     BB 1221  15.260   5.003  25.102
    1GLU     BB 1222  15.088   4.796  25.267
    1GLU     SC 1223  14.846   4.806  25.581
    1ILE     BB 1224  15.062   4.581  25.042
    1ILE     SC 1225  14.810   4.662  24.874
    1THR     BB 1226  15.372   4.541  24.999
    1THR     SC 1227  15.428   4.736  24.837
    1ALA     BB 1228  15.439   4.518  25.320
    1THR     BB 1229  15.267   4.223  25.328
    1THR     SC 1230  15.016   4.278  25.393
    1ARG     BB 1231  15.428   4.063  25.111
    1ARG     SC 1232  15.381   4.071  24.807
    1ARG     SC 1233  15.393   3.883  24.487
    1VAL     BB 1234  15.717   4.097  25.258
    1VAL     SC 1235  15.822   4.321  25.188
    1ILE     BB 1236  15.652   3.920  25.517
    1ILE     SC 1237  15.463   4.090  25.690
    1PHE     BB 1238  15.622   3.665  25.323
    1PHE     SC 1239  15.335   3.590  25.403
    1PHE     SC 1240  15.169   3.752  25.409
    1PHE     SC 1241  15.100   3.605  25.541
    1ASN     BB 1242  15.906   3.465  25.271
    1ASN     SC 1243  16.156   3.510  25.394
    1ILE     BB 1244  15.724   3.246  25.079
    1ILE     SC 1245  15.643   3.091  25.303
    1ASP     BB 1246  15.499   3.403  24.908
    1ASP     SC 1247  15.585   3.511  24.640
    1PHE     BB 1248  15.184   3.401  25.031
    1PHE     SC 1249  15.099   3.258  25.245
    1PHE     SC 1250  15.066   3.031  25.215
    1PHE     SC 1251  14.883   3.096  25.292
    1ASP     BB 1252  15.156   3.688  24.910
    1ASP     SC 1253  14.966   3.901  25.048
    1ILE     BB 1254  15.047   3.828  24.610
    1ILE     SC 1255  15.075   3.572  24.438
    1GLU     BB 1256  14.736   3.928  24.671
    1GLU     SC 1257  14.738   4.240  24.490
    1VAL     BB 1258  14.477   4.176  24.810
    1VAL     SC 1259  14.536   4.105  25.043
    1SER     BB 1260  13.945   4.400  25.147
    1SER     SC 1261  14.061   4.439  25.378
    1ILE     BB 1262  13.624   4.384  25.294
    1ILE     SC 1263  13.539   4.160  25.148
    1ASP     BB 1264  13.737   4.426  25.593
    1ASP     SC 1265  13.463   4.551  25.738
    1ASP     BB 1266  13.904   4.601  25.884
    1ASP     SC 1267  14.037   4.726  25.609
    1GLU     BB 1268  13.705   4.569  26.130
    1GLU     SC 1269  13.532   4.963  26.091
    1PHE     BB 1270  13.626   4.320  25.995
    1PHE     SC 1271  13.328   4.349  26.042
    1PHE     SC 1272  13.162   4.241  26.164
    1PHE     SC 1273  13.106   4.444  26.170
    1ILE     BB 1274  13.782   4.022  25.978
    1ILE     SC 1275  13.969   4.008  26.218
    1SER     BB 1276  13.821   4.041  25.604
    1SER     SC 1277  13.580   3.963  25.592
    1SER     BB 1278  13.941   3.841  25.316
    1SER     SC 1279  14.157   3.937  25.388
    1THR     BB 1280  14.109   3.822  24.987
    1THR     SC 1281  13.896   3.765  24.842
    1LEU     BB 1282  14.360   3.568  24.899
    1LEU     SC 1283  14.595   3.627  25.122
    1GLU     BB 1284  14.681   3.513  24.731
    1GLU     SC 1285  14.654   3.570  24.331
    1VAL     BB 1286  14.855   3.191  24.696
    1VAL     SC 1287  14.764   3.168  24.952
    1LYS     BB 1288  15.107   2.940  24.798
    1LYS     SC 1289  15.323   3.089  24.611
    1LYS     SC 1290  15.562   3.164  24.450
    1ASN     BB 1291  15.333   2.636  24.785
    1ASN     SC 1292  15.403   2.894  25.031
    1PRO     BB 1293  15.499   2.295  24.826
    1PRO     SC 1294  15.683   2.430  24.859
    1ASP     BB 1295  15.320   2.146  25.048
    1ASP     SC 1296  15.315   2.409  25.193
    1LEU     BB 1297  15.081   2.150  24.808
    1LEU     SC 1298  14.934   2.390  24.977
    1PHE     BB 1299  15.197   1.921  24.645
    1PHE     SC 1300  15.412   1.880  24.470
    1PHE     SC 1301  15.427   1.949  24.249
    1PHE     SC 1302  15.449   1.742  24.237
    1ASN     BB 1303  14.970   1.705  24.549
    1ASN     SC 1304  14.993   1.494  24.354
    1LYS     BB 1305  14.677   1.819  24.649
    1LYS     SC 1306  14.855   1.825  24.913
    1LYS     SC 1307  15.072   1.653  25.069
    1ASN     BB 1308  14.363   1.780  24.784
    1ASN     SC 1309  14.345   1.503  24.596
    1ILE     BB 1310  14.097   1.984  24.864
    1ILE     SC 1311  13.968   2.156  24.664
    1GLN     BB 1312  13.942   1.780  25.065
    1GLN     SC 1313  13.632   1.691  25.075
    1GLN     BB 1314  14.196   1.664  25.224
    1GLN     SC 1315  14.463   1.435  25.046
    1VAL     BB 1316  14.273   1.974  25.230
    1VAL     SC 1317  14.526   1.988  25.233
    1GLY     BB 1318  14.040   2.107  25.422
    1LEU     BB 1319  13.920   2.446  25.482
    1LEU     SC 1320  14.192   2.517  25.289
    1SER     BB 1321  13.615   2.469  25.571
    1SER     SC 1322  13.522   2.352  25.361
    1THR     BB 1323  13.643   2.274  25.844
    1THR     SC 1324  13.512   2.066  25.774
    1ASN     BB 1325  13.947   2.342  25.984
    1ASN     SC 1326  14.052   2.060  25.874
    1LYS     BB 1327  13.912   2.704  25.964
    1LYS     SC 1328  14.208   2.640  25.955
    1LYS     SC 1329  14.498   2.612  26.086
    1ASP     BB 1330  13.670   2.878  25.826
    1ASP     SC 1331  13.551   2.824  26.118
    1PHE     BB 1332  13.735   2.845  25.486
    1PHE     SC 1333  13.971   2.969  25.570
    1PHE     SC 1334  14.117   2.910  25.398
    1PHE     SC 1335  14.207   2.835  25.573
    1ASN     BB 1336  13.768   2.939  25.129
    1ASN     SC 1337  13.451   2.857  25.210
    1ILE     BB 1338  13.797   2.834  24.802
    1ILE     SC 1339  14.063   2.662  24.793
    1ILE     BB 1340  13.788   2.995  24.471
    1ILE     SC 1341  13.705   3.261  24.594
    1GLN     BB 1342  14.086   2.939  24.329
    1GLN     SC 1343  13.933   3.003  24.004
    1ILE     BB 1344  14.288   2.781  24.056
    1ILE     SC 1345  14.308   2.533  24.236
    1ARG     BB 1346  14.625   2.843  23.921
    1ARG     SC 1347  14.641   3.122  23.784
    1ARG     SC 1348  14.816   3.395  23.602
    1ARG     BB 1349  14.766   2.640  23.645
    1ARG     SC 1350  14.791   2.361  23.764
    1ARG     SC 1351  14.669   2.044  23.715
    1LYS     BB 1352  14.986   2.739  23.416
    1LYS     SC 1353  15.145   2.462  23.406
    1LYS     SC 1354  15.332   2.208  23.363
    1GLY     BB 1355  14.740   2.969  23.363
    1LYS     BB 1356  14.522   2.787  23.438
    1LYS     SC 1357  14.541   2.551  23.193
    1LYS     SC 1358  14.595   2.332  22.967
    1ILE     BB 1359  14.197   2.697  23.520
    1ILE     SC 1360  14.082   2.983  23.589
    1LEU     BB 1361  14.052   2.533  23.802
    1LEU     SC 1362  14.310   2.305  23.771
    1LEU     BB 1363  13.811   2.366  23.928
    1LEU     SC 1364  13.490   2.349  23.828
    1PRO     BB 1365  13.671   2.370  24.281
    1PRO     SC 1366  13.715   2.570  24.241
    1ASP     BB 1367  13.585   2.061  24.271
    1ASP     SC 1368  13.273   2.013  24.177
    1ASP     BB 1369  13.566   1.785  24.465
    1ASP     SC 1370  13.601   1.971  24.743
    1TYR     BB 1371  13.869   1.694  24.327
    1TYR     SC 1372  13.926   1.460  24.436
    1TYR     SC 1373  14.069   1.389  24.267
    1TYR     SC 1374  13.946   1.194  24.220
    1THR     BB 1375  14.173   1.901  24.316
    1THR     SC 1376  14.052   2.070  24.138
    1GLU     BB 1377  14.488   1.964  24.185
    1GLU     SC 1378  14.743   1.745  23.996
    1LEU     BB 1379  14.781   2.092  24.342
    1LEU     SC 1380  14.555   2.285  24.527
    1LYS     BB 1381  15.062   2.296  24.281
    1LYS     SC 1382  15.113   2.094  23.993
    1LYS     SC 1383  15.112   1.869  23.764
    1GLU     BB 1384  15.361   2.439  24.265
    1GLU     SC 1385  15.719   2.389  24.425
    1GLY     BB 1386  15.292   2.789  24.232
    1ASP     BB 1387  15.008   2.800  24.244
    1ASP     SC 1388  14.935   2.514  24.054
    1ILE     BB 1389  14.554   3.058  24.561
    1ILE     SC 1390  14.627   2.780  24.660
    1VAL     BB 1391  14.215   3.130  24.661
    1VAL     SC 1392  14.189   3.327  24.487
    1VAL     BB 1393  14.127   3.290  24.969
    1VAL     SC 1394  14.289   3.123  25.088
    1PHE     BB 1395  13.839   3.302  25.219
    1PHE     SC 1396  13.630   3.434  25.091
    1PHE     SC 1397  13.609   3.658  25.141
    1PHE     SC 1398  13.418   3.580  25.179
    1ALA     BB 1399  13.796   3.495  25.527
    1ARG     BB 1400  13.983   3.560  25.792
    1ARG     SC 1401  13.744   3.566  26.034
    1ARG     SC 1402  13.454   3.473  26.250
    1THR     BB 1403  14.296   3.688  25.852
    1THR     SC 1404  14.304   3.946  25.792
    1THR     BB 1405  14.373   3.505  26.101
    1THR     SC 1406  14.319   3.637  26.322
    1ILE     BB 1407  14.281   3.237  25.964
    1ILE     SC 1408  13.979   3.205  26.019
    1ILE     BB 1409  14.476   3.247  25.716
    1ILE     SC 1410  14.321   3.405  25.497
    1ASN     BB 1411  14.738   3.249  25.887
    1ASN     SC 1412  14.785   3.577  25.858
    1SER     BB 1413  14.673   2.970  26.031
    1SER     SC 1414  14.516   2.945  26.218
    1LEU     BB 1415  14.734   2.825  25.763
    1LEU     SC 1416  14.574   2.747  25.513
    1ALA     BB 1417  15.025   2.980  25.682
    1GLU     BB 1418  15.132   2.769  25.972
    1GLU     SC 1419  15.082   3.097  26.208
    1LYS     BB 1420  14.931   2.461  25.864
    1LYS     SC 1421  14.839   2.374  26.140
    1LYS     SC 1422  14.685   2.132  26.284
    1LYS     BB 1423  16.412   3.719  26.191
    1LYS     SC 1424  16.276   3.889  26.461
    1LYS     SC 1425  16.175   4.016  26.740
    1GLN     BB 1426  16.346   3.945  25.949
    1GLN     SC 1427  16.345   3.655  25.695
    1ASN     BB 1428  16.531   4.184  25.735
    1ASN     SC 1429  16.714   4.109  26.003
    1PHE     BB 1430  16.474   4.534  25.672
    1PHE     SC 1431  16.208   4.393  25.583
    1PHE     SC 1432  16.102   4.255  25.739
    1PHE     SC 1433  16.082   4.152  25.557
    1ALA     BB 1434  16.585   4.761  25.407
    1ILE     BB 1435  16.492   5.122  25.360
    1ILE     SC 1436  16.216   5.009  25.372
    1ILE     BB 1437  16.506   5.337  25.062
    1ILE     SC 1438  16.797   5.232  25.022
    1GLY     BB 1439  16.390   5.645  25.015
    1VAL     BB 1440  16.141   5.832  25.194
    1VAL     SC 1441  16.267   5.784  25.398
    1SER     BB 1442  15.886   5.831  25.050
    1SER     SC 1443  15.887   5.774  24.804
    1ASN     BB 1444  15.544   5.783  25.068
    1ASN     SC 1445  15.477   6.104  25.003
    1PHE     BB 1446  15.578   5.476  25.013
    1PHE     SC 1447  15.547   5.336  24.773
    1PHE     SC 1448  15.713   5.179  24.726
    1PHE     SC 1449  15.534   5.069  24.719
    1THR     BB 1450  15.830   5.416  25.202
    1THR     SC 1451  16.032   5.484  25.046
    1LEU     BB 1452  15.686   5.513  25.460
    1LEU     SC 1453  15.573   5.805  25.516
    1SER     BB 1454  15.468   5.290  25.457
    1SER     SC 1455  15.250   5.308  25.343
    1VAL     BB 1456  15.664   5.050  25.472
    1VAL     SC 1457  15.737   4.964  25.236
    1ILE     BB 1458  15.791   5.130  25.745
    1ILE     SC 1459  15.960   5.347  25.715
    1GLU     BB 1460  15.524   5.175  25.914
    1GLU     SC 1461  15.310   5.522  25.886
    1THR     BB 1462  15.408   4.893  25.865
    1THR     SC 1463  15.255   4.888  25.653
    1LEU     BB 1464  15.646   4.695  25.951
    1LEU     SC 1465  15.784   4.597  25.655
    1VAL     BB 1466  15.673   4.808  26.248
    1VAL     SC 1467  15.824   5.016  26.201
    1GLN     BB 1468  15.365   4.756  26.329
    1GLN     SC 1469  15.137   4.970  26.405
    1LYS     BB 1470  15.446   4.434  26.260
    1LYS     SC 1471  15.253   4.435  26.019
    1LYS     SC 1472  14.959   4.470  25.885
    1ARG     BB 1473  15.739   4.392  26.417
    1ARG     SC 1474  15.537   4.396  26.666
    1ARG     SC 1475  15.279   4.421  26.934
    1GLN     BB 1476  15.988   4.447  26.241
    1GLN     SC 1477  15.830   4.159  26.069
    1SER     BB 1478  16.303   4.466  26.093
    1SER     SC 1479  16.516   4.395  26.212
    1VAL     BB 1480  16.372   4.827  26.036
    1VAL     SC 1481  16.156   4.828  25.899
    1THR     BB 1482  16.562   5.011  25.812
    1THR     SC 1483  16.783   4.893  25.866
    1VAL     BB 1484  16.633   5.370  25.767
    1VAL     SC 1485  16.377   5.423  25.797
    1PHE     BB 1486  16.702   5.549  25.445
    1PHE     SC 1487  16.913   5.349  25.534
    1PHE     SC 1488  16.906   5.118  25.519
    1PHE     SC 1489  17.000   5.153  25.704
    1ASP     BB 1490  16.852   5.870  25.390
    1ASP     SC 1491  16.581   6.021  25.229
    1ILE     BB 1492  16.987   6.196  25.284
    1ILE     SC 1493  17.104   6.197  25.025
    1ASP     BB 1494  16.776   6.326  25.457
    1ASP     SC 1495  16.574   6.560  25.384
    1GLU     BB 1496  16.757   6.440  25.782
    1GLU     SC 1497  17.013   6.642  25.997
    1ARG     BB 1498  16.454   6.515  25.815
    1ARG     SC 1499  16.461   6.841  25.726
    1ARG     SC 1500  16.494   7.209  25.684
    1ARG     BB 1501  16.347   6.240  25.725
    1ARG     SC 1502  16.324   6.264  25.393
    1ARG     SC 1503  16.321   6.326  25.033
    1LEU     BB 1504  16.484   6.080  25.945
    1LEU     SC 1505  16.764   5.975  26.002
    1ASN     BB 1506  16.402   6.237  26.213
    1ASN     SC 1507  16.681   6.416  26.230
    1LEU     BB 1508  16.107   6.173  26.183
    1LEU     SC 1509  15.982   6.432  25.988
    1TYR     BB 1510  16.116   5.847  26.156
    1TYR     SC 1511  16.062   5.895  25.856
    1TYR     SC 1512  15.996   5.810  25.650
    1TYR     SC 1513  15.931   6.023  25.564
    1LEU     BB 1514  16.279   5.758  26.415
    1LEU     SC 1515  16.588   5.773  26.462
    1SER     BB 1516  16.071   5.899  26.635
    1SER     SC 1517  16.180   6.119  26.668
    1GLU     BB 1518  15.756   5.916  26.465
    1GLU     SC 1519  15.828   6.229  26.625
    1PHE     BB 1520  15.767   5.603  26.286
    1PHE     SC 1521  15.728   5.820  26.084
    1PHE     SC 1522  15.565   5.861  25.923
    1PHE     SC 1523  15.633   6.053  25.973
    1ASP     BB 1524  15.883   5.342  26.456
    1ASP     SC 1525  15.613   5.388  26.621
    1THR     BB 1526  16.177   5.271  26.407
    1THR     SC 1527  16.236   5.400  26.182
    1VAL     BB 1528  16.449   5.062  26.448
    1VAL     SC 1529  16.381   4.812  26.427
    1GLU     BB 1530  16.600   5.252  26.234
    1GLU     SC 1531  16.939   5.271  26.364
    1GLY     BB 1532  16.803   5.570  26.148
    1ILE     BB 1533  17.010   5.669  25.856
    1ILE     SC 1534  17.208   5.468  26.000
    1VAL     BB 1535  17.241   5.880  25.721
    1VAL     SC 1536  17.193   6.140  25.748
    1ILE     BB 1537  17.253   5.840  25.355
    1ILE     SC 1538  17.382   5.608  25.440
    1ASP     BB 1539  17.427   5.742  25.082
    1ASP     SC 1540  17.503   5.936  24.835
    1THR     BB 1541  17.336   5.489  24.824
    1THR     SC 1542  17.107   5.474  24.913
    1THR     BB 1543  17.567   5.530  24.601
    1THR     SC 1544  17.465   5.735  24.489
    1ASN     BB 1545  17.762   5.468  24.833
    1ASN     SC 1546  17.993   5.654  24.923
    1LYS     BB 1547  17.943   5.190  24.937
    1LYS     SC 1548  18.032   5.064  24.641
    1LYS     SC 1549  18.063   4.931  24.352
    1VAL     BB 1550  18.063   5.268  25.221
    1VAL     SC 1551  18.314   5.337  25.200
    1ALA     BB 1552  17.788   5.408  25.307
    1LEU     BB 1553  17.641   5.099  25.283
    1LEU     SC 1554  17.458   5.059  25.012
    1ALA     BB 1555  17.871   4.919  25.447
    1LYS     BB 1556  17.797   5.089  25.749
    1LYS     SC 1557  17.987   5.356  25.705
    1LYS     SC 1558  18.193   5.597  25.668
    1LYS     BB 1559  17.493   4.954  25.772
    1LYS     SC 1560  17.348   5.173  25.595
    1LYS     SC 1561  17.213   5.213  25.337
    1GLY     BB 1562  17.508   4.643  25.692
    1ILE     BB 1563  17.348   4.554  25.416
    1ILE     SC 1564  17.293   4.749  25.260
    1GLN     BB 1565  17.432   4.230  25.421
    1GLN     SC 1566  17.741   4.365  25.460
    1SER     BB 1567  17.194   4.168  25.664
    1SER     SC 1568  17.256   4.311  25.831
    1TYR     BB 1569  16.959   4.199  25.449
    1TYR     SC 1570  16.898   4.457  25.608
    1TYR     SC 1571  17.066   4.617  25.625
    1TYR     SC 1572  17.039   4.649  25.855
    1ASP     BB 1573  16.715   4.017  25.295
    1ASP     SC 1574  16.692   3.835  25.582
    1TRP     BB 1575  16.550   4.296  25.239
    1TRP     SC 1576  16.286   4.110  25.158
    1TRP     SC 1577  16.231   3.909  25.197
    1TRP     SC 1578  16.114   4.082  24.927
    1TRP     SC 1579  16.056   3.881  24.958
    1VAL     BB 1580  16.558   4.553  24.979
    1VAL     SC 1581  16.801   4.634  25.060
    1ILE     BB 1582  16.411   4.884  24.953
    1ILE     SC 1583  16.165   4.746  25.012
    1VAL     BB 1584  16.366   5.101  24.666
    1VAL     SC 1585  16.619   5.115  24.604
    1GLY     BB 1586  16.182   5.427  24.670
    1ILE     BB 1587  16.318   5.564  24.421
    1ILE     SC 1588  16.568   5.676  24.557
    1GLU     BB 1589  16.168   5.768  24.154
    1GLU     SC 1590  15.769   5.751  24.171
    1ASN     BB 1591  16.252   6.057  24.050
    1ASN     SC 1592  16.024   6.211  24.236
    1GLU     BB 1593  16.548   5.938  24.063
    1GLU     SC 1594  16.685   6.174  24.356
    1LEU     BB 1595  16.740   5.740  23.866
    1LEU     SC 1596  16.646   5.625  23.589
    1GLU     BB 1597  17.042   5.748  23.948
    1GLU     SC 1598  17.324   6.006  23.809
    1SER     BB 1599  16.997   5.664  24.248
    1SER     SC 1600  16.941   5.834  24.428
    1SER     BB 1601  16.838   5.395  24.195
    1SER     SC 1602  16.586   5.387  24.172
    1LEU     BB 1603  17.051   5.245  24.002
    1LEU     SC 1604  16.916   5.319  23.706
    1VAL     BB 1605  17.300   5.256  24.193
    1VAL     SC 1606  17.455   5.455  24.130
    1THR     BB 1607  17.159   5.116  24.433
    1THR     SC 1608  17.038   5.294  24.586
    1VAL     BB 1609  17.082   4.842  24.291
    1VAL     SC 1610  16.881   4.832  24.150
    1LEU     BB 1611  17.371   4.769  24.200
    1LEU     SC 1612  17.538   4.868  23.954
    1ASN     BB 1613  17.501   4.762  24.486
    1ASN     SC 1614  17.620   5.078  24.494
    1LEU     BB 1615  17.307   4.535  24.595
    1LEU     SC 1616  17.070   4.726  24.745
    1LEU     BB 1617  17.397   4.320  24.384
    1LEU     SC 1618  17.260   4.249  24.109
    1ASP     BB 1619  17.715   4.333  24.426
    1ASP     SC 1620  17.817   4.556  24.188
    1LEU     BB 1621  17.647   4.260  24.753
    1LEU     SC 1622  17.754   4.558  24.845
    1LYS     BB 1623  17.422   4.020  24.759
    1LYS     SC 1624  17.673   3.850  24.664
    1LYS     SC 1625  17.939   3.696  24.584
    1CYS     BB 1626  17.109   4.064  24.765
    1CYS     SC 1627  16.957   4.256  24.922
    1THR     BB 1628  16.835   3.850  24.776
    1THR     SC 1629  16.869   3.676  24.968
    1ASN     BB 1630  16.608   4.099  24.803
    1ASN     SC 1631  16.430   3.823  24.859
    1ILE     BB 1632  16.500   4.322  24.552
    1ILE     SC 1633  16.797   4.412  24.519
    1THR     BB 1634  16.304   4.630  24.571
    1THR     SC 1635  16.092   4.479  24.640
    1VAL     BB 1636  16.155   4.854  24.323
    1VAL     SC 1637  16.398   4.838  24.232
    1LYS     BB 1638  16.096   5.184  24.219
    1LYS     SC 1639  15.879   5.354  24.393
    1LYS     SC 1640  15.677   5.598  24.455
    1ALA     BB 1641  15.924   5.278  23.907
    1LYS     BB 1642  15.824   5.567  23.714
    1LYS     SC 1643  15.987   5.840  23.725
    1LYS     SC 1644  16.105   6.133  23.703
    1ASP     BB 1645  15.890   5.411  23.432
    1ASP     SC 1646  15.763   5.624  23.204
    1ASP     BB 1647  15.957   5.213  23.153
    1ASP     SC 1648  15.643   5.160  23.074
    1ASN     BB 1649  16.264   5.282  23.116
    1ASN     SC 1650  16.228   5.460  22.835
    1TYR     BB 1651  16.331   5.257  23.421
    1TYR     SC 1652  16.265   5.563  23.457
    1TYR     SC 1653  16.306   5.738  23.602
    1TYR     SC 1654  16.335   5.901  23.437
    1ARG     BB 1655  16.251   4.956  23.433
    1ARG     SC 1656  15.956   4.846  23.448
    1ARG     SC 1657  15.728   4.871  23.243
    1ARG     BB 1658  16.465   4.851  23.218
    1ARG     SC 1659  16.315   4.912  22.925
    1ARG     SC 1660  16.090   4.964  22.638
    1VAL     BB 1661  16.718   4.906  23.394
    1VAL     SC 1662  16.826   5.134  23.337
    1LEU     BB 1663  16.623   4.730  23.642
    1LEU     SC 1664  16.479   4.980  23.832
    1LEU     BB 1665  16.610   4.472  23.462
    1LEU     SC 1666  16.280   4.473  23.347
    1ALA     BB 1667  16.919   4.480  23.358
    1LEU     BB 1668  16.985   4.500  23.712
    1LEU     SC 1669  17.146   4.782  23.654
    1GLY     BB 1670  16.899   4.192  23.840
    1LEU     BB 1671  16.611   4.037  23.778
    1LEU     SC 1672  16.430   4.086  23.547
    1THR     BB 1673  16.672   3.743  23.888
    1THR     SC 1674  16.899   3.722  23.766
    1GLU     BB 1675  16.653   3.910  24.208
    1GLU     SC 1676  16.996   3.686  24.248
    1ASN     BB 1677  16.391   4.100  24.132
    1ASN     SC 1678  16.544   4.343  24.023
    1GLN     BB 1679  16.144   4.375  24.199
    1GLN     SC 1680  15.954   4.046  24.192
    1ILE     BB 1681  15.890   4.582  24.022
    1ILE     SC 1682  16.120   4.659  23.832
    1ILE     BB 1683  15.730   4.899  24.101
    1ILE     SC 1684  15.637   4.762  24.367
    1VAL     BB 1685  15.416   5.104  24.004
    1VAL     SC 1686  15.491   5.071  23.775
    1PRO     BB 1687  15.213   5.263  24.216
    1PRO     SC 1688  15.438   5.237  24.346
    1ASN     BB 1689  15.089   5.496  24.045
    1ASN     SC 1690  15.270   5.753  24.179
    1LYS     BB 1691  14.998   5.319  23.798
    1LYS     SC 1692  15.235   5.362  23.555
    1LYS     SC 1693  15.403   5.445  23.286
    1ILE     BB 1694  14.826   5.102  23.949
    1ILE     SC 1695  15.017   4.876  24.042
    1ALA     BB 1696  14.648   5.308  24.130
    1GLY     BB 1697  14.525   5.443  23.836
    1GLU     BB 1698  14.359   5.205  23.714
    1GLU     SC 1699  14.411   4.937  23.425
    1ILE     BB 1700  14.180   5.150  23.962
    1ILE     SC 1701  14.341   4.949  24.142
    1THR     BB 1702  14.059   5.440  23.982
    1THR     SC 1703  14.245   5.565  24.115
    1ALA     BB 1704  13.990   5.460  23.662
    1THR     BB 1705  13.755   5.216  23.701
    1THR     SC 1706  13.872   4.983  23.654
    1ARG     BB 1707  13.577   5.353  23.922
    1ARG     SC 1708  13.635   5.342  24.226
    1ARG     SC 1709  13.540   5.381  24.582
    1VAL     BB 1710  13.518   5.623  23.747
    1VAL     SC 1711  13.710   5.789  23.784
    1ILE     BB 1712  13.345   5.485  23.514
    1ILE     SC 1713  13.543   5.326  23.343
    1PHE     BB 1714  13.122   5.414  23.735
    1PHE     SC 1715  13.123   5.107  23.689
    1PHE     SC 1716  13.323   4.990  23.684
    1PHE     SC 1717  13.192   4.869  23.574
    1ASN     BB 1718  12.843   5.632  23.773
    1ASN     SC 1719  12.730   5.624  23.504
    1ILE     BB 1720  12.704   5.425  24.013
    1ILE     SC 1721  12.561   5.280  23.820
    1ASP     BB 1722  12.932   5.266  24.173
    1ASP     SC 1723  13.025   5.506  24.379
    1PHE     BB 1724  13.013   4.953  24.078
    1PHE     SC 1725  12.882   4.803  23.895
    1PHE     SC 1726  12.676   4.718  23.961
    1PHE     SC 1727  12.781   4.548  23.900
    1ASP     BB 1728  13.299   5.025  24.186
    1ASP     SC 1729  13.552   4.884  24.049
    1ILE     BB 1730  13.503   4.991  24.477
    1ILE     SC 1731  13.266   4.965  24.675
    1GLU     BB 1732  13.677   4.711  24.431
    1GLU     SC 1733  13.990   4.815  24.576
    1VAL     BB 1734  13.972   4.510  24.290
    1VAL     SC 1735  13.868   4.520  24.062
    1SER     BB 1736  14.304   4.021  23.977
    1SER     SC 1737  14.289   4.114  23.733
    1ILE     BB 1738  14.363   3.692  23.859
    1ILE     SC 1739  14.185   3.569  24.039
    1ASP     BB 1740  14.347   3.777  23.549
    1ASP     SC 1741  14.525   3.529  23.417
    1ASP     BB 1742  14.445   3.948  23.227
    1ASP     SC 1743  14.551   4.139  23.473
    1GLU     BB 1744  14.447   3.721  23.005
    1GLU     SC 1745  14.875   3.657  23.018
    1PHE     BB 1746  14.240   3.601  23.171
    1PHE     SC 1747  14.338   3.315  23.149
    1PHE     SC 1748  14.265   3.115  23.053
    1PHE     SC 1749  14.474   3.111  23.030
    1ILE     BB 1750  13.914   3.678  23.209
    1ILE     SC 1751  13.828   3.823  22.954
    1SER     BB 1752  13.955   3.759  23.573
    1SER     SC 1753  13.946   3.510  23.613
    1SER     BB 1754  13.753   3.851  23.873
    1SER     SC 1755  13.779   4.076  23.774
    1THR     BB 1756  13.717   4.043  24.186
    1THR     SC 1757  13.734   3.842  24.355
    1LEU     BB 1758  13.415   4.227  24.280
    1LEU     SC 1759  13.387   4.443  24.032
    1GLU     BB 1760  13.288   4.541  24.427
    1GLU     SC 1761  13.385   4.571  24.818
    1VAL     BB 1762  12.938   4.629  24.481
    1VAL     SC 1763  12.914   4.505  24.240
    1LYS     BB 1764  12.622   4.797  24.390
    1LYS     SC 1765  12.706   5.076  24.540
    1LYS     SC 1766  12.894   5.290  24.640
    1ASN     BB 1767  12.266   4.927  24.415
    1ASN     SC 1768  12.470   5.027  24.132
    1PRO     BB 1769  11.888   4.988  24.397
    1PRO     SC 1770  11.965   5.196  24.334
    1ASP     BB 1771  11.775   4.753  24.211
    1ASP     SC 1772  12.015   4.800  24.037
    1LEU     BB 1773  11.864   4.551  24.468
    1LEU     SC 1774  12.120   4.454  24.287
    1PHE     BB 1775  11.626   4.624  24.645
    1PHE     SC 1776  11.547   4.836  24.806
    1PHE     SC 1777  11.627   4.899  25.015
    1PHE     SC 1778  11.425   4.860  25.051
    1ASN     BB 1779  11.490   4.359  24.784
    1ASN     SC 1780  11.299   4.350  25.001
    1LYS     BB 1781  11.666   4.105  24.706
    1LYS     SC 1782  11.603   4.239  24.420
    1LYS     SC 1783  11.361   4.386  24.272
    1ASN     BB 1784  11.736   3.766  24.593
    1ASN     SC 1785  11.482   3.730  24.815
    1ILE     BB 1786  11.976   3.540  24.507
    1ILE     SC 1787  12.200   3.565  24.693
    1GLN     BB 1788  11.798   3.313  24.334
    1GLN     SC 1789  11.864   2.996  24.297
    1GLN     BB 1790  11.610   3.522  24.193
    1GLN     SC 1791  11.332   3.736  24.373
    1VAL     BB 1792  11.883   3.680  24.134
    1VAL     SC 1793  11.823   3.925  24.114
    1GLY     BB 1794  12.057   3.478  23.951
    1LEU     BB 1795  12.411   3.448  23.872
    1LEU     SC 1796  12.427   3.747  24.040
    1SER     BB 1797  12.509   3.160  23.798
    1SER     SC 1798  12.442   3.049  24.022
    1THR     BB 1799  12.298   3.085  23.559
    1THR     SC 1800  12.126   2.922  23.659
    1ASN     BB 1801  12.259   3.376  23.384
    1ASN     SC 1802  11.972   3.418  23.519
    1LYS     BB 1803  12.618   3.444  23.364
    1LYS     SC 1804  12.475   3.711  23.352
    1LYS     SC 1805  12.358   3.967  23.202
    1ASP     BB 1806  12.864   3.274  23.505
    1ASP     SC 1807  12.823   3.112  23.230
    1PHE     BB 1808  12.842   3.370  23.839
    1PHE     SC 1809  12.891   3.618  23.716
    1PHE     SC 1810  12.805   3.763  23.875
    1PHE     SC 1811  12.698   3.807  23.700
    1ASN     BB 1812  12.954   3.468  24.179
    1ASN     SC 1813  12.956   3.133  24.133
    1ILE     BB 1814  12.874   3.504  24.512
    1ILE     SC 1815  12.636   3.713  24.519
    1ILE     BB 1816  13.058   3.576  24.821
    1ILE     SC 1817  13.327   3.555  24.676
    1GLN     BB 1818  12.937   3.865  24.940
    1GLN     SC 1819  13.069   3.772  25.268
    1ILE     BB 1820  12.758   4.052  25.211
    1ILE     SC 1821  12.497   3.978  25.073
    1ARG     BB 1822  12.732   4.405  25.306
    1ARG     SC 1823  13.007   4.510  25.410
    1ARG     SC 1824  13.238   4.770  25.543
    1ARG     BB 1825  12.521   4.517  25.589
    1ARG     SC 1826  12.239   4.447  25.497
    1ARG     SC 1827  11.977   4.250  25.599
    1LYS     BB 1828  12.572   4.777  25.787
    1LYS     SC 1829  12.264   4.859  25.815
    1LYS     SC 1830  11.975   4.980  25.867
    1GLY     BB 1831  12.866   4.611  25.833
    1LYS     BB 1832  12.746   4.345  25.800
    1LYS     SC 1833  12.537   4.329  26.069
    1LYS     SC 1834  12.334   4.346  26.315
    1ILE     BB 1835  12.745   4.002  25.758
    1ILE     SC 1836  13.045   3.959  25.668
    1LEU     BB 1837  12.605   3.786  25.512
    1LEU     SC 1838  12.319   3.974  25.545
    1LEU     BB 1839  12.495   3.499  25.426
    1LEU     SC 1840  12.580   3.197  25.551
    1PRO     BB 1841  12.459   3.376  25.077
    1PRO     SC 1842  12.685   3.421  25.096
    1ASP     BB 1843  12.245   3.175  25.132
    1ASP     SC 1844  12.293   2.878  25.257
    1ASP     BB 1845  11.969   3.070  24.976
    1ASP     SC 1846  12.120   3.099  24.680
    1TYR     BB 1847  11.776   3.352  25.068
    1TYR     SC 1848  11.581   3.243  24.864
    1TYR     SC 1849  11.529   3.271  24.638
    1TYR     SC 1850  11.448   3.052  24.610
    1THR     BB 1851  11.917   3.676  25.056
    1THR     SC 1852  12.117   3.624  25.237
    1GLU     BB 1853  11.902   4.011  25.158
    1GLU     SC 1854  11.641   4.219  25.353
    1LEU     BB 1855  11.929   4.311  24.966
    1LEU     SC 1856  12.138   4.124  24.761
    1LYS     BB 1857  12.057   4.638  24.976
    1LYS     SC 1858  11.880   4.663  25.283
    1LYS     SC 1859  11.701   4.608  25.543
    1GLU     BB 1860  12.113   4.963  24.949
    1GLU     SC 1861  11.944   5.272  24.766
    1GLY     BB 1862  12.471   4.990  24.946
    1ASP     BB 1863  12.557   4.718  24.953
    1ASP     SC 1864  12.321   4.590  25.179
    1ILE     BB 1865  12.902   4.316  24.653
    1ILE     SC 1866  12.606   4.300  24.584
    1VAL     BB 1867  13.056   4.000  24.579
    1VAL     SC 1868  13.266   4.048  24.731
    1VAL     BB 1869  13.206   3.921  24.264
    1VAL     SC 1870  12.990   4.019  24.151
    1PHE     BB 1871  13.275   3.620  24.041
    1PHE     SC 1872  13.470   3.470  24.171
    1PHE     SC 1873  13.687   3.502  24.095
    1PHE     SC 1874  13.660   3.295  24.084
    1ALA     BB 1875  13.446   3.592  23.717
    1ARG     BB 1876  13.433   3.760  23.432
    1ARG     SC 1877  13.484   3.505  23.210
    1ARG     SC 1878  13.459   3.180  23.030
    1THR     BB 1879  13.465   4.086  23.330
    1THR     SC 1880  13.714   4.170  23.363
    1THR     BB 1881  13.248   4.084  23.096
    1THR     SC 1882  13.371   4.043  22.868
    1ILE     BB 1883  13.027   3.940  23.270
    1ILE     SC 1884  13.076   3.636  23.244
    1ILE     BB 1885  13.004   4.157  23.498
    1ILE     SC 1886  13.216   4.078  23.710
    1ASN     BB 1887  12.918   4.389  23.307
    1ASN     SC 1888  13.223   4.525  23.291
    1SER     BB 1889  12.657   4.238  23.200
    1SER     SC 1890  12.660   4.059  23.032
    1LEU     BB 1891  12.524   4.289  23.477
    1LEU     SC 1892  12.513   4.140  23.745
    1ALA     BB 1893  12.598   4.618  23.515
    1GLU     BB 1894  12.344   4.631  23.241
    1GLU     SC 1895  12.652   4.638  22.976
    1LYS     BB 1896  12.112   4.369  23.402
    1LYS     SC 1897  12.032   4.225  23.146
    1LYS     SC 1898  11.829   3.998  23.044
    1GLN     BB 1899  17.888   5.540  20.748
    1GLN     SC 1900  17.733   5.361  20.502
    1ASN     BB 1901  17.706   5.671  20.975
    1ASN     SC 1902  17.509   5.740  20.712
    1PHE     BB 1903  17.733   5.933  21.225
    1PHE     SC 1904  18.011   5.792  21.226
    1PHE     SC 1905  18.123   5.769  21.023
    1PHE     SC 1906  18.158   5.587  21.120
    1ALA     BB 1907  17.610   5.954  21.571
    1ILE     BB 1908  17.664   6.237  21.814
    1ILE     SC 1909  17.948   6.183  21.746
    1ILE     BB 1910  17.637   6.244  22.179
    1ILE     SC 1911  17.358   6.108  22.147
    1GLY     BB 1912  17.723   6.483  22.392
    1VAL     BB 1913  17.904   6.784  22.380
    1VAL     SC 1914  17.794   6.834  22.157
    1SER     BB 1915  18.200   6.718  22.474
    1SER     SC 1916  18.207   6.550  22.661
    1ASN     BB 1917  18.541   6.732  22.443
    1ASN     SC 1918  18.579   6.969  22.679
    1PHE     BB 1919  18.550   6.443  22.320
    1PHE     SC 1920  18.609   6.201  22.440
    1PHE     SC 1921  18.470   6.021  22.389
    1PHE     SC 1922  18.660   5.954  22.331
    1THR     BB 1923  18.301   6.466  22.122
    1THR     SC 1924  18.096   6.422  22.280
    1LEU     BB 1925  18.419   6.708  21.962
    1LEU     SC 1926  18.307   6.958  22.164
    1SER     BB 1927  18.655   6.546  21.845
    1SER     SC 1928  18.874   6.523  21.948
    1VAL     BB 1929  18.484   6.333  21.693
    1VAL     SC 1930  18.437   6.123  21.842
    1ILE     BB 1931  18.329   6.531  21.503
    1ILE     SC 1932  18.113   6.658  21.684
    1GLU     BB 1933  18.583   6.687  21.395
    1GLU     SC 1934  18.659   7.003  21.448
    1THR     BB 1935  18.742   6.442  21.286
    1THR     SC 1936  18.910   6.355  21.465
    1LEU     BB 1937  18.518   6.315  21.098
    1LEU     SC 1938  18.405   6.053  21.285
    1VAL     BB 1939  18.494   6.568  20.910
    1VAL     SC 1940  18.367   6.763  20.990
    1GLN     BB 1941  18.805   6.584  20.824
    1GLN     SC 1942  18.970   6.838  21.107
    1LYS     BB 1943  18.741   6.274  20.704
    1LYS     SC 1944  18.932   6.163  20.907
    1LYS     SC 1945  19.235   6.136  21.007
    1ARG     BB 1946  18.453   6.294  20.545
    1ARG     SC 1947  18.637   6.469  20.350
    1ARG     SC 1948  18.891   6.668  20.164
    1GLN     BB 1949  18.200   6.226  20.717
    1GLN     SC 1950  18.390   5.904  20.714
    1SER     BB 1951  17.890   6.132  20.828
    1SER     SC 1952  17.678   6.112  20.693
    1VAL     BB 1953  17.764   6.379  21.069
    1VAL     SC 1954  17.997   6.344  21.196
    1THR     BB 1955  17.594   6.395  21.385
    1THR     SC 1956  17.379   6.310  21.270
    1VAL     BB 1957  17.488   6.663  21.619
    1VAL     SC 1958  17.719   6.781  21.611
    1PHE     BB 1959  17.410   6.611  21.981
    1PHE     SC 1960  17.229   6.463  21.791
    1PHE     SC 1961  17.252   6.262  21.677
    1PHE     SC 1962  17.152   6.383  21.541
    1ASP     BB 1963  17.224   6.825  22.202
    1ASP     SC 1964  17.482   6.902  22.420
    1ILE     BB 1965  17.070   7.042  22.462
    1ILE     SC 1966  16.959   6.889  22.675
    1ASP     BB 1967  17.264   7.270  22.389
    1ASP     SC 1968  17.431   7.451  22.586
    1GLU     BB 1969  17.239   7.545  22.177
    1GLU     SC 1970  16.850   7.684  22.134
    1ARG     BB 1971  17.532   7.662  22.196
    1ARG     SC 1972  17.495   7.876  22.452
    1ARG     SC 1973  17.424   8.149  22.693
    1ARG     BB 1974  17.707   7.406  22.134
    1ARG     SC 1975  17.723   7.240  22.423
    1ARG     SC 1976  17.718   7.077  22.753
    1LEU     BB 1977  17.592   7.360  21.850
    1LEU     SC 1978  17.350   7.142  21.931
    1ASN     BB 1979  17.658   7.641  21.715
    1ASN     SC 1980  17.364   7.789  21.783
    1LEU     BB 1981  17.965   7.578  21.721
    1LEU     SC 1982  18.040   7.701  22.033
    1TYR     BB 1983  17.910   7.270  21.562
    1TYR     SC 1984  18.065   7.181  21.798
    1TYR     SC 1985  18.287   7.136  21.749
    1TYR     SC 1986  18.368   7.248  21.940
    1LEU     BB 1987  17.821   7.358  21.274
    1LEU     SC 1988  17.600   7.574  21.221
    1SER     BB 1989  18.107   7.353  21.157
    1SER     SC 1990  18.213   7.570  21.051
    1GLU     BB 1991  18.042   7.191  20.866
    1GLU     SC 1992  18.374   7.278  20.629
    1PHE     BB 1993  17.685   7.204  20.784
    1PHE     SC 1994  17.704   7.485  20.816
    1PHE     SC 1995  17.609   7.566  20.620
    1PHE     SC 1996  17.775   7.690  20.653
    1ASP     BB 1997  17.682   6.984  20.513
    1ASP     SC 1998  17.554   7.261  20.412
    1THR     BB 1999  17.830   6.743  20.674
    1THR     SC 2000  18.062   6.737  20.552
    1VAL     BB 2001  17.727   6.870  20.957
    1VAL     SC 2002  17.931   6.810  21.098
    1GLU     BB 2003  17.455   6.793  21.155
    1GLU     SC 2004  17.259   6.881  20.836
    1GLY     BB 2005  17.266   6.999  21.375
    1ILE     BB 2006  17.085   6.912  21.694
    1ILE     SC 2007  16.909   6.756  21.478
    1VAL     BB 2008  16.832   6.996  21.917
    1VAL     SC 2009  16.868   7.238  22.005
    1ILE     BB 2010  16.840   6.752  22.197
    1ILE     SC 2011  16.733   6.596  22.010
    1ASP     BB 2012  16.681   6.507  22.370
    1ASP     SC 2013  16.597   6.525  22.679
    1THR     BB 2014  16.808   6.165  22.442
    1THR     SC 2015  17.032   6.224  22.358
    1THR     BB 2016  16.589   6.049  22.654
    1THR     SC 2017  16.677   6.173  22.858
    1ASN     BB 2018  16.390   6.095  22.428
    1ASN     SC 2019  16.137   6.277  22.442
    1LYS     BB 2020  16.232   5.898  22.190
    1LYS     SC 2021  16.116   5.622  22.217
    1LYS     SC 2022  15.987   5.363  22.081
    1VAL     BB 2023  16.103   6.091  21.984
    1VAL     SC 2024  15.846   6.137  22.029
    1ALA     BB 2025  16.352   6.293  21.993
    1LEU     BB 2026  16.530   6.041  21.844
    1LEU     SC 2027  16.733   5.890  22.048
    1ALA     BB 2028  16.317   5.930  21.606
    1LYS     BB 2029  16.325   6.244  21.454
    1LYS     SC 2030  16.085   6.370  21.598
    1LYS     SC 2031  15.768   6.401  21.549
    1LYS     BB 2032  16.641   6.223  21.351
    1LYS     SC 2033  16.782   6.323  21.620
    1LYS     SC 2034  16.934   6.232  21.857
    1GLY     BB 2035  16.699   5.926  21.243
    1ILE     BB 2036  16.873   5.715  21.427
    1ILE     SC 2037  16.910   5.794  21.669
    1GLN     BB 2038  16.820   5.441  21.247
    1GLN     SC 2039  16.498   5.541  21.284
    1SER     BB 2040  17.051   5.544  21.015
    1SER     SC 2041  16.966   5.748  20.947
    1TYR     BB 2042  17.289   5.474  21.219
    1TYR     SC 2043  17.322   5.782  21.230
    1TYR     SC 2044  17.141   5.909  21.299
    1TYR     SC 2045  17.161   6.066  21.126
    1ASP     BB 2046  17.555   5.265  21.265
    1ASP     SC 2047  17.633   5.269  20.929
    1TRP     BB 2048  17.694   5.483  21.465
    1TRP     SC 2049  17.980   5.316  21.437
    1TRP     SC 2050  18.059   5.181  21.294
    1TRP     SC 2051  18.159   5.181  21.620
    1TRP     SC 2052  18.241   5.041  21.482
    1VAL     BB 2053  17.671   5.554  21.821
    1VAL     SC 2054  17.417   5.640  21.792
    1ILE     BB 2055  17.786   5.828  22.024
    1ILE     SC 2056  18.042   5.771  21.905
    1VAL     BB 2057  17.820   5.858  22.385
    1VAL     SC 2058  17.568   5.810  22.437
    1GLY     BB 2059  17.968   6.149  22.566
    1ILE     BB 2060  17.829   6.110  22.844
    1ILE     SC 2061  17.560   6.247  22.790
    1GLU     BB 2062  17.969   6.151  23.184
    1GLU     SC 2063  18.366   6.191  23.166
    1ASN     BB 2064  17.861   6.328  23.424
    1ASN     SC 2065  18.063   6.582  23.360
    1GLU     BB 2066  17.579   6.203  23.344
    1GLU     SC 2067  17.404   6.543  23.222
    1LEU     BB 2068  17.412   5.912  23.398
    1LEU     SC 2069  17.527   5.680  23.574
    1GLU     BB 2070  17.108   5.927  23.322
    1GLU     SC 2071  16.796   6.041  23.556
    1SER     BB 2072  17.153   6.029  23.028
    1SER     SC 2073  17.181   6.274  22.974
    1SER     BB 2074  17.341   5.792  22.928
    1SER     SC 2075  17.593   5.801  22.949
    1LEU     BB 2076  17.153   5.542  23.001
    1LEU     SC 2077  17.289   5.455  23.294
    1VAL     BB 2078  16.896   5.627  22.843
    1VAL     SC 2079  16.722   5.742  23.001
    1THR     BB 2080  17.040   5.659  22.569
    1THR     SC 2081  17.134   5.903  22.540
    1VAL     BB 2082  17.151   5.362  22.539
    1VAL     SC 2083  17.358   5.298  22.654
    1LEU     BB 2084  16.877   5.220  22.566
    1LEU     SC 2085  16.705   5.150  22.818
    1ASN     BB 2086  16.737   5.357  22.322
    1ASN     SC 2087  16.582   5.614  22.479
    1LEU     BB 2088  16.950   5.246  22.113
    1LEU     SC 2089  17.156   5.514  22.096
    1LEU     BB 2090  16.890   4.944  22.167
    1LEU     SC 2091  17.014   4.744  22.379
    1ASP     BB 2092  16.567   4.946  22.129
    1ASP     SC 2093  16.478   4.965  22.453
    1LEU     BB 2094  16.631   5.072  21.818
    1LEU     SC 2095  16.496   5.361  21.903
    1LYS     BB 2096  16.878   4.894  21.691
    1LYS     SC 2097  16.645   4.679  21.670
    1LYS     SC 2098  16.399   4.478  21.643
    1CYS     BB 2099  17.176   4.965  21.712
    1CYS     SC 2100  17.309   5.231  21.690
    1THR     BB 2101  17.476   4.831  21.599
    1THR     SC 2102  17.461   4.789  21.340
    1ASN     BB 2103  17.676   5.075  21.722
    1ASN     SC 2104  17.881   4.896  21.530
    1ILE     BB 2105  17.757   5.139  22.069
    1ILE     SC 2106  17.456   5.169  22.113
    1THR     BB 2107  17.931   5.420  22.207
    1THR     SC 2108  18.155   5.354  22.072
    1VAL     BB 2109  18.068   5.489  22.538
    1VAL     SC 2110  17.832   5.400  22.600
    1LYS     BB 2111  18.098   5.711  22.808
    1LYS     SC 2112  18.288   5.971  22.759
    1LYS     SC 2113  18.453   6.232  22.847
    1ALA     BB 2114  18.271   5.636  23.124
    1LYS     BB 2115  18.350   5.780  23.448
    1LYS     SC 2116  18.162   5.998  23.583
    1LYS     SC 2117  18.016   6.219  23.757
    1ASP     BB 2118  18.307   5.488  23.594
    1ASP     SC 2119  18.418   5.541  23.904
    1ASP     BB 2120  18.275   5.161  23.716
    1ASP     SC 2121  18.599   5.118  23.762
    1ASN     BB 2122  17.965   5.165  23.772
    1ASN     SC 2123  17.991   5.193  24.104
    1TYR     BB 2124  17.887   5.296  23.498
    1TYR     SC 2125  17.921   5.580  23.638
    1TYR     SC 2126  17.864   5.801  23.614
    1TYR     SC 2127  17.839   5.846  23.843
    1ARG     BB 2128  18.005   5.057  23.329
    1ARG     SC 2129  18.307   5.015  23.266
    1ARG     SC 2130  18.541   4.959  23.459
    1ARG     BB 2131  17.810   4.834  23.444
    1ARG     SC 2132  17.961   4.749  23.736
    1ARG     SC 2133  18.190   4.634  24.009
    1VAL     BB 2134  17.545   4.955  23.326
    1VAL     SC 2135  17.423   5.102  23.501
    1LEU     BB 2136  17.639   4.975  23.021
    1LEU     SC 2137  17.752   5.298  23.011
    1LEU     BB 2138  17.686   4.664  23.000
    1LEU     SC 2139  17.939   4.504  23.094
    1ALA     BB 2140  17.380   4.569  23.116
    1LEU     BB 2141  17.287   4.791  22.832
    1LEU     SC 2142  17.122   4.975  23.043
    1GLY     BB 2143  17.440   4.586  22.633
    1LEU     BB 2144  17.570   4.484  22.365
    1LEU     SC 2145  17.280   4.456  22.154
    1THR     BB 2146  17.853   4.310  22.264
    1THR     SC 2147  17.764   4.070  22.217
    1GLU     BB 2148  17.944   4.556  22.052
    1GLU     SC 2149  17.922   4.280  21.848
    1ASN     BB 2150  17.959   4.744  22.280
    1ASN     SC 2151  17.628   4.839  22.263
    1GLN     BB 2152  18.152   5.041  22.379
    1GLN     SC 2153  18.420   4.882  22.089
    1ILE     BB 2154  18.371   5.134  22.656
    1ILE     SC 2155  18.144   5.059  22.850
    1ILE     BB 2156  18.496   5.454  22.757
    1ILE     SC 2157  18.592   5.494  22.461
    1VAL     BB 2158  18.790   5.601  22.956
    1VAL     SC 2159  18.729   5.440  23.128
    1PRO     BB 2160  18.969   5.867  22.866
    1PRO     SC 2161  18.742   5.894  22.741
    1ASN     BB 2162  19.077   5.983  23.137
    1ASN     SC 2163  18.866   6.249  23.160
    1LYS     BB 2164  19.194   5.710  23.249
    1LYS     SC 2165  18.962   5.589  23.468
    1LYS     SC 2166  18.787   5.495  23.728
    1ILE     BB 2167  19.381   5.632  23.007
    1ILE     SC 2168  19.208   5.472  22.805
    1ALA     BB 2169  19.527   5.924  22.972
    1GLY     BB 2170  19.657   5.887  23.298
    1GLU     BB 2171  19.847   5.639  23.270
    1GLU     SC 2172  19.832   5.249  23.332
    1ILE     BB 2173  20.019   5.749  23.037
    1ILE     SC 2174  19.870   5.661  22.775
    1THR     BB 2175  20.110   6.015  23.178
    1THR     SC 2176  19.909   6.173  23.130
    1ALA     BB 2177  20.189   5.868  23.462
    1THR     BB 2178  20.441   5.706  23.302
    1THR     SC 2179  20.347   5.473  23.217
    1ARG     BB 2180  20.597   5.957  23.200
    1ARG     SC 2181  20.541   6.113  22.942
    1ARG     SC 2182  20.682   6.316  22.666
    1VAL     BB 2183  20.637   6.093  23.493
    1VAL     SC 2184  20.428   6.232  23.553
    1ILE     BB 2185  20.830   5.868  23.617
    1ILE     SC 2186  20.657   5.621  23.664
    1PHE     BB 2187  21.045   5.953  23.399
    1PHE     SC 2188  21.081   5.677  23.261
    1PHE     SC 2189  20.894   5.554  23.205
    1PHE     SC 2190  21.043   5.409  23.227
    1ASN     BB 2191  21.285   6.190  23.496
    1ASN     SC 2192  21.416   6.061  23.724
    1ILE     BB 2193  21.437   6.176  23.191
    1ILE     SC 2194  21.615   5.968  23.260
    1ASP     BB 2195  21.218   6.114  22.955
    1ASP     SC 2196  21.095   6.352  22.822
    1PHE     BB 2197  21.193   5.790  22.855
    1PHE     SC 2198  21.362   5.595  22.930
    1PHE     SC 2199  21.577   5.583  22.841
    1PHE     SC 2200  21.495   5.395  22.799
    1ASP     BB 2201  20.890   5.857  22.805
    1ASP     SC 2202  20.667   5.633  22.841
    1ILE     BB 2203  20.688   5.966  22.538
    1ILE     SC 2204  20.921   6.082  22.369
    1GLU     BB 2205  20.544   5.691  22.419
    1GLU     SC 2206  20.218   5.825  22.343
    1VAL     BB 2207  20.275   5.418  22.425
    1VAL     SC 2208  20.386   5.313  22.622
    1SER     BB 2209  20.001   4.811  22.412
    1SER     SC 2210  20.021   4.755  22.665
    1ILE     BB 2211  19.970   4.472  22.326
    1ILE     SC 2212  20.157   4.473  22.114
    1ASP     BB 2213  19.998   4.365  22.629
    1ASP     SC 2214  19.854   4.066  22.601
    1ASP     BB 2215  19.905   4.318  22.992
    1ASP     SC 2216  19.766   4.598  22.887
    1GLU     BB 2217  19.940   4.009  23.051
    1GLU     SC 2218  19.521   3.912  23.012
    1PHE     BB 2219  20.148   4.022  22.843
    1PHE     SC 2220  20.076   3.765  22.701
    1PHE     SC 2221  20.169   3.555  22.668
    1PHE     SC 2222  19.962   3.519  22.679
    1ILE     BB 2223  20.463   4.139  22.865
    1ILE     SC 2224  20.543   4.127  23.159
    1SER     BB 2225  20.400   4.399  22.602
    1SER     SC 2226  20.419   4.216  22.435
    1SER     BB 2227  20.576   4.663  22.409
    1SER     SC 2228  20.530   4.790  22.618
    1THR     BB 2229  20.578   5.000  22.258
    1THR     SC 2230  20.580   4.922  22.005
    1LEU     BB 2231  20.857   5.238  22.287
    1LEU     SC 2232  20.873   5.282  22.611
    1GLU     BB 2233  20.942   5.588  22.340
    1GLU     SC 2234  20.835   5.828  22.030
    1VAL     BB 2235  21.277   5.727  22.346
    1VAL     SC 2236  21.326   5.496  22.486
    1LYS     BB 2237  21.581   5.846  22.512
    1LYS     SC 2238  21.445   6.134  22.537
    1LYS     SC 2239  21.412   6.425  22.593
    1ASN     BB 2240  21.934   5.995  22.561
    1ASN     SC 2241  21.752   6.082  22.810
    1PRO     BB 2242  22.285   6.095  22.641
    1PRO     SC 2243  22.175   6.219  22.808
    1ASP     BB 2244  22.428   5.810  22.673
    1ASP     SC 2245  22.191   5.730  22.844
    1LEU     BB 2246  22.353   5.774  22.343
    1LEU     SC 2247  22.116   5.567  22.437
    1PHE     BB 2248  22.574   5.953  22.240
    1PHE     SC 2249  22.636   6.227  22.238
    1PHE     SC 2250  22.571   6.359  22.056
    1PHE     SC 2251  22.779   6.384  22.063
    1ASN     BB 2252  22.734   5.830  21.981
    1ASN     SC 2253  22.918   5.960  21.800
    1LYS     BB 2254  22.581   5.549  21.906
    1LYS     SC 2255  22.647   5.520  22.216
    1LYS     SC 2256  22.881   5.578  22.423
    1ASN     BB 2257  22.580   5.220  21.806
    1ASN     SC 2258  22.821   5.310  21.591
    1ILE     BB 2259  22.347   4.975  21.748
    1ILE     SC 2260  22.116   5.015  21.574
    1GLN     BB 2261  22.553   4.728  21.741
    1GLN     SC 2262  22.617   4.512  21.504
    1GLN     BB 2263  22.724   4.804  22.004
    1GLN     SC 2264  22.979   5.105  21.995
    1VAL     BB 2265  22.442   4.871  22.135
    1VAL     SC 2266  22.472   5.068  22.292
    1GLY     BB 2267  22.292   4.573  22.164
    1LEU     BB 2268  21.961   4.499  22.203
    1LEU     SC 2269  21.860   4.830  22.165
    1SER     BB 2270  21.891   4.196  22.132
    1SER     SC 2271  21.820   4.123  21.895
    1THR     BB 2272  22.119   4.017  22.285
    1THR     SC 2273  22.301   3.962  22.113
    1ASN     BB 2274  22.133   4.157  22.592
    1ASN     SC 2275  22.400   4.315  22.510
    1LYS     BB 2276  21.769   4.173  22.639
    1LYS     SC 2277  21.893   4.393  22.812
    1LYS     SC 2278  21.980   4.547  23.078
    1ASP     BB 2279  21.530   4.108  22.419
    1ASP     SC 2280  21.583   3.820  22.552
    1PHE     BB 2281  21.539   4.372  22.188
    1PHE     SC 2282  21.480   4.502  22.436
    1PHE     SC 2283  21.641   4.668  22.421
    1PHE     SC 2284  21.660   4.595  22.616
    1ASN     BB 2285  21.397   4.610  21.947
    1ASN     SC 2286  21.430   4.305  21.804
    1ILE     BB 2287  21.454   4.830  21.694
    1ILE     SC 2288  21.661   5.046  21.803
    1ILE     BB 2289  21.244   5.040  21.480
    1ILE     SC 2290  20.987   4.913  21.584
    1GLN     BB 2291  21.343   5.351  21.552
    1GLN     SC 2292  21.213   5.494  21.256
    1ILE     BB 2293  21.499   5.673  21.432
    1ILE     SC 2294  21.769   5.561  21.524
    1ARG     BB 2295  21.477   6.020  21.542
    1ARG     SC 2296  21.188   6.130  21.509
    1ARG     SC 2297  20.923   6.390  21.534
    1ARG     BB 2298  21.660   6.293  21.372
    1ARG     SC 2299  21.954   6.221  21.415
    1ARG     SC 2300  22.235   6.140  21.233
    1LYS     BB 2301  21.573   6.613  21.353
    1LYS     SC 2302  21.871   6.726  21.379
    1LYS     SC 2303  22.145   6.883  21.406
    1GLY     BB 2304  21.297   6.474  21.209
    1LYS     BB 2305  21.442   6.244  21.098
    1LYS     SC 2306  21.645   6.401  20.870
    1LYS     SC 2307  21.836   6.571  20.679
    1ILE     BB 2308  21.493   5.938  20.939
    1ILE     SC 2309  21.202   5.819  20.970
    1LEU     BB 2310  21.658   5.634  21.028
    1LEU     SC 2311  21.922   5.842  21.116
    1LEU     BB 2312  21.801   5.360  20.944
    1LEU     SC 2313  21.746   5.173  20.671
    1PRO     BB 2314  21.817   5.034  21.134
    1PRO     SC 2315  21.625   5.102  21.172
    1ASP     BB 2316  22.105   4.953  21.010
    1ASP     SC 2317  22.081   4.764  20.743
    1ASP     BB 2318  22.389   4.793  21.102
    1ASP     SC 2319  22.246   4.670  21.387
    1TYR     BB 2320  22.511   5.108  21.146
    1TYR     SC 2321  22.765   5.079  21.214
    1TYR     SC 2322  22.835   5.292  21.149
    1TYR     SC 2323  22.997   5.212  20.998
    1THR     BB 2324  22.372   5.373  21.363
    1THR     SC 2325  22.163   5.400  21.186
    1GLU     BB 2326  22.345   5.706  21.467
    1GLU     SC 2327  22.579   6.008  21.430
    1LEU     BB 2328  22.295   5.837  21.793
    1LEU     SC 2329  22.092   5.555  21.839
    1LYS     BB 2330  22.143   6.105  21.962
    1LYS     SC 2331  22.307   6.314  21.727
    1LYS     SC 2332  22.492   6.444  21.500
    1GLU     BB 2333  22.059   6.352  22.163
    1GLU     SC 2334  22.200   6.528  22.489
    1GLY     BB 2335  21.700   6.340  22.175
    1ASP     BB 2336  21.638   6.112  22.013
    1ASP     SC 2337  21.873   6.161  21.759
    1ILE     BB 2338  21.343   5.575  22.033
    1ILE     SC 2339  21.639   5.553  22.092
    1VAL     BB 2340  21.223   5.255  21.919
    1VAL     SC 2341  21.002   5.356  21.819
    1VAL     BB 2342  21.097   5.002  22.134
    1VAL     SC 2343  21.305   5.042  22.288
    1PHE     BB 2344  21.072   4.627  22.159
    1PHE     SC 2345  20.896   4.545  21.962
    1PHE     SC 2346  20.686   4.474  22.033
    1PHE     SC 2347  20.767   4.305  21.938
    1ALA     BB 2348  20.924   4.404  22.410
    1ARG     BB 2349  20.922   4.384  22.737
    1ARG     SC 2350  20.904   4.045  22.780
    1ARG     SC 2351  20.968   3.678  22.750
    1THR     BB 2352  20.858   4.594  23.002
    1THR     SC 2353  20.600   4.653  23.014
    1THR     BB 2354  21.083   4.491  23.204
    1THR     SC 2355  20.977   4.316  23.367
    1ILE     BB 2356  21.310   4.488  22.985
    1ILE     SC 2357  21.289   4.213  22.842
    1ILE     BB 2358  21.300   4.795  22.913
    1ILE     SC 2359  21.092   4.822  22.685
    1ASN     BB 2360  21.371   4.895  23.201
    1ASN     SC 2361  21.055   4.963  23.283
    1SER     BB 2362  21.653   4.742  23.208
    1SER     SC 2363  21.677   4.500  23.253
    1LEU     BB 2364  21.764   4.954  23.004
    1LEU     SC 2365  21.763   4.969  22.698
    1ALA     BB 2366  21.660   5.236  23.158
    1GLU     BB 2367  21.920   5.122  23.397
    1GLU     SC 2368  21.626   4.943  23.614
    1LYS     BB 2369  22.170   5.013  23.125
    1LYS     SC 2370  22.276   4.762  23.262
    1LYS     SC 2371  22.505   4.540  23.225
    1LYS     BB 2372  21.362   6.009  24.267
    1LYS     SC 2373  21.280   5.896  24.569
    1LYS     SC 2374  21.158   5.881  24.866
    1GLN     BB 2375  21.037   6.170  24.324
    1GLN     SC 2376  21.223   6.356  24.019
    1ASN     BB 2377  20.797   6.447  24.349
    1ASN     SC 2378  20.944   6.417  24.648
    1PHE     BB 2379  20.438   6.469  24.344
    1PHE     SC 2380  20.514   6.308  24.083
    1PHE     SC 2381  20.649   6.118  24.106
    1PHE     SC 2382  20.716   6.208  23.930
    1ALA     BB 2383  20.174   6.713  24.245
    1ILE     BB 2384  19.796   6.686  24.247
    1ILE     SC 2385  19.832   6.442  24.091
    1ILE     BB 2386  19.565   6.905  24.072
    1ILE     SC 2387  19.715   7.151  24.188
    1GLY     BB 2388  19.238   6.874  24.028
    1VAL     BB 2389  19.034   6.581  24.065
    1VAL     SC 2390  19.144   6.565  24.284
    1SER     BB 2391  18.968   6.469  23.804
    1SER     SC 2392  18.985   6.620  23.599
    1ASN     BB 2393  18.957   6.188  23.605
    1ASN     SC 2394  18.621   6.188  23.591
    1PHE     BB 2395  19.247   6.231  23.501
    1PHE     SC 2396  19.343   6.346  23.266
    1PHE     SC 2397  19.520   6.494  23.297
    1PHE     SC 2398  19.597   6.353  23.165
    1THR     BB 2399  19.392   6.316  23.772
    1THR     SC 2400  19.335   6.573  23.794
    1LEU     BB 2401  19.313   6.050  23.923
    1LEU     SC 2402  19.051   5.986  24.055
    1SER     BB 2403  19.480   5.858  23.739
    1SER     SC 2404  19.396   5.753  23.534
    1VAL     BB 2405  19.758   5.988  23.796
    1VAL     SC 2406  19.810   6.189  23.639
    1ILE     BB 2407  19.764   5.923  24.097
    1ILE     SC 2408  19.669   6.064  24.293
    1GLU     BB 2409  19.708   5.614  24.096
    1GLU     SC 2410  19.452   5.410  23.975
    1THR     BB 2411  19.939   5.529  23.915
    1THR     SC 2412  19.874   5.531  23.662
    1LEU     BB 2413  20.175   5.654  24.086
    1LEU     SC 2414  20.240   5.950  23.929
    1VAL     BB 2415  20.107   5.495  24.358
    1VAL     SC 2416  19.931   5.663  24.456
    1GLN     BB 2417  20.105   5.200  24.229
    1GLN     SC 2418  19.870   4.989  24.206
    1LYS     BB 2419  20.424   5.284  24.148
    1LYS     SC 2420  20.353   5.274  23.845
    1LYS     SC 2421  20.251   5.137  23.569
    1ARG     BB 2422  20.546   5.413  24.428
    1ARG     SC 2423  20.537   5.104  24.509
    1ARG     SC 2424  20.509   4.738  24.564
    1GLN     BB 2425  20.514   5.722  24.463
    1GLN     SC 2426  20.736   5.695  24.168
    1SER     BB 2427  20.545   6.055  24.551
    1SER     SC 2428  20.669   6.134  24.759
    1VAL     BB 2429  20.202   6.176  24.628
    1VAL     SC 2430  20.174   6.109  24.372
    1THR     BB 2431  19.985   6.464  24.602
    1THR     SC 2432  20.147   6.599  24.745
    1VAL     BB 2433  19.647   6.571  24.702
    1VAL     SC 2434  19.512   6.366  24.617
    1PHE     BB 2435  19.455   6.847  24.535
    1PHE     SC 2436  19.704   6.936  24.684
    1PHE     SC 2437  19.928   6.942  24.626
    1PHE     SC 2438  19.932   6.883  24.827
    1ASP     BB 2439  19.157   7.008  24.655
    1ASP     SC 2440  18.943   6.910  24.400
    1ILE     BB 2441  18.844   7.190  24.726
    1ILE     SC 2442  18.827   7.444  24.598
    1ASP     BB 2443  18.707   6.922  24.761
    1ASP     SC 2444  18.430   6.825  24.639
    1GLU     BB 2445  18.640   6.708  25.023
    1GLU     SC 2446  18.518   6.784  25.386
    1ARG     BB 2447  18.516   6.456  24.881
    1ARG     SC 2448  18.188   6.540  24.890
    1ARG     SC 2449  17.830   6.614  24.961
    1ARG     BB 2450  18.750   6.415  24.684
    1ARG     SC 2451  18.676   6.611  24.422
    1ARG     SC 2452  18.562   6.840  24.161
    1LEU     BB 2453  18.963   6.376  24.898
    1LEU     SC 2454  19.124   6.556  25.084
    1ASN     BB 2455  18.840   6.145  25.083
    1ASN     SC 2456  18.713   6.355  25.310
    1LEU     BB 2457  18.834   5.930  24.857
    1LEU     SC 2458  18.523   5.976  24.715
    1TYR     BB 2459  19.159   5.965  24.778
    1TYR     SC 2460  19.032   6.093  24.534
    1TYR     SC 2461  19.034   6.228  24.348
    1TYR     SC 2462  18.812   6.193  24.287
    1LEU     BB 2463  19.296   5.910  25.060
    1LEU     SC 2464  19.344   6.116  25.290
    1SER     BB 2465  19.158   5.609  25.136
    1SER     SC 2466  18.978   5.689  25.284
    1GLU     BB 2467  19.038   5.478  24.827
    1GLU     SC 2468  18.774   5.455  25.072
    1PHE     BB 2469  19.328   5.579  24.634
    1PHE     SC 2470  19.175   5.662  24.412
    1PHE     SC 2471  18.993   5.554  24.316
    1PHE     SC 2472  19.106   5.617  24.151
    1ASP     BB 2473  19.645   5.546  24.751
    1ASP     SC 2474  19.551   5.248  24.719
    1THR     BB 2475  19.762   5.793  24.872
    1THR     SC 2476  19.703   6.028  24.798
    1VAL     BB 2477  20.013   5.956  25.043
    1VAL     SC 2478  20.248   5.918  24.935
    1GLU     BB 2479  19.846   6.242  25.011
    1GLU     SC 2480  20.091   6.497  25.226
    1GLY     BB 2481  19.571   6.473  25.144
    1ILE     BB 2482  19.445   6.819  25.069
    1ILE     SC 2483  19.700   6.877  25.248
    1VAL     BB 2484  19.258   7.097  25.149
    1VAL     SC 2485  19.003   7.047  25.201
    1ILE     BB 2486  19.248   7.331  24.862
    1ILE     SC 2487  19.507   7.366  24.955
    1ASP     BB 2488  19.336   7.630  24.735
    1ASP     SC 2489  19.124   7.855  24.633
    1THR     BB 2490  19.528   7.711  24.425
    1THR     SC 2491  19.508   7.477  24.348
    1THR     BB 2492  19.499   8.034  24.402
    1THR     SC 2493  19.265   8.036  24.300
    1ASN     BB 2494  19.625   8.038  24.683
    1ASN     SC 2495  19.502   8.166  24.935
    1LYS     BB 2496  19.945   8.098  24.804
    1LYS     SC 2497  20.144   8.308  24.709
    1LYS     SC 2498  20.437   8.438  24.713
    1VAL     BB 2499  19.934   8.014  25.112
    1VAL     SC 2500  19.909   8.223  25.263
    1ALA     BB 2501  19.759   7.753  25.044
    1LEU     BB 2502  20.034   7.643  24.870
    1LEU     SC 2503  19.998   7.666  24.545
    1ALA     BB 2504  20.271   7.707  25.097
    1LYS     BB 2505  20.136   7.470  25.325
    1LYS     SC 2506  19.901   7.659  25.460
    1LYS     SC 2507  19.698   7.861  25.606
    1LYS     BB 2508  20.217   7.210  25.125
    1LYS     SC 2509  19.944   7.216  24.967
    1LYS     SC 2510  19.843   7.295  24.705
    1GLY     BB 2511  20.506   7.248  25.002
    1ILE     BB 2512  20.527   7.301  24.675
    1ILE     SC 2513  20.306   7.370  24.567
    1GLN     BB 2514  20.858   7.340  24.649
    1GLN     SC 2515  20.867   7.745  24.716
    1SER     BB 2516  20.912   7.012  24.692
    1SER     SC 2517  20.858   7.016  24.946
    1TYR     BB 2518  20.815   6.967  24.386
    1TYR     SC 2519  20.580   6.831  24.531
    1TYR     SC 2520  20.444   6.952  24.676
    1TYR     SC 2521  20.459   6.791  24.850
    1ASP     BB 2522  20.918   6.863  24.079
    1ASP     SC 2523  21.135   6.642  24.230
    1TRP     BB 2524  20.608   6.779  24.002
    1TRP     SC 2525  20.734   6.617  23.742
    1TRP     SC 2526  20.927   6.543  23.694
    1TRP     SC 2527  20.701   6.628  23.454
    1TRP     SC 2528  20.893   6.558  23.398
    1VAL     BB 2529  20.321   6.957  23.865
    1VAL     SC 2530  20.297   7.098  24.094
    1ILE     BB 2531  19.967   6.881  23.832
    1ILE     SC 2532  20.063   6.644  23.704
    1VAL     BB 2533  19.711   7.044  23.634
    1VAL     SC 2534  19.737   7.279  23.743
    1GLY     BB 2535  19.363   6.917  23.594
    1ILE     BB 2536  19.215   7.184  23.520
    1ILE     SC 2537  19.173   7.302  23.800
    1GLU     BB 2538  18.954   7.243  23.270
    1GLU     SC 2539  18.895   6.921  23.043
    1ASN     BB 2540  18.673   7.390  23.305
    1ASN     SC 2541  18.508   7.104  23.350
    1GLU     BB 2542  18.844   7.611  23.464
    1GLU     SC 2543  18.680   7.546  23.823
    1LEU     BB 2544  19.043   7.872  23.383
    1LEU     SC 2545  19.104   7.959  23.089
    1GLU     BB 2546  19.100   8.057  23.629
    1GLU     SC 2547  18.883   8.379  23.743
    1SER     BB 2548  19.214   7.829  23.815
    1SER     SC 2549  19.068   7.683  23.960
    1SER     BB 2550  19.443   7.722  23.622
    1SER     SC 2551  19.402   7.536  23.453
    1LEU     BB 2552  19.600   7.996  23.567
    1LEU     SC 2553  19.468   8.080  23.271
    1VAL     BB 2554  19.662   8.073  23.865
    1VAL     SC 2555  19.487   8.245  23.955
    1THR     BB 2556  19.804   7.804  23.935
    1THR     SC 2557  19.630   7.625  24.018
    1VAL     BB 2558  20.037   7.817  23.718
    1VAL     SC 2559  19.993   7.747  23.487
    1LEU     BB 2560  20.148   8.093  23.805
    1LEU     SC 2561  20.047   8.382  23.740
    1ASN     BB 2562  20.220   8.014  24.099
    1ASN     SC 2563  19.939   8.116  24.257
    1LEU     BB 2564  20.423   7.786  24.009
    1LEU     SC 2565  20.217   7.516  24.031
    1LEU     BB 2566  20.617   7.977  23.858
    1LEU     SC 2567  20.596   8.104  23.567
    1ASP     BB 2568  20.667   8.199  24.092
    1ASP     SC 2569  20.445   8.430  23.985
    1LEU     BB 2570  20.774   7.944  24.289
    1LEU     SC 2571  20.509   7.972  24.483
    1LYS     BB 2572  20.968   7.749  24.111
    1LYS     SC 2573  21.167   7.995  24.142
    1LYS     SC 2574  21.358   8.244  24.203
    1CYS     BB 2575  20.878   7.510  23.953
    1CYS     SC 2576  20.674   7.299  24.007
    1THR     BB 2577  21.004   7.283  23.745
    1THR     SC 2578  21.222   7.157  23.849
    1ASN     BB 2579  20.742   7.088  23.664
    1ASN     SC 2580  20.994   6.914  23.528
    1ILE     BB 2581  20.453   7.190  23.457
    1ILE     SC 2582  20.441   7.431  23.640
    1THR     BB 2583  20.143   7.022  23.420
    1THR     SC 2584  20.261   6.806  23.315
    1VAL     BB 2585  19.866   7.077  23.189
    1VAL     SC 2586  19.914   7.322  23.262
    1LYS     BB 2587  19.518   7.114  23.146
    1LYS     SC 2588  19.338   6.847  23.185
    1LYS     SC 2589  19.071   6.665  23.168
    1ALA     BB 2590  19.350   7.181  22.825
    1LYS     BB 2591  19.024   7.241  22.681
    1LYS     SC 2592  18.790   7.374  22.849
    1LYS     SC 2593  18.527   7.508  22.963
    1ASP     BB 2594  19.150   7.461  22.472
    1ASP     SC 2595  18.885   7.514  22.267
    1ASP     BB 2596  19.318   7.676  22.254
    1ASP     SC 2597  19.291   7.474  21.992
    1ASN     BB 2598  19.307   7.940  22.424
    1ASN     SC 2599  19.085   8.098  22.227
    1TYR     BB 2600  19.391   7.801  22.691
    1TYR     SC 2601  19.083   7.741  22.748
    1TYR     SC 2602  18.941   7.691  22.920
    1TYR     SC 2603  18.756   7.810  22.836
    1ARG     BB 2604  19.671   7.704  22.583
    1ARG     SC 2605  19.720   7.464  22.392
    1ARG     SC 2606  19.612   7.417  22.106
    1ARG     BB 2607  19.788   7.994  22.525
    1ARG     SC 2608  19.663   8.065  22.220
    1ARG     SC 2609  19.517   8.083  21.885
    1VAL     BB 2610  19.792   8.092  22.822
    1VAL     SC 2611  19.579   8.232  22.881
    1LEU     BB 2612  19.968   7.853  22.936
    1LEU     SC 2613  19.723   7.639  23.041
    1LEU     BB 2614  20.213   7.922  22.746
    1LEU     SC 2615  20.247   7.850  22.443
    1ALA     BB 2616  20.247   8.246  22.840
    1LEU     BB 2617  20.266   8.073  23.169
    1LEU     SC 2618  20.009   8.249  23.258
    1GLY     BB 2619  20.538   7.935  23.069
    1LEU     BB 2620  20.801   7.726  23.073
    1LEU     SC 2621  20.948   7.937  23.329
    1THR     BB 2622  21.019   7.493  22.934
    1THR     SC 2623  21.245   7.595  22.863
    1GLU     BB 2624  20.903   7.264  23.163
    1GLU     SC 2625  21.236   7.210  23.243
    1ASN     BB 2626  20.632   7.283  23.028
    1ASN     SC 2627  20.548   7.537  23.249
    1GLN     BB 2628  20.306   7.111  22.980
    1GLN     SC 2629  20.558   6.945  22.742
    1ILE     BB 2630  20.031   7.046  22.738
    1ILE     SC 2631  19.980   7.350  22.744
    1ILE     BB 2632  19.710   6.888  22.774
    1ILE     SC 2633  19.867   6.641  22.888
    1VAL     BB 2634  19.442   6.717  22.554
    1VAL     SC 2635  19.455   6.919  22.418
    1PRO     BB 2636  19.282   6.435  22.628
    1PRO     SC 2637  19.367   6.525  22.857
    1ASN     BB 2638  19.006   6.459  22.476
    1ASN     SC 2639  18.813   6.525  22.746
    1LYS     BB 2640  19.126   6.528  22.193
    1LYS     SC 2641  19.100   6.867  22.161
    1LYS     SC 2642  19.017   7.175  22.088
    1ILE     BB 2643  19.329   6.287  22.157
    1ILE     SC 2644  19.597   6.371  22.291
    1ALA     BB 2645  19.119   6.051  22.239
    1GLY     BB 2646  18.920   6.147  21.964
    1GLU     BB 2647  19.118   6.092  21.725
    1GLU     SC 2648  19.337   6.452  21.675
    1ILE     BB 2649  19.169   5.791  21.787
    1ILE     SC 2650  19.420   5.788  21.977
    1THR     BB 2651  18.870   5.696  21.793
    1THR     SC 2652  18.795   5.758  22.035
    1ALA     BB 2653  18.791   5.847  21.512
    1THR     BB 2654  18.994   5.631  21.346
    1THR     SC 2655  19.236   5.741  21.328
    1ARG     BB 2656  18.861   5.359  21.435
    1ARG     SC 2657  18.919   5.203  21.692
    1ARG     SC 2658  18.765   4.928  21.808
    1VAL     BB 2659  18.563   5.433  21.326
    1VAL     SC 2660  18.437   5.571  21.504
    1ILE     BB 2661  18.628   5.438  21.010
    1ILE     SC 2662  18.799   5.688  20.967
    1PHE     BB 2663  18.686   5.120  21.027
    1PHE     SC 2664  18.979   5.130  20.932
    1PHE     SC 2665  19.125   5.287  21.019
    1PHE     SC 2666  19.208   5.242  20.832
    1ASN     BB 2667  18.419   4.904  20.950
    1ASN     SC 2668  18.247   5.141  20.799
    1ILE     BB 2669  18.633   4.630  20.997
    1ILE     SC 2670  18.723   4.642  20.731
    1ASP     BB 2671  18.859   4.664  21.218
    1ASP     SC 2672  18.785   4.629  21.508
    1PHE     BB 2673  19.176   4.794  21.134
    1PHE     SC 2674  19.260   4.791  20.882
    1PHE     SC 2675  19.323   4.589  20.785
    1PHE     SC 2676  19.491   4.711  20.757
    1ASP     BB 2677  19.173   4.961  21.405
    1ASP     SC 2678  19.331   5.237  21.402
    1ILE     BB 2679  19.283   4.934  21.735
    1ILE     SC 2680  19.243   4.654  21.733
    1GLU     BB 2681  19.580   5.080  21.742
    1GLU     SC 2682  19.561   5.246  22.064
    1VAL     BB 2683  19.803   5.389  21.763
    1VAL     SC 2684  19.742   5.453  21.529
    1SER     BB 2685  20.293   5.818  21.621
    1SER     SC 2686  20.165   5.967  21.446
    1ILE     BB 2687  20.606   5.923  21.496
    1ILE     SC 2688  20.721   5.667  21.489
    1ASP     BB 2689  20.479   6.110  21.268
    1ASP     SC 2690  20.729   6.325  21.224
    1ASP     BB 2691  20.281   6.395  21.117
    1ASP     SC 2692  20.147   6.328  21.410
    1GLU     BB 2693  20.470   6.524  20.896
    1GLU     SC 2694  20.602   6.853  21.143
    1PHE     BB 2695  20.578   6.252  20.874
    1PHE     SC 2696  20.870   6.328  20.856
    1PHE     SC 2697  21.040   6.323  20.698
    1PHE     SC 2698  21.079   6.497  20.808
    1ILE     BB 2699  20.448   5.981  20.720
    1ILE     SC 2700  20.257   6.083  20.506
    1SER     BB 2701  20.429   5.787  21.040
    1SER     SC 2702  20.676   5.739  21.009
    1SER     BB 2703  20.346   5.447  21.168
    1SER     SC 2704  20.117   5.542  21.159
    1THR     BB 2705  20.198   5.232  21.430
    1THR     SC 2706  20.423   5.127  21.521
    1LEU     BB 2707  19.977   4.948  21.359
    1LEU     SC 2708  19.728   5.092  21.202
    1GLU     BB 2709  19.672   4.774  21.464
    1GLU     SC 2710  19.704   4.598  21.827
    1VAL     BB 2711  19.534   4.476  21.306
    1VAL     SC 2712  19.616   4.603  21.082
    1LYS     BB 2713  19.293   4.303  21.086
    1LYS     SC 2714  19.169   4.244  21.420
    1LYS     SC 2715  19.107   4.197  21.727
    1ASN     BB 2716  19.104   4.015  20.928
    1ASN     SC 2717  18.992   4.353  20.864
    1PRO     BB 2718  18.981   3.732  20.699
    1PRO     SC 2719  18.782   3.840  20.739
    1ASP     BB 2720  19.162   3.746  20.434
    1ASP     SC 2721  19.136   4.044  20.456
    1LEU     BB 2722  19.413   3.642  20.636
    1LEU     SC 2723  19.526   3.949  20.631
    1PHE     BB 2724  19.326   3.349  20.645
    1PHE     SC 2725  19.128   3.198  20.767
    1PHE     SC 2726  19.109   3.135  20.990
    1PHE     SC 2727  19.116   2.952  20.888
    1ASN     BB 2728  19.583   3.149  20.610
    1ASN     SC 2729  19.591   2.863  20.651
    1LYS     BB 2730  19.844   3.342  20.609
    1LYS     SC 2731  19.655   3.449  20.369
    1LYS     SC 2732  19.468   3.334  20.140
    1ASN     BB 2733  20.169   3.467  20.493
    1ASN     SC 2734  20.189   3.134  20.546
    1ILE     BB 2735  20.435   3.687  20.505
    1ILE     SC 2736  20.519   3.719  20.804
    1GLN     BB 2737  20.585   3.604  20.214
    1GLN     SC 2738  20.965   3.516  20.187
    1GLN     BB 2739  20.322   3.561  20.050
    1GLN     SC 2740  20.085   3.250  20.083
    1VAL     BB 2741  20.215   3.822  20.197
    1VAL     SC 2742  19.961   3.808  20.197
    1GLY     BB 2743  20.406   4.069  20.106
    1LEU     BB 2744  20.494   4.399  20.247
    1LEU     SC 2745  20.229   4.314  20.446
    1SER     BB 2746  20.780   4.508  20.190
    1SER     SC 2747  20.910   4.320  20.309
    1THR     BB 2748  20.787   4.479  19.867
    1THR     SC 2749  20.925   4.269  19.810
    1ASN     BB 2750  20.469   4.575  19.784
    1ASN     SC 2751  20.399   4.271  19.712
    1LYS     BB 2752  20.465   4.864  20.006
    1LYS     SC 2753  20.178   4.773  19.973
    1LYS     SC 2754  19.888   4.793  19.839
    1ASP     BB 2755  20.697   4.960  20.219
    1ASP     SC 2756  20.807   5.095  19.948
    1PHE     BB 2757  20.644   4.740  20.482
    1PHE     SC 2758  20.394   4.862  20.479
    1PHE     SC 2759  20.262   4.712  20.598
    1PHE     SC 2760  20.174   4.723  20.408
    1ASN     BB 2761  20.619   4.617  20.829
    1ASN     SC 2762  20.939   4.631  20.723
    1ILE     BB 2763  20.613   4.344  21.041
    1ILE     SC 2764  20.360   4.176  20.947
    1ILE     BB 2765  20.622   4.292  21.404
    1ILE     SC 2766  20.673   4.589  21.457
    1GLN     BB 2767  20.336   4.136  21.480
    1GLN     SC 2768  20.391   4.164  21.891
    1ILE     BB 2769  20.158   3.842  21.623
    1ILE     SC 2770  20.152   3.726  21.339
    1ARG     BB 2771  19.826   3.784  21.769
    1ARG     SC 2772  19.792   3.941  22.034
    1ARG     SC 2773  19.600   4.049  22.335
    1ARG     BB 2774  19.722   3.448  21.884
    1ARG     SC 2775  19.727   3.285  21.626
    1ARG     SC 2776  19.887   3.007  21.501
    1LYS     BB 2777  19.509   3.375  22.127
    1LYS     SC 2778  19.378   3.122  21.982
    1LYS     SC 2779  19.216   2.870  21.876
    1GLY     BB 2780  19.731   3.567  22.302
    1LYS     BB 2781  19.964   3.483  22.140
    1LYS     SC 2782  19.979   3.151  22.218
    1LYS     SC 2783  19.957   2.840  22.288
    1ILE     BB 2784  20.297   3.500  22.032
    1ILE     SC 2785  20.372   3.776  22.149
    1LEU     BB 2786  20.441   3.530  21.719
    1LEU     SC 2787  20.211   3.293  21.605
    1LEU     BB 2788  20.689   3.481  21.521
    1LEU     SC 2789  21.016   3.444  21.597
    1PRO     BB 2790  20.815   3.693  21.234
    1PRO     SC 2791  20.755   3.830  21.375
    1ASP     BB 2792  20.929   3.435  21.071
    1ASP     SC 2793  21.246   3.380  21.116
    1ASP     BB 2794  20.936   3.339  20.758
    1ASP     SC 2795  20.863   3.651  20.643
    1TYR     BB 2796  20.647   3.142  20.779
    1TYR     SC 2797  20.680   3.113  20.480
    1TYR     SC 2798  20.600   3.201  20.280
    1TYR     SC 2799  20.800   3.165  20.163
    1THR     BB 2800  20.350   3.278  20.931
    1THR     SC 2801  20.468   3.317  21.170
    1GLU     BB 2802  20.038   3.209  21.069
    1GLU     SC 2803  19.816   2.898  21.102
    1LEU     BB 2804  19.735   3.375  21.003
    1LEU     SC 2805  19.926   3.664  20.959
    1LYS     BB 2806  19.437   3.481  21.159
    1LYS     SC 2807  19.424   3.151  21.294
    1LYS     SC 2808  19.478   2.846  21.373
    1GLU     BB 2809  19.125   3.554  21.246
    1GLU     SC 2810  18.768   3.551  21.073
    1GLY     BB 2811  19.158   3.834  21.467
    1ASP     BB 2812  19.439   3.884  21.464
    1ASP     SC 2813  19.558   3.556  21.461
    1ILE     BB 2814  19.852   4.321  21.355
    1ILE     SC 2815  19.801   4.136  21.121
    1VAL     BB 2816  20.176   4.469  21.321
    1VAL     SC 2817  20.192   4.541  21.574
    1VAL     BB 2818  20.234   4.780  21.152
    1VAL     SC 2819  20.083   4.690  20.959
    1PHE     BB 2820  20.509   4.959  20.957
    1PHE     SC 2821  20.707   5.019  21.142
    1PHE     SC 2822  20.708   5.240  21.213
    1PHE     SC 2823  20.902   5.208  21.138
    1ALA     BB 2824  20.519   5.293  20.806
    1ARG     BB 2825  20.315   5.470  20.618
    1ARG     SC 2826  20.540   5.635  20.421
    1ARG     SC 2827  20.828   5.707  20.195
    1THR     BB 2828  19.989   5.576  20.631
    1THR     SC 2829  19.956   5.755  20.824
    1THR     BB 2830  19.920   5.553  20.321
    1THR     SC 2831  19.950   5.789  20.210
    1ILE     BB 2832  20.042   5.264  20.290
    1ILE     SC 2833  20.345   5.298  20.234
    1ILE     BB 2834  19.858   5.116  20.499
    1ILE     SC 2835  20.005   5.144  20.772
    1ASN     BB 2836  19.591   5.184  20.351
    1ASN     SC 2837  19.511   5.435  20.555
    1SER     BB 2838  19.680   5.040  20.079
    1SER     SC 2839  19.830   5.139  19.913
    1LEU     BB 2840  19.644   4.767  20.221
    1LEU     SC 2841  19.820   4.581  20.394
    1ALA     BB 2842  19.343   4.817  20.367
    1GLU     BB 2843  19.243   4.792  20.009
    1GLU     SC 2844  19.253   5.198  19.992
    1LYS     BB 2845  19.477   4.496  19.932
    1LYS     SC 2846  19.569   4.588  19.657
    1LYS     SC 2847  19.740   4.482  19.406
    1GLN     BB 2848  19.091  10.734  21.551
    1GLN     SC 2849  19.460  10.700  21.648
    1ASN     BB 2850  19.003  10.397  21.659
    1ASN     SC 2851  18.877  10.422  21.347
    1PHE     BB 2852  18.768  10.272  21.902
    1PHE     SC 2853  18.943  10.485  22.055
    1PHE     SC 2854  18.957  10.701  21.967
    1PHE     SC 2855  19.152  10.661  22.038
    1ALA     BB 2856  18.743   9.976  22.121
    1ILE     BB 2857  18.477   9.888  22.380
    1ILE     SC 2858  18.527  10.151  22.493
    1ILE     BB 2859  18.509   9.637  22.642
    1ILE     SC 2860  18.609   9.435  22.429
    1GLY     BB 2861  18.303   9.583  22.897
    1VAL     BB 2862  18.058   9.799  23.048
    1VAL     SC 2863  17.961   9.829  22.827
    1SER     BB 2864  18.159   9.915  23.295
    1SER     SC 2865  18.359   9.807  23.408
    1ASN     BB 2866  18.200  10.203  23.482
    1ASN     SC 2867  17.988  10.100  23.719
    1PHE     BB 2868  18.470  10.263  23.341
    1PHE     SC 2869  18.732  10.220  23.428
    1PHE     SC 2870  18.879  10.132  23.271
    1PHE     SC 2871  18.972  10.309  23.333
    1THR     BB 2872  18.399  10.188  23.038
    1THR     SC 2873  18.434   9.928  23.032
    1LEU     BB 2874  18.167  10.393  23.017
    1LEU     SC 2875  17.909  10.410  23.205
    1SER     BB 2876  18.350  10.644  23.050
    1SER     SC 2877  18.408  10.750  23.265
    1VAL     BB 2878  18.532  10.592  22.804
    1VAL     SC 2879  18.741  10.447  22.861
    1ILE     BB 2880  18.306  10.614  22.598
    1ILE     SC 2881  18.157  10.428  22.500
    1GLU     BB 2882  18.156  10.880  22.689
    1GLU     SC 2883  17.894  10.912  22.998
    1THR     BB 2884  18.405  11.062  22.658
    1THR     SC 2885  18.538  11.073  22.884
    1LEU     BB 2886  18.495  10.998  22.357
    1LEU     SC 2887  18.749  10.774  22.388
    1VAL     BB 2888  18.219  11.085  22.224
    1VAL     SC 2889  18.088  10.863  22.255
    1GLN     BB 2890  18.215  11.381  22.340
    1GLN     SC 2891  18.036  11.351  22.715
    1LYS     BB 2892  18.505  11.413  22.178
    1LYS     SC 2893  18.675  11.427  22.425
    1LYS     SC 2894  18.761  11.597  22.681
    1ARG     BB 2895  18.439  11.286  21.879
    1ARG     SC 2896  18.283  11.564  21.858
    1ARG     SC 2897  18.111  11.893  21.875
    1GLN     BB 2898  18.492  10.981  21.843
    1GLN     SC 2899  18.835  11.106  21.893
    1SER     BB 2900  18.567  10.666  21.716
    1SER     SC 2901  18.556  10.604  21.474
    1VAL     BB 2902  18.327  10.439  21.882
    1VAL     SC 2903  18.458  10.527  22.095
    1THR     BB 2904  18.291  10.111  22.018
    1THR     SC 2905  18.337  10.004  21.791
    1VAL     BB 2906  18.035   9.885  22.163
    1VAL     SC 2907  17.939  10.053  22.337
    1PHE     BB 2908  18.099   9.601  22.397
    1PHE     SC 2909  18.204   9.563  22.117
    1PHE     SC 2910  18.398   9.649  22.019
    1PHE     SC 2911  18.255   9.663  21.868
    1ASP     BB 2912  17.875   9.338  22.495
    1ASP     SC 2913  17.869   9.407  22.836
    1ILE     BB 2914  17.680   9.057  22.632
    1ILE     SC 2915  17.837   8.832  22.709
    1ASP     BB 2916  17.480   9.257  22.729
    1ASP     SC 2917  17.343   9.287  23.014
    1GLU     BB 2918  17.191   9.403  22.611
    1GLU     SC 2919  16.879   9.277  22.419
    1ARG     BB 2920  17.127   9.626  22.821
    1ARG     SC 2921  16.930   9.449  23.035
    1ARG     SC 2922  16.673   9.257  23.224
    1ARG     BB 2923  17.404   9.759  22.801
    1ARG     SC 2924  17.589   9.594  23.025
    1ARG     SC 2925  17.768   9.389  23.268
    1LEU     BB 2926  17.388   9.828  22.505
    1LEU     SC 2927  17.424   9.685  22.239
    1ASN     BB 2928  17.108   9.980  22.477
    1ASN     SC 2929  16.930   9.711  22.399
    1LEU     BB 2930  17.183  10.215  22.658
    1LEU     SC 2931  17.101  10.106  22.979
    1TYR     BB 2932  17.460  10.307  22.496
    1TYR     SC 2933  17.603  10.181  22.736
    1TYR     SC 2934  17.797  10.166  22.862
    1TYR     SC 2935  17.687  10.076  23.053
    1LEU     BB 2936  17.338  10.349  22.206
    1LEU     SC 2937  17.283  10.131  21.991
    1SER     BB 2938  17.118  10.574  22.280
    1SER     SC 2939  16.920  10.413  22.320
    1GLU     BB 2940  17.213  10.726  22.590
    1GLU     SC 2941  16.856  10.676  22.632
    1PHE     BB 2942  17.571  10.742  22.537
    1PHE     SC 2943  17.529  10.584  22.787
    1PHE     SC 2944  17.607  10.609  23.005
    1PHE     SC 2945  17.424  10.511  23.030
    1ASP     BB 2946  17.669  10.844  22.231
    1ASP     SC 2947  17.556  11.120  22.345
    1THR     BB 2948  17.741  10.623  22.039
    1THR     SC 2949  17.829  10.397  22.115
    1VAL     BB 2950  17.848  10.520  21.727
    1VAL     SC 2951  18.067  10.644  21.654
    1GLU     BB 2952  17.849  10.205  21.832
    1GLU     SC 2953  17.921   9.985  21.489
    1GLY     BB 2954  17.656   9.883  21.902
    1ILE     BB 2955  17.734   9.535  22.023
    1ILE     SC 2956  17.833   9.518  21.722
    1VAL     BB 2957  17.641   9.206  22.060
    1VAL     SC 2958  17.422   9.163  22.203
    1ILE     BB 2959  17.903   9.027  22.245
    1ILE     SC 2960  18.023   9.053  21.994
    1ASP     BB 2961  18.142   8.787  22.243
    1ASP     SC 2962  18.145   8.529  22.437
    1THR     BB 2963  18.504   8.817  22.324
    1THR     SC 2964  18.472   9.046  22.410
    1THR     BB 2965  18.603   8.506  22.329
    1THR     SC 2966  18.515   8.452  22.562
    1ASN     BB 2967  18.500   8.496  22.039
    1ASN     SC 2968  18.287   8.298  21.930
    1LYS     BB 2969  18.647   8.516  21.726
    1LYS     SC 2970  18.910   8.394  21.635
    1LYS     SC 2971  19.140   8.359  21.413
    1VAL     BB 2972  18.404   8.548  21.523
    1VAL     SC 2973  18.351   8.322  21.404
    1ALA     BB 2974  18.250   8.749  21.720
    1LEU     BB 2975  18.516   8.964  21.679
    1LEU     SC 2976  18.722   8.980  21.930
    1ALA     BB 2977  18.542   8.942  21.350
    1LYS     BB 2978  18.223   9.089  21.321
    1LYS     SC 2979  18.026   8.826  21.352
    1LYS     SC 2980  17.832   8.570  21.344
    1LYS     BB 2981  18.344   9.392  21.418
    1LYS     SC 2982  18.281   9.334  21.719
    1LYS     SC 2983  18.419   9.284  21.973
    1GLY     BB 2984  18.625   9.444  21.278
    1ILE     BB 2985  18.881   9.443  21.504
    1ILE     SC 2986  18.814   9.354  21.724
    1GLN     BB 2987  19.118   9.530  21.273
    1GLN     SC 2988  19.191   9.137  21.190
    1SER     BB 2989  19.019   9.862  21.255
    1SER     SC 2990  18.806   9.834  21.182
    1TYR     BB 2991  19.146   9.923  21.536
    1TYR     SC 2992  18.847   9.947  21.644
    1TYR     SC 2993  18.723   9.770  21.566
    1TYR     SC 2994  18.530   9.894  21.525
    1ASP     BB 2995  19.385  10.101  21.700
    1ASP     SC 2996  19.374  10.352  21.461
    1TRP     BB 2997  19.209  10.075  21.979
    1TRP     SC 2998  19.417  10.298  22.114
    1TRP     SC 2999  19.552  10.438  22.032
    1TRP     SC 3000  19.586  10.319  22.349
    1TRP     SC 3001  19.726  10.458  22.271
    1VAL     BB 3002  19.172   9.842  22.262
    1VAL     SC 3003  19.045   9.666  22.102
    1ILE     BB 3004  18.937   9.816  22.537
    1ILE     SC 3005  19.010  10.087  22.591
    1VAL     BB 3006  18.947   9.618  22.841
    1VAL     SC 3007  18.964   9.388  22.722
    1GLY     BB 3008  18.700   9.639  23.122
    1ILE     BB 3009  18.739   9.355  23.248
    1ILE     SC 3010  18.558   9.191  23.062
    1GLU     BB 3011  18.754   9.256  23.601
    1GLU     SC 3012  18.772   9.578  23.839
    1ASN     BB 3013  18.589   9.029  23.754
    1ASN     SC 3014  18.361   9.243  23.867
    1GLU     BB 3015  18.664   8.849  23.500
    1GLU     SC 3016  18.292   8.812  23.355
    1LEU     BB 3017  18.930   8.671  23.397
    1LEU     SC 3018  19.194   8.633  23.562
    1GLU     BB 3019  18.857   8.479  23.159
    1GLU     SC 3020  18.706   8.105  23.195
    1SER     BB 3021  18.742   8.702  22.968
    1SER     SC 3022  18.502   8.777  22.977
    1SER     BB 3023  18.990   8.900  22.963
    1SER     SC 3024  19.021   9.087  23.133
    1LEU     BB 3025  19.220   8.697  22.865
    1LEU     SC 3026  19.352   8.623  23.163
    1VAL     BB 3027  19.084   8.599  22.601
    1VAL     SC 3028  18.961   8.371  22.638
    1THR     BB 3029  19.046   8.885  22.481
    1THR     SC 3030  18.817   8.988  22.559
    1VAL     BB 3031  19.352   8.977  22.477
    1VAL     SC 3032  19.456   9.061  22.683
    1LEU     BB 3033  19.456   8.741  22.309
    1LEU     SC 3034  19.516   8.446  22.394
    1ASN     BB 3035  19.278   8.789  22.055
    1ASN     SC 3036  19.017   8.584  22.124
    1LEU     BB 3037  19.395   9.079  22.001
    1LEU     SC 3038  19.161   9.265  22.160
    1LEU     BB 3039  19.692   8.983  21.959
    1LEU     SC 3040  19.922   8.966  22.174
    1ASP     BB 3041  19.640   8.753  21.737
    1ASP     SC 3042  19.626   8.492  21.951
    1LEU     BB 3043  19.498   8.997  21.547
    1LEU     SC 3044  19.202   8.857  21.584
    1LYS     BB 3045  19.686   9.266  21.569
    1LYS     SC 3046  19.875   9.089  21.382
    1LYS     SC 3047  20.044   8.903  21.187
    1CYS     BB 3048  19.662   9.491  21.791
    1CYS     SC 3049  19.418   9.618  21.889
    1THR     BB 3050  19.838   9.785  21.854
    1THR     SC 3051  19.855   9.924  21.634
    1ASN     BB 3052  19.636   9.881  22.106
    1ASN     SC 3053  19.822  10.153  22.047
    1ILE     BB 3054  19.621   9.752  22.435
    1ILE     SC 3055  19.561   9.473  22.308
    1THR     BB 3056  19.374   9.796  22.701
    1THR     SC 3057  19.454  10.052  22.719
    1VAL     BB 3058  19.363   9.697  23.053
    1VAL     SC 3059  19.421   9.470  22.942
    1LYS     BB 3060  19.173   9.563  23.318
    1LYS     SC 3061  18.941   9.755  23.439
    1LYS     SC 3062  18.719   9.850  23.653
    1ALA     BB 3063  19.300   9.497  23.657
    1LYS     BB 3064  19.198   9.363  23.978
    1LYS     SC 3065  18.972   9.142  24.002
    1LYS     SC 3066  18.759   8.923  24.086
    1ASP     BB 3067  19.494   9.224  24.022
    1ASP     SC 3068  19.477   9.125  24.344
    1ASP     BB 3069  19.821   9.102  24.042
    1ASP     SC 3070  19.924   9.322  24.263
    1ASN     BB 3071  19.776   8.823  23.901
    1ASN     SC 3072  19.818   8.637  24.177
    1TYR     BB 3073  19.604   8.939  23.667
    1TYR     SC 3074  19.346   8.895  23.843
    1TYR     SC 3075  19.117   8.871  23.821
    1TYR     SC 3076  19.091   8.719  23.997
    1ARG     BB 3077  19.835   9.120  23.562
    1ARG     SC 3078  19.923   9.395  23.687
    1ARG     SC 3079  20.040   9.455  23.967
    1ARG     BB 3080  20.041   8.885  23.498
    1ARG     SC 3081  20.185   8.820  23.795
    1ARG     SC 3082  20.327   8.820  24.133
    1VAL     BB 3083  19.876   8.763  23.262
    1VAL     SC 3084  19.730   8.567  23.343
    1LEU     BB 3085  19.863   9.030  23.089
    1LEU     SC 3086  19.555   9.146  23.196
    1LEU     BB 3087  20.177   9.043  23.073
    1LEU     SC 3088  20.263   9.234  23.352
    1ALA     BB 3089  20.222   8.745  22.941
    1LEU     BB 3090  19.984   8.872  22.700
    1LEU     SC 3091  19.773   8.632  22.780
    1GLY     BB 3092  20.152   9.116  22.529
    1LEU     BB 3093  20.320   9.366  22.674
    1LEU     SC 3094  20.434   9.369  22.948
    1THR     BB 3095  20.482   9.489  22.427
    1THR     SC 3096  20.570   9.261  22.344
    1GLU     BB 3097  20.155   9.608  22.334
    1GLU     SC 3098  20.293   9.451  21.979
    1ASN     BB 3099  20.060   9.700  22.643
    1ASN     SC 3100  19.935   9.434  22.727
    1GLN     BB 3101  19.811   9.827  22.895
    1GLN     SC 3102  19.997  10.199  22.778
    1ILE     BB 3103  19.771   9.844  23.263
    1ILE     SC 3104  19.822   9.539  23.265
    1ILE     BB 3105  19.482   9.888  23.478
    1ILE     SC 3106  19.428  10.152  23.315
    1VAL     BB 3107  19.398  10.002  23.836
    1VAL     SC 3108  19.562   9.836  23.907
    1PRO     BB 3109  19.152  10.211  23.921
    1PRO     SC 3110  19.080  10.116  23.690
    1ASN     BB 3111  19.082  10.130  24.216
    1ASN     SC 3112  18.789   9.966  24.153
    1LYS     BB 3113  19.379  10.134  24.330
    1LYS     SC 3114  19.486   9.810  24.341
    1LYS     SC 3115  19.582   9.511  24.432
    1ILE     BB 3116  19.461  10.426  24.244
    1ILE     SC 3117  19.573  10.412  23.955
    1ALA     BB 3118  19.195  10.579  24.358
    1GLY     BB 3119  19.278  10.469  24.680
    1GLU     BB 3120  19.549  10.623  24.734
    1GLU     SC 3121  19.933  10.533  24.722
    1ILE     BB 3122  19.443  10.910  24.679
    1ILE     SC 3123  19.481  10.954  24.371
    1THR     BB 3124  19.208  10.903  24.889
    1THR     SC 3125  19.021  10.786  24.754
    1ALA     BB 3126  19.396  10.781  25.130
    1THR     BB 3127  19.570  11.073  25.136
    1THR     SC 3128  19.777  11.046  24.972
    1ARG     BB 3129  19.334  11.272  25.193
    1ARG     SC 3130  19.149  11.398  24.983
    1ARG     SC 3131  18.926  11.678  24.888
    1VAL     BB 3132  19.236  11.123  25.464
    1VAL     SC 3133  19.074  10.932  25.404
    1ILE     BB 3134  19.498  11.185  25.639
    1ILE     SC 3135  19.720  11.003  25.534
    1PHE     BB 3136  19.422  11.494  25.621
    1PHE     SC 3137  19.684  11.595  25.492
    1PHE     SC 3138  19.772  11.479  25.311
    1PHE     SC 3139  19.939  11.574  25.395
    1ASN     BB 3140  19.230  11.631  25.881
    1ASN     SC 3141  19.154  11.493  26.119
    1ILE     BB 3142  19.245  11.940  25.734
    1ILE     SC 3143  19.484  12.022  25.859
    1ASP     BB 3144  19.245  11.916  25.405
    1ASP     SC 3145  18.972  11.917  25.272
    1PHE     BB 3146  19.552  11.941  25.258
    1PHE     SC 3147  19.776  12.016  25.386
    1PHE     SC 3148  19.810  12.238  25.447
    1PHE     SC 3149  19.980  12.190  25.334
    1ASP     BB 3150  19.437  11.740  25.045
    1ASP     SC 3151  19.631  11.534  24.901
    1ILE     BB 3152  19.271  11.755  24.735
    1ILE     SC 3153  19.174  12.048  24.764
    1GLU     BB 3154  19.513  11.704  24.510
    1GLU     SC 3155  19.329  11.504  24.274
    1VAL     BB 3156  19.744  11.479  24.303
    1VAL     SC 3157  19.884  11.434  24.506
    1SER     BB 3158  20.308  11.245  24.026
    1SER     SC 3159  20.388  11.091  24.222
    1ILE     BB 3160  20.636  11.263  23.890
    1ILE     SC 3161  20.630  11.539  23.840
    1ASP     BB 3162  20.763  11.079  24.120
    1ASP     SC 3163  21.029  10.958  23.960
    1ASP     BB 3164  20.825  10.773  24.334
    1ASP     SC 3165  20.522  10.742  24.208
    1GLU     BB 3166  21.142  10.741  24.352
    1GLU     SC 3167  21.170  10.426  24.059
    1PHE     BB 3168  21.143  11.031  24.321
    1PHE     SC 3169  21.413  11.103  24.171
    1PHE     SC 3170  21.472  10.960  23.998
    1PHE     SC 3171  21.655  11.034  24.067
    1ILE     BB 3172  21.076  11.275  24.545
    1ILE     SC 3173  21.126  11.155  24.821
    1SER     BB 3174  20.782  11.401  24.349
    1SER     SC 3175  20.949  11.526  24.205
    1SER     BB 3176  20.531  11.677  24.353
    1SER     SC 3177  20.419  11.520  24.509
    1THR     BB 3178  20.187  11.794  24.291
    1THR     SC 3179  20.241  11.949  24.084
    1LEU     BB 3180  19.997  12.005  24.523
    1LEU     SC 3181  19.985  11.818  24.792
    1GLU     BB 3182  19.666  12.058  24.673
    1GLU     SC 3183  19.389  12.179  24.407
    1VAL     BB 3184  19.581  12.322  24.908
    1VAL     SC 3185  19.829  12.259  25.005
    1LYS     BB 3186  19.523  12.460  25.244
    1LYS     SC 3187  19.223  12.354  25.224
    1LYS     SC 3188  18.938  12.313  25.292
    1ASN     BB 3189  19.424  12.714  25.517
    1ASN     SC 3190  19.333  12.427  25.622
    1PRO     BB 3191  19.393  12.946  25.815
    1PRO     SC 3192  19.270  12.764  25.897
    1ASP     BB 3193  19.695  13.014  25.878
    1ASP     SC 3194  19.708  12.702  25.861
    1LEU     BB 3195  19.690  13.161  25.572
    1LEU     SC 3196  19.874  12.914  25.461
    1PHE     BB 3197  19.535  13.411  25.656
    1PHE     SC 3198  19.273  13.481  25.720
    1PHE     SC 3199  19.088  13.505  25.579
    1PHE     SC 3200  19.107  13.694  25.668
    1ASN     BB 3201  19.658  13.689  25.531
    1ASN     SC 3202  19.543  13.953  25.522
    1LYS     BB 3203  19.908  13.602  25.335
    1LYS     SC 3204  19.972  13.457  25.610
    1LYS     SC 3205  19.966  13.508  25.924
    1ASN     BB 3206  20.216  13.639  25.202
    1ASN     SC 3207  20.171  13.972  25.201
    1ILE     BB 3208  20.399  13.466  24.964
    1ILE     SC 3209  20.310  13.435  24.688
    1GLN     BB 3210  20.686  13.591  25.057
    1GLN     SC 3211  20.867  13.889  24.889
    1GLN     BB 3212  20.665  13.590  25.377
    1GLN     SC 3213  20.417  13.827  25.572
    1VAL     BB 3214  20.568  13.301  25.318
    1VAL     SC 3215  20.390  13.231  25.485
    1GLY     BB 3216  20.852  13.150  25.207
    1LEU     BB 3217  20.866  12.859  25.031
    1LEU     SC 3218  20.518  12.823  25.039
    1SER     BB 3219  21.143  12.845  24.868
    1SER     SC 3220  21.046  12.984  24.649
    1THR     BB 3221  21.372  12.911  25.099
    1THR     SC 3222  21.443  13.155  25.061
    1ASN     BB 3223  21.270  12.739  25.371
    1ASN     SC 3224  21.158  13.011  25.494
    1LYS     BB 3225  21.214  12.430  25.182
    1LYS     SC 3226  21.021  12.432  25.416
    1LYS     SC 3227  20.913  12.346  25.705
    1ASP     BB 3228  21.238  12.381  24.854
    1ASP     SC 3229  21.540  12.328  24.952
    1PHE     BB 3230  20.953  12.538  24.720
    1PHE     SC 3231  20.847  12.342  24.886
    1PHE     SC 3232  20.655  12.454  24.947
    1PHE     SC 3233  20.740  12.395  25.129
    1ASN     BB 3234  20.673  12.595  24.488
    1ASN     SC 3235  20.959  12.703  24.347
    1ILE     BB 3236  20.440  12.813  24.373
    1ILE     SC 3237  20.282  12.922  24.623
    1ILE     BB 3238  20.182  12.805  24.111
    1ILE     SC 3239  20.275  12.530  24.011
    1GLN     BB 3240  19.890  12.846  24.269
    1GLN     SC 3241  19.701  12.936  23.986
    1ILE     BB 3242  19.583  13.053  24.328
    1ILE     SC 3243  19.740  13.186  24.552
    1ARG     BB 3244  19.244  12.993  24.453
    1ARG     SC 3245  19.089  12.801  24.265
    1ARG     SC 3246  18.794  12.596  24.169
    1ARG     BB 3247  18.991  13.263  24.478
    1ARG     SC 3248  19.119  13.456  24.678
    1ARG     SC 3249  19.233  13.777  24.684
    1LYS     BB 3250  18.663  13.230  24.460
    1LYS     SC 3251  18.594  13.449  24.680
    1LYS     SC 3252  18.480  13.657  24.892
    1GLY     BB 3253  18.755  13.091  24.162
    1LYS     BB 3254  18.992  13.266  24.125
    1LYS     SC 3255  18.841  13.572  24.095
    1LYS     SC 3256  18.684  13.849  24.087
    1ILE     BB 3257  19.284  13.371  23.973
    1ILE     SC 3258  19.337  13.134  23.774
    1LEU     BB 3259  19.617  13.419  24.071
    1LEU     SC 3260  19.475  13.537  24.373
    1LEU     BB 3261  19.909  13.557  24.061
    1LEU     SC 3262  19.871  13.794  23.799
    1PRO     BB 3263  20.275  13.463  24.045
    1PRO     SC 3264  20.193  13.336  23.905
    1ASP     BB 3265  20.343  13.740  24.232
    1ASP     SC 3266  20.475  13.937  24.005
    1ASP     BB 3267  20.539  13.924  24.447
    1ASP     SC 3268  20.683  13.639  24.574
    1TYR     BB 3269  20.254  13.997  24.622
    1TYR     SC 3270  20.333  14.154  24.826
    1TYR     SC 3271  20.128  14.258  24.858
    1TYR     SC 3272  20.215  14.475  24.828
    1THR     BB 3273  19.996  13.784  24.769
    1THR     SC 3274  19.972  13.667  24.542
    1GLU     BB 3275  19.658  13.706  24.882
    1GLU     SC 3276  19.400  13.931  25.038
    1LEU     BB 3277  19.571  13.467  25.115
    1LEU     SC 3278  19.827  13.267  24.983
    1LYS     BB 3279  19.301  13.254  25.193
    1LYS     SC 3280  19.098  13.542  25.146
    1LYS     SC 3281  18.979  13.836  25.110
    1GLU     BB 3282  19.062  13.079  25.337
    1GLU     SC 3283  18.943  12.997  25.708
    1GLY     BB 3284  19.018  12.792  25.124
    1ASP     BB 3285  19.224  12.828  24.928
    1ASP     SC 3286  19.194  13.173  24.883
    1ILE     BB 3287  19.713  12.558  24.680
    1ILE     SC 3288  19.780  12.754  24.903
    1VAL     BB 3289  20.003  12.521  24.467
    1VAL     SC 3290  19.860  12.419  24.270
    1VAL     BB 3291  20.257  12.271  24.511
    1VAL     SC 3292  20.261  12.340  24.762
    1PHE     BB 3293  20.627  12.214  24.445
    1PHE     SC 3294  20.659  12.187  24.170
    1PHE     SC 3295  20.691  11.971  24.091
    1PHE     SC 3296  20.859  12.075  24.021
    1ALA     BB 3297  20.841  11.925  24.518
    1ARG     BB 3298  20.889  11.723  24.773
    1ARG     SC 3299  21.223  11.664  24.741
    1ARG     SC 3300  21.592  11.715  24.703
    1THR     BB 3301  20.696  11.521  24.975
    1THR     SC 3302  20.602  11.315  24.838
    1THR     BB 3303  20.851  11.566  25.250
    1THR     SC 3304  21.024  11.370  25.282
    1ILE     BB 3305  20.866  11.880  25.219
    1ILE     SC 3306  21.117  11.940  25.050
    1ILE     BB 3307  20.555  11.935  25.209
    1ILE     SC 3308  20.477  11.915  24.909
    1ASN     BB 3309  20.495  11.814  25.492
    1ASN     SC 3310  20.385  11.524  25.372
    1SER     BB 3311  20.689  12.016  25.647
    1SER     SC 3312  20.934  11.995  25.653
    1LEU     BB 3313  20.477  12.243  25.596
    1LEU     SC 3314  20.434  12.442  25.370
    1ALA     BB 3315  20.196  12.081  25.690
    1GLU     BB 3316  20.368  12.131  26.018
    1GLU     SC 3317  20.517  11.754  25.980
    1LYS     BB 3318  20.480  12.490  25.941
    1LYS     SC 3319  20.758  12.473  26.067
    1LYS     SC 3320  21.010  12.658  26.146
    1LYS     BB 3321  19.453  10.928  26.718
    1LYS     SC 3322  19.475  10.656  26.850
    1LYS     SC 3323  19.324  10.401  26.852
    1GLN     BB 3324  19.336  10.863  26.426
    1GLN     SC 3325  19.458  11.121  26.165
    1ASN     BB 3326  19.024  10.714  26.285
    1ASN     SC 3327  19.077  10.638  26.604
    1PHE     BB 3328  18.951  10.440  26.064
    1PHE     SC 3329  19.093  10.651  25.878
    1PHE     SC 3330  19.303  10.732  25.937
    1PHE     SC 3331  19.202  10.900  25.863
    1ALA     BB 3332  18.661  10.314  25.870
    1ILE     BB 3333  18.631  10.018  25.635
    1ILE     SC 3334  18.860  10.130  25.495
    1ILE     BB 3335  18.361   9.957  25.398
    1ILE     SC 3336  18.157  10.014  25.628
    1GLY     BB 3337  18.344   9.727  25.161
    1VAL     BB 3338  18.603   9.535  25.003
    1VAL     SC 3339  18.680   9.473  25.224
    1SER     BB 3340  18.671   9.646  24.742
    1SER     SC 3341  18.507   9.799  24.626
    1ASN     BB 3342  18.926   9.745  24.531
    1ASN     SC 3343  18.872   9.494  24.317
    1PHE     BB 3344  18.918  10.035  24.648
    1PHE     SC 3345  18.789  10.262  24.549
    1PHE     SC 3346  18.671  10.387  24.705
    1PHE     SC 3347  18.805  10.525  24.624
    1THR     BB 3348  18.889   9.971  24.959
    1THR     SC 3349  18.630   9.932  24.988
    1LEU     BB 3350  19.153   9.806  24.972
    1LEU     SC 3351  19.223   9.545  24.801
    1SER     BB 3352  19.342  10.048  24.904
    1SER     SC 3353  19.412  10.110  24.680
    1VAL     BB 3354  19.261  10.228  25.143
    1VAL     SC 3355  19.054  10.381  25.092
    1ILE     BB 3356  19.361  10.033  25.356
    1ILE     SC 3357  19.223   9.850  25.483
    1GLU     BB 3358  19.651   9.955  25.248
    1GLU     SC 3359  19.713   9.697  24.937
    1THR     BB 3360  19.749  10.247  25.255
    1THR     SC 3361  19.703  10.369  25.030
    1LEU     BB 3362  19.683  10.342  25.554
    1LEU     SC 3363  19.392  10.515  25.530
    1VAL     BB 3364  19.856  10.114  25.696
    1VAL     SC 3365  19.677   9.923  25.689
    1GLN     BB 3366  20.131  10.185  25.547
    1GLN     SC 3367  20.301  10.006  25.339
    1LYS     BB 3368  20.085  10.486  25.694
    1LYS     SC 3369  20.047  10.619  25.420
    1LYS     SC 3370  20.149  10.702  25.124
    1ARG     BB 3371  20.013  10.412  26.007
    1ARG     SC 3372  20.325  10.340  26.008
    1ARG     SC 3373  20.687  10.264  25.967
    1GLN     BB 3374  19.705  10.377  26.072
    1GLN     SC 3375  19.733  10.735  25.959
    1SER     BB 3376  19.385  10.360  26.238
    1SER     SC 3377  19.366  10.345  26.481
    1VAL     BB 3378  19.236  10.066  26.088
    1VAL     SC 3379  19.267  10.200  25.863
    1THR     BB 3380  18.919   9.930  25.985
    1THR     SC 3381  18.817   9.968  26.214
    1VAL     BB 3382  18.771   9.614  25.878
    1VAL     SC 3383  18.935   9.541  25.689
    1PHE     BB 3384  18.459   9.577  25.672
    1PHE     SC 3385  18.414   9.679  25.954
    1PHE     SC 3386  18.448   9.893  26.040
    1PHE     SC 3387  18.513   9.766  26.194
    1ASP     BB 3388  18.265   9.282  25.610
    1ASP     SC 3389  18.304   9.267  25.264
    1ILE     BB 3390  18.040   9.007  25.509
    1ILE     SC 3391  17.775   9.089  25.446
    1ASP     BB 3392  18.282   8.863  25.402
    1ASP     SC 3393  18.325   8.721  25.122
    1GLU     BB 3394  18.509   8.635  25.526
    1GLU     SC 3395  18.456   8.316  25.745
    1ARG     BB 3396  18.724   8.612  25.298
    1ARG     SC 3397  18.595   8.358  25.118
    1ARG     SC 3398  18.474   8.042  24.963
    1ARG     BB 3399  18.781   8.916  25.284
    1ARG     SC 3400  18.553   9.032  25.069
    1ARG     SC 3401  18.282   9.127  24.842
    1LEU     BB 3402  18.873   8.944  25.571
    1LEU     SC 3403  18.740   8.962  25.844
    1ASN     BB 3404  19.094   8.713  25.601
    1ASN     SC 3405  18.888   8.488  25.732
    1LEU     BB 3406  19.283   8.844  25.401
    1LEU     SC 3407  19.181   8.715  25.094
    1TYR     BB 3408  19.308   9.146  25.537
    1TYR     SC 3409  19.130   9.234  25.303
    1TYR     SC 3410  19.046   9.407  25.175
    1TYR     SC 3411  18.982   9.265  24.994
    1LEU     BB 3412  19.403   9.069  25.829
    1LEU     SC 3413  19.227   8.971  26.067
    1SER     BB 3414  19.684   8.906  25.739
    1SER     SC 3415  19.600   8.675  25.744
    1GLU     BB 3416  19.767   9.024  25.412
    1GLU     SC 3417  19.776   8.665  25.416
    1PHE     BB 3418  19.685   9.373  25.453
    1PHE     SC 3419  19.529   9.269  25.220
    1PHE     SC 3420  19.517   9.330  24.995
    1PHE     SC 3421  19.471   9.126  24.992
    1ASP     BB 3422  19.783   9.519  25.739
    1ASP     SC 3423  20.068   9.453  25.616
    1THR     BB 3424  19.565   9.546  25.947
    1THR     SC 3425  19.320   9.559  25.883
    1VAL     BB 3426  19.446   9.648  26.260
    1VAL     SC 3427  19.519   9.893  26.311
    1GLU     BB 3428  19.146   9.540  26.164
    1GLU     SC 3429  18.995   9.438  26.473
    1GLY     BB 3430  18.891   9.248  26.135
    1ILE     BB 3431  18.526   9.238  26.076
    1ILE     SC 3432  18.529   9.324  26.380
    1VAL     BB 3433  18.235   9.057  26.070
    1VAL     SC 3434  18.252   8.824  25.945
    1ILE     BB 3435  17.976   9.242  25.884
    1ILE     SC 3436  17.992   9.390  26.120
    1ASP     BB 3437  17.679   9.407  25.896
    1ASP     SC 3438  17.417   9.319  25.728
    1THR     BB 3439  17.601   9.755  25.792
    1THR     SC 3440  17.822   9.781  25.687
    1THR     BB 3441  17.277   9.763  25.811
    1THR     SC 3442  17.231   9.643  25.591
    1ASN     BB 3443  17.323   9.685  26.107
    1ASN     SC 3444  17.200   9.437  26.245
    1LYS     BB 3445  17.326   9.855  26.411
    1LYS     SC 3446  17.077  10.070  26.366
    1LYS     SC 3447  16.869  10.298  26.288
    1VAL     BB 3448  17.436   9.646  26.625
    1VAL     SC 3449  17.239   9.542  26.759
    1ALA     BB 3450  17.658   9.541  26.419
    1LEU     BB 3451  17.791   9.858  26.430
    1LEU     SC 3452  17.729  10.039  26.164
    1ALA     BB 3453  17.787   9.904  26.760
    1LYS     BB 3454  18.023   9.645  26.811
    1LYS     SC 3455  17.816   9.387  26.810
    1LYS     SC 3456  17.607   9.147  26.838
    1LYS     BB 3457  18.269   9.817  26.661
    1LYS     SC 3458  18.197   9.719  26.369
    1LYS     SC 3459  18.097   9.816  26.111
    1GLY     BB 3460  18.264  10.122  26.754
    1ILE     BB 3461  18.181  10.346  26.526
    1ILE     SC 3462  18.072  10.246  26.318
    1GLN     BB 3463  18.192  10.619  26.721
    1GLN     SC 3464  17.808  10.593  26.853
    1SER     BB 3465  18.537  10.609  26.712
    1SER     SC 3466  18.580  10.405  26.802
    1TYR     BB 3467  18.526  10.726  26.413
    1TYR     SC 3468  18.634  10.445  26.343
    1TYR     SC 3469  18.509  10.262  26.409
    1TYR     SC 3470  18.692  10.149  26.504
    1ASP     BB 3471  18.608  10.998  26.225
    1ASP     SC 3472  18.866  11.056  26.443
    1TRP     BB 3473  18.636  10.806  25.959
    1TRP     SC 3474  18.787  11.058  25.807
    1TRP     SC 3475  18.889  11.231  25.874
    1TRP     SC 3476  18.744  11.214  25.565
    1TRP     SC 3477  18.843  11.390  25.628
    1VAL     BB 3478  18.399  10.679  25.712
    1VAL     SC 3479  18.281  10.524  25.899
    1ILE     BB 3480  18.421  10.423  25.457
    1ILE     SC 3481  18.656  10.565  25.377
    1VAL     BB 3482  18.204  10.356  25.175
    1VAL     SC 3483  17.988  10.318  25.314
    1GLY     BB 3484  18.272  10.103  24.909
    1ILE     BB 3485  17.979  10.054  24.811
    1ILE     SC 3486  17.886   9.849  25.022
    1GLU     BB 3487  17.849  10.010  24.467
    1GLU     SC 3488  18.128  10.085  24.200
    1ASN     BB 3489  17.671   9.776  24.347
    1ASN     SC 3490  17.925   9.606  24.221
    1GLU     BB 3491  17.499   9.820  24.615
    1GLU     SC 3492  17.578   9.465  24.779
    1LEU     BB 3493  17.265  10.040  24.724
    1LEU     SC 3494  17.156  10.276  24.550
    1GLU     BB 3495  17.118   9.938  24.981
    1GLU     SC 3496  16.777   9.721  25.002
    1SER     BB 3497  17.379   9.899  25.152
    1SER     SC 3498  17.515   9.686  25.144
    1SER     BB 3499  17.494  10.193  25.123
    1SER     SC 3500  17.649  10.260  24.933
    1LEU     BB 3501  17.241  10.360  25.232
    1LEU     SC 3502  17.101  10.450  24.942
    1VAL     BB 3503  17.212  10.224  25.512
    1VAL     SC 3504  17.027  10.039  25.506
    1THR     BB 3505  17.504  10.279  25.601
    1THR     SC 3506  17.664  10.083  25.526
    1VAL     BB 3507  17.504  10.597  25.579
    1VAL     SC 3508  17.539  10.703  25.360
    1LEU     BB 3509  17.259  10.644  25.764
    1LEU     SC 3510  16.954  10.622  25.705
    1ASN     BB 3511  17.376  10.507  26.021
    1ASN     SC 3512  17.245  10.198  25.981
    1LEU     BB 3513  17.624  10.705  26.039
    1LEU     SC 3514  17.857  10.520  25.877
    1LEU     BB 3515  17.451  10.966  26.071
    1LEU     SC 3516  17.361  11.166  25.845
    1ASP     BB 3517  17.264  10.874  26.314
    1ASP     SC 3518  16.991  10.748  26.158
    1LEU     BB 3519  17.551  10.817  26.488
    1LEU     SC 3520  17.495  10.492  26.487
    1LYS     BB 3521  17.755  11.070  26.432
    1LYS     SC 3522  17.547  11.217  26.623
    1LYS     SC 3523  17.335  11.345  26.824
    1CYS     BB 3524  17.961  11.093  26.193
    1CYS     SC 3525  18.144  10.887  26.093
    1THR     BB 3526  18.190  11.335  26.089
    1THR     SC 3527  18.337  11.406  26.294
    1ASN     BB 3528  18.317  11.147  25.840
    1ASN     SC 3529  18.526  11.405  25.860
    1ILE     BB 3530  18.169  11.069  25.525
    1ILE     SC 3531  17.933  10.945  25.684
    1THR     BB 3532  18.265  10.826  25.272
    1THR     SC 3533  18.487  10.970  25.228
    1VAL     BB 3534  18.148  10.757  24.931
    1VAL     SC 3535  17.923  10.760  25.060
    1LYS     BB 3536  18.054  10.517  24.692
    1LYS     SC 3537  18.293  10.337  24.564
    1LYS     SC 3538  18.424  10.132  24.352
    1ALA     BB 3539  17.929  10.595  24.355
    1LYS     BB 3540  17.806  10.435  24.054
    1LYS     SC 3541  17.655  10.156  24.064
    1LYS     SC 3542  17.509   9.879  24.013
    1ASP     BB 3543  17.587  10.676  24.004
    1ASP     SC 3544  17.470  10.603  23.698
    1ASP     BB 3545  17.376  10.953  23.977
    1ASP     SC 3546  17.541  11.094  23.730
    1ASN     BB 3547  17.132  10.847  24.148
    1ASN     SC 3548  16.921  10.808  23.890
    1TYR     BB 3549  17.320  10.733  24.376
    1TYR     SC 3550  17.326  10.457  24.223
    1TYR     SC 3551  17.366  10.233  24.264
    1TYR     SC 3552  17.197  10.151  24.124
    1ARG     BB 3553  17.427  11.015  24.451
    1ARG     SC 3554  17.654  11.168  24.296
    1ARG     SC 3555  17.655  11.269  24.007
    1ARG     BB 3556  17.148  11.154  24.533
    1ARG     SC 3557  17.026  11.249  24.234
    1ARG     SC 3558  16.958  11.364  23.890
    1VAL     BB 3559  17.087  10.975  24.784
    1VAL     SC 3560  16.971  10.767  24.663
    1LEU     BB 3561  17.362  11.042  24.934
    1LEU     SC 3562  17.553  10.775  24.832
    1LEU     BB 3563  17.300  11.344  24.948
    1LEU     SC 3564  17.440  11.469  24.652
    1ALA     BB 3565  17.004  11.332  25.094
    1LEU     BB 3566  17.214  11.157  25.329
    1LEU     SC 3567  17.024  10.893  25.292
    1GLY     BB 3568  17.422  11.405  25.445
    1LEU     BB 3569  17.600  11.619  25.271
    1LEU     SC 3570  17.517  11.768  25.009
    1THR     BB 3571  17.695  11.825  25.503
    1THR     SC 3572  17.455  11.850  25.603
    1GLU     BB 3573  17.901  11.549  25.610
    1GLU     SC 3574  17.742  11.674  25.970
    1ASN     BB 3575  17.987  11.459  25.304
    1ASN     SC 3576  17.757  11.264  25.242
    1GLN     BB 3577  18.152  11.237  25.051
    1GLN     SC 3578  18.337  11.572  25.055
    1ILE     BB 3579  18.159  11.174  24.686
    1ILE     SC 3580  17.853  11.136  24.712
    1ILE     BB 3581  18.265  10.892  24.484
    1ILE     SC 3582  18.543  10.925  24.626
    1VAL     BB 3583  18.370  10.812  24.121
    1VAL     SC 3584  18.160  10.919  24.058
    1PRO     BB 3585  18.629  10.623  24.029
    1PRO     SC 3586  18.576  10.548  24.273
    1ASN     BB 3587  18.548  10.508  23.746
    1ASN     SC 3588  18.475  10.191  23.844
    1LYS     BB 3589  18.467  10.783  23.613
    1LYS     SC 3590  18.125  10.800  23.628
    1LYS     SC 3591  17.804  10.800  23.564
    1ILE     BB 3592  18.731  10.951  23.667
    1ILE     SC 3593  18.704  11.079  23.948
    1ALA     BB 3594  18.941  10.723  23.564
    1GLY     BB 3595  18.790  10.743  23.254
    1GLU     BB 3596  18.843  11.045  23.176
    1GLU     SC 3597  18.530  11.278  23.336
    1ILE     BB 3598  19.154  11.026  23.200
    1ILE     SC 3599  19.217  11.106  23.498
    1THR     BB 3600  19.200  10.780  23.006
    1THR     SC 3601  19.156  10.577  23.162
    1ALA     BB 3602  19.001  10.899  22.768
    1THR     BB 3603  19.220  11.150  22.747
    1THR     SC 3604  19.141  11.344  22.912
    1ARG     BB 3605  19.481  10.992  22.685
    1ARG     SC 3606  19.676  10.875  22.897
    1ARG     SC 3607  19.928  10.647  22.877
    1VAL     BB 3608  19.363  10.825  22.423
    1VAL     SC 3609  19.239  10.617  22.505
    1ILE     BB 3610  19.302  11.074  22.218
    1ILE     SC 3611  19.080  11.245  22.259
    1PHE     BB 3612  19.588  11.166  22.171
    1PHE     SC 3613  19.595  11.383  22.395
    1PHE     SC 3614  19.557  11.364  22.620
    1PHE     SC 3615  19.489  11.558  22.577
    1ASN     BB 3616  19.843  11.291  21.993
    1ASN     SC 3617  19.801  11.389  21.685
    1ILE     BB 3618  20.106  11.068  22.042
    1ILE     SC 3619  20.247  11.188  21.803
    1ASP     BB 3620  20.071  11.046  22.349
    1ASP     SC 3621  19.997  10.732  22.321
    1PHE     BB 3622  20.135  11.319  22.501
    1PHE     SC 3623  20.039  11.559  22.400
    1PHE     SC 3624  19.838  11.624  22.303
    1PHE     SC 3625  19.848  11.736  22.479
    1ASP     BB 3626  20.011  11.240  22.752
    1ASP     SC 3627  19.752  11.323  22.926
    1ILE     BB 3628  20.043  11.102  23.091
    1ILE     SC 3629  20.348  11.073  23.037
    1GLU     BB 3630  19.930  11.336  23.298
    1GLU     SC 3631  19.788  11.129  23.561
    1VAL     BB 3632  19.657  11.511  23.504
    1VAL     SC 3633  19.560  11.615  23.298
    1SER     BB 3634  19.290  12.007  23.766
    1SER     SC 3635  19.107  12.028  23.579
    1ILE     BB 3636  19.220  12.334  23.879
    1ILE     SC 3637  19.489  12.411  23.902
    1ASP     BB 3638  18.995  12.393  23.656
    1ASP     SC 3639  18.823  12.632  23.811
    1ASP     BB 3640  18.667  12.352  23.470
    1ASP     SC 3641  18.744  12.060  23.600
    1GLU     BB 3642  18.549  12.646  23.441
    1GLU     SC 3643  18.284  12.611  23.781
    1PHE     BB 3644  18.831  12.726  23.440
    1PHE     SC 3645  18.800  12.970  23.617
    1PHE     SC 3646  18.816  13.201  23.594
    1PHE     SC 3647  18.659  13.173  23.732
    1ILE     BB 3648  19.063  12.706  23.196
    1ILE     SC 3649  18.911  12.698  22.932
    1SER     BB 3650  19.281  12.477  23.397
    1SER     SC 3651  19.360  12.684  23.519
    1SER     BB 3652  19.618  12.316  23.390
    1SER     SC 3653  19.493  12.150  23.256
    1THR     BB 3654  19.832  12.030  23.471
    1THR     SC 3655  19.977  12.139  23.664
    1LEU     BB 3656  20.077  11.888  23.229
    1LEU     SC 3657  19.867  11.812  22.995
    1GLU     BB 3658  20.210  11.580  23.102
    1GLU     SC 3659  20.426  11.366  23.369
    1VAL     BB 3660  20.465  11.544  22.841
    1VAL     SC 3661  20.319  11.746  22.732
    1LYS     BB 3662  20.569  11.488  22.494
    1LYS     SC 3663  20.550  11.166  22.538
    1LYS     SC 3664  20.600  10.887  22.453
    1ASN     BB 3665  20.794  11.432  22.198
    1ASN     SC 3666  20.428  11.414  22.142
    1PRO     BB 3667  21.030  11.456  21.896
    1PRO     SC 3668  20.889  11.287  21.826
    1ASP     BB 3669  21.028  11.764  21.798
    1ASP     SC 3670  20.733  11.754  21.848
    1LEU     BB 3671  21.194  11.825  22.087
    1LEU     SC 3672  20.910  11.935  22.208
    1PHE     BB 3673  21.468  11.736  21.988
    1PHE     SC 3674  21.600  11.498  21.933
    1PHE     SC 3675  21.683  11.337  22.080
    1PHE     SC 3676  21.853  11.400  21.977
    1ASN     BB 3677  21.703  11.946  22.082
    1ASN     SC 3678  21.991  11.908  22.071
    1LYS     BB 3679  21.559  12.165  22.273
    1LYS     SC 3680  21.390  12.173  21.999
    1LYS     SC 3681  21.438  12.164  21.686
    1ASN     BB 3682  21.492  12.500  22.400
    1ASN     SC 3683  21.828  12.485  22.369
    1ILE     BB 3684  21.314  12.700  22.617
    1ILE     SC 3685  21.302  12.565  22.872
    1GLN     BB 3686  21.366  13.002  22.472
    1GLN     SC 3687  21.503  13.316  22.658
    1GLN     BB 3688  21.350  12.901  22.174
    1GLN     SC 3689  21.630  12.687  22.001
    1VAL     BB 3690  21.099  12.734  22.270
    1VAL     SC 3691  21.073  12.533  22.116
    1GLY     BB 3692  20.879  12.950  22.368
    1LEU     BB 3693  20.594  12.963  22.596
    1LEU     SC 3694  20.667  12.627  22.615
    1SER     BB 3695  20.505  13.226  22.745
    1SER     SC 3696  20.659  13.191  22.975
    1THR     BB 3697  20.504  13.425  22.486
    1THR     SC 3698  20.729  13.549  22.494
    1ASN     BB 3699  20.354  13.243  22.242
    1ASN     SC 3700  20.637  13.199  22.099
    1LYS     BB 3701  20.089  13.110  22.459
    1LYS     SC 3702  20.125  12.913  22.229
    1LYS     SC 3703  20.050  12.758  21.960
    1ASP     BB 3704  20.062  13.133  22.788
    1ASP     SC 3705  19.913  13.402  22.686
    1PHE     BB 3706  20.310  12.923  22.921
    1PHE     SC 3707  20.140  12.747  22.775
    1PHE     SC 3708  20.298  12.608  22.680
    1PHE     SC 3709  20.178  12.667  22.519
    1ASN     BB 3710  20.459  12.682  23.156
    1ASN     SC 3711  20.611  12.877  23.371
    1ILE     BB 3712  20.754  12.526  23.276
    1ILE     SC 3713  20.867  12.372  23.029
    1ILE     BB 3714  20.822  12.307  23.557
    1ILE     SC 3715  20.538  12.337  23.670
    1GLN     BB 3716  20.929  12.029  23.415
    1GLN     SC 3717  21.099  11.880  23.693
    1ILE     BB 3718  21.202  11.784  23.343
    1ILE     SC 3719  21.271  11.957  23.108
    1ARG     BB 3720  21.233  11.433  23.238
    1ARG     SC 3721  21.105  11.251  23.452
    1ARG     SC 3722  20.996  10.924  23.587
    1ARG     BB 3723  21.561  11.269  23.200
    1ARG     SC 3724  21.693  11.429  22.975
    1ARG     SC 3725  21.968  11.627  22.942
    1LYS     BB 3726  21.625  10.947  23.245
    1LYS     SC 3727  21.838  10.925  23.009
    1LYS     SC 3728  22.053  10.858  22.784
    1GLY     BB 3729  21.487  11.023  23.549
    1LYS     BB 3730  21.591  11.304  23.552
    1LYS     SC 3731  21.925  11.247  23.567
    1LYS     SC 3732  22.235  11.171  23.555
    1ILE     BB 3733  21.605  11.614  23.662
    1ILE     SC 3734  21.462  11.649  23.916
    1LEU     BB 3735  21.560  11.952  23.549
    1LEU     SC 3736  21.678  11.804  23.249
    1LEU     BB 3737  21.627  12.269  23.519
    1LEU     SC 3738  21.893  12.307  23.748
    1PRO     BB 3739  21.426  12.589  23.537
    1PRO     SC 3740  21.350  12.481  23.697
    1ASP     BB 3741  21.648  12.711  23.316
    1ASP     SC 3742  21.825  12.918  23.503
    1ASP     BB 3743  21.738  12.921  23.064
    1ASP     SC 3744  21.409  12.966  22.988
    1TYR     BB 3745  21.885  12.666  22.866
    1TYR     SC 3746  21.892  12.884  22.657
    1TYR     SC 3747  21.771  12.957  22.472
    1TYR     SC 3748  21.836  13.181  22.494
    1THR     BB 3749  21.723  12.352  22.824
    1THR     SC 3750  21.718  12.283  23.087
    1GLU     BB 3751  21.759  12.020  22.725
    1GLU     SC 3752  22.038  11.807  22.569
    1LEU     BB 3753  21.552  11.824  22.515
    1LEU     SC 3754  21.288  12.011  22.643
    1LYS     BB 3755  21.416  11.503  22.474
    1LYS     SC 3756  21.751  11.391  22.510
    1LYS     SC 3757  22.069  11.366  22.525
    1GLU     BB 3758  21.299  11.214  22.364
    1GLU     SC 3759  21.213  11.045  22.015
    1GLY     BB 3760  21.050  11.121  22.606
    1ASP     BB 3761  21.042  11.342  22.786
    1ASP     SC 3762  21.384  11.417  22.796
    1ILE     BB 3763  20.669  11.759  23.030
    1ILE     SC 3764  20.818  11.850  22.786
    1VAL     BB 3765  20.570  12.034  23.236
    1VAL     SC 3766  20.525  11.887  23.449
    1VAL     BB 3767  20.262  12.202  23.193
    1VAL     SC 3768  20.305  12.207  22.934
    1PHE     BB 3769  20.104  12.544  23.234
    1PHE     SC 3770  20.091  12.591  23.510
    1PHE     SC 3771  19.884  12.555  23.611
    1PHE     SC 3772  19.935  12.752  23.664
    1ALA     BB 3773  19.762  12.668  23.180
    1ARG     BB 3774  19.532  12.637  22.944
    1ARG     SC 3775  19.385  12.944  22.964
    1ARG     SC 3776  19.332  13.314  22.980
    1THR     BB 3777  19.378  12.381  22.776
    1THR     SC 3778  19.221  12.244  22.937
    1THR     BB 3779  19.356  12.519  22.489
    1THR     SC 3780  19.117  12.627  22.465
    1ILE     BB 3781  19.653  12.622  22.489
    1ILE     SC 3782  19.654  12.894  22.636
    1ILE     BB 3783  19.794  12.341  22.514
    1ILE     SC 3784  19.825  12.290  22.818
    1ASN     BB 3785  19.677  12.224  22.250
    1ASN     SC 3786  19.433  12.049  22.397
    1SER     BB 3787  19.806  12.454  22.065
    1SER     SC 3788  19.712  12.680  22.044
    1LEU     BB 3789  20.087  12.322  22.108
    1LEU     SC 3790  20.299  12.346  22.325
    1ALA     BB 3791  20.010  11.998  22.042
    1GLU     BB 3792  19.975  12.152  21.704
    1GLU     SC 3793  19.575  12.187  21.771
    1LYS     BB 3794  20.292  12.368  21.735
    1LYS     SC 3795  20.186  12.616  21.596
    1LYS     SC 3796  20.291  12.901  21.491
    1LYS     BB 3797  13.936   6.583  21.230
    1LYS     SC 3798  13.895   6.263  21.265
    1LYS     SC 3799  13.841   5.957  21.183
    1THR     BB 3800  13.835   6.881  21.293
    1THR     SC 3801  13.900   6.945  21.541
    1SER     BB 3802  13.885   6.995  20.999
    1SER     SC 3803  14.127   7.105  21.061
    1GLU     BB 3804  13.757   6.752  20.835
    1GLU     SC 3805  14.079   6.507  20.922
    1LYS     BB 3806  13.466   6.785  20.946
    1LYS     SC 3807  13.471   6.608  21.234
    1LYS     SC 3808  13.475   6.420  21.494
    1ILE     BB 3809  13.416   7.063  20.833
    1ILE     SC 3810  13.552   7.276  21.025
    1PHE     BB 3811  13.452   6.982  20.527
    1PHE     SC 3812  13.677   6.921  20.383
    1PHE     SC 3813  13.765   7.030  20.198
    1PHE     SC 3814  13.729   6.836  20.127
    1LEU     BB 3815  13.270   6.718  20.491
    1LEU     SC 3816  13.515   6.478  20.496
    1ILE     BB 3817  13.009   6.857  20.577
    1ILE     SC 3818  12.986   6.805  20.887
    1TYR     BB 3819  13.024   7.097  20.373
    1TYR     SC 3820  13.160   7.348  20.404
    1TYR     SC 3821  13.055   7.519  20.518
    1TYR     SC 3822  13.077   7.672  20.344
    1VAL     BB 3823  13.048   6.938  20.097
    1VAL     SC 3824  13.271   6.862  20.028
    1ALA     BB 3825  12.790   6.753  20.171
    1ILE     BB 3826  12.587   7.032  20.133
    1ILE     SC 3827  12.525   7.119  20.421
    1ILE     BB 3828  12.655   7.102  19.840
    1ILE     SC 3829  12.907   7.282  19.828
    1LEU     BB 3830  12.563   6.828  19.721
    1LEU     SC 3831  12.731   6.574  19.661
    1LEU     BB 3832  12.275   6.837  19.843
    1LEU     SC 3833  12.180   6.750  20.129
    1GLY     BB 3834  12.205   7.123  19.713
    1GLY     BB 3835  12.264   7.031  19.410
    1LEU     BB 3836  12.053   6.804  19.410
    1LEU     SC 3837  12.251   6.527  19.443
    1LEU     BB 3838  11.818   6.982  19.496
    1LEU     SC 3839  11.777   6.938  19.834
    1LEU     BB 3840  11.853   7.206  19.253
    1LEU     SC 3841  11.954   7.465  19.433
    1SER     BB 3842  11.806   6.966  19.021
    1SER     SC 3843  12.007   6.846  19.028
    1ILE     BB 3844  11.519   6.933  19.095
    1ILE     SC 3845  11.500   6.735  19.341
    1PRO     BB 3846  11.224   6.983  18.919
    1PRO     SC 3847  11.270   6.731  18.861
    1ASN     BB 3848  11.057   7.169  19.135
    1ASN     SC 3849  10.928   6.901  19.285
    1PHE     BB 3850  11.296   7.409  19.148
    1PHE     SC 3851  11.332   7.272  19.408
    1PHE     SC 3852  11.461   7.172  19.569
    1PHE     SC 3853  11.266   7.124  19.630
    1SER     BB 3854  11.307   7.428  18.802
    1SER     SC 3855  11.543   7.340  18.845
    1LEU     BB 3856  11.106   7.689  18.756
    1LEU     SC 3857  10.899   7.398  18.770
    1THR     BB 3858  10.874   7.889  18.700
    1THR     SC 3859  10.845   7.970  18.450
    1LYS     BB 3860  10.616   8.076  18.856
    1LYS     SC 3861  10.776   8.342  18.960
    1LYS     SC 3862  10.971   8.573  19.053
    1SER     BB 3863  10.414   7.900  18.641
    1SER     SC 3864  10.422   8.053  18.469
    1GLY     BB 3865  10.565   7.594  18.605
    1SER     BB 3866  10.779   7.608  18.393
    1SER     SC 3867  10.719   7.671  18.142
    1LYS     BB 3868  11.040   7.459  18.245
    1LYS     SC 3869  10.975   7.129  18.267
    1LYS     SC 3870  10.880   6.824  18.265
    1TYR     BB 3871  11.388   7.458  18.365
    1TYR     SC 3872  11.491   7.732  18.349
    1TYR     SC 3873  11.534   7.849  18.152
    1TYR     SC 3874  11.747   7.921  18.225
    1ASN     BB 3875  11.692   7.357  18.273
    1ASN     SC 3876  11.697   7.027  18.212
    1TRP     BB 3877  12.000   7.212  18.438
    1TRP     SC 3878  11.935   7.454  18.655
    1TRP     SC 3879  11.782   7.594  18.690
    1TRP     SC 3880  12.105   7.648  18.780
    1TRP     SC 3881  11.956   7.794  18.822
    1ASP     BB 3882  12.315   7.185  18.484
    1ASP     SC 3883  12.455   7.391  18.250
    1PHE     BB 3884  12.555   7.026  18.658
    1PHE     SC 3885  12.723   6.805  18.612
    1PHE     SC 3886  12.698   6.637  18.771
    1PHE     SC 3887  12.902   6.685  18.782
    1LEU     BB 3888  12.752   7.275  18.723
    1LEU     SC 3889  13.010   7.206  18.520
    1THR     BB 3890  12.532   7.491  18.807
    1THR     SC 3891  12.454   7.555  18.569
    1GLY     BB 3892  12.405   7.346  19.053
    1ILE     BB 3893  12.678   7.349  19.202
    1ILE     SC 3894  12.827   7.085  19.124
    1PHE     BB 3895  12.741   7.658  19.191
    1PHE     SC 3896  12.840   7.827  19.006
    1PHE     SC 3897  13.054   7.898  18.949
    1PHE     SC 3898  12.963   8.072  19.023
    1ILE     BB 3899  12.484   7.766  19.341
    1ILE     SC 3900  12.331   7.890  19.138
    1ALA     BB 3901  12.497   7.551  19.586
    1SER     BB 3902  12.795   7.690  19.667
    1SER     SC 3903  13.011   7.601  19.579
    1SER     BB 3904  12.718   7.995  19.675
    1SER     SC 3905  12.718   8.143  19.478
    1GLY     BB 3906  12.490   7.959  19.898
    1PHE     BB 3907  12.691   7.796  20.118
    1PHE     SC 3908  12.620   7.570  20.215
    1PHE     SC 3909  12.788   7.428  20.281
    1PHE     SC 3910  12.687   7.467  20.460
    1SER     BB 3911  12.939   8.023  20.082
    1SER     SC 3912  13.090   7.848  19.961
    1ASP     BB 3913  12.816   8.316  20.064
    1ASP     SC 3914  12.635   8.235  20.321
    1THR     BB 3915  12.888   8.460  19.772
    1THR     SC 3916  13.060   8.284  19.688
    1GLY     BB 3917  12.667   8.560  19.515
    1LEU     BB 3918  12.739   8.401  19.270
    1LEU     SC 3919  13.062   8.510  19.253
    1THR     BB 3920  12.602   8.378  18.935
    1THR     SC 3921  12.375   8.410  19.053
    1VAL     BB 3922  12.522   8.203  18.640
    1VAL     SC 3923  12.701   8.015  18.608
    1LEU     BB 3924  12.227   8.157  18.719
    1LEU     SC 3925  12.178   7.906  18.484
    1ASP     BB 3926  11.945   8.263  18.804
    1ASP     SC 3927  11.776   8.512  18.740
    1VAL     BB 3928  11.682   8.319  19.060
    1VAL     SC 3929  11.844   8.381  19.257
    1SER     BB 3930  11.386   8.430  18.978
    1SER     SC 3931  11.310   8.670  18.993
    1SER     BB 3932  11.506   7.963  18.755
    1SER     SC 3933  11.680   8.062  18.589
    1TYR     BB 3934  11.353   7.952  19.041
    1TYR     SC 3935  11.612   7.815  19.155
    1TYR     SC 3936  11.834   7.877  19.133
    1TYR     SC 3937  11.913   7.657  19.120
    1THR     BB 3938  11.151   7.818  19.244
    1THR     SC 3939  10.986   7.626  19.140
    1PHE     BB 3940  11.033   7.882  19.555
    1PHE     SC 3941  10.805   8.069  19.485
    1PHE     SC 3942  10.603   8.077  19.370
    1PHE     SC 3943  10.696   8.260  19.323
    1TRP     BB 3944  11.161   7.612  19.664
    1TRP     SC 3945  10.916   7.423  19.666
    1TRP     SC 3946  10.709   7.383  19.639
    1TRP     SC 3947  10.869   7.348  19.939
    1TRP     SC 3948  10.662   7.304  19.922
    1GLY     BB 3949  11.459   7.688  19.565
    1GLN     BB 3950  11.466   7.951  19.728
    1GLN     SC 3951  11.261   8.200  19.444
    1LEU     BB 3952  11.449   7.798  20.001
    1LEU     SC 3953  11.115   7.817  20.070
    1ILE     BB 3954  11.719   7.644  19.958
    1ILE     SC 3955  11.672   7.385  19.857
    1LEU     BB 3956  11.894   7.898  19.944
    1LEU     SC 3957  11.903   7.965  19.607
    1LEU     BB 3958  11.823   7.980  20.236
    1LEU     SC 3959  11.566   8.191  20.202
    1LEU     BB 3960  11.932   7.721  20.378
    1LEU     SC 3961  11.651   7.530  20.407
    1LEU     BB 3962  12.223   7.754  20.276
    1LEU     SC 3963  12.218   7.537  20.010
    1ILE     BB 3964  12.269   8.045  20.389
    1ILE     SC 3965  12.175   8.241  20.166
    1GLU     BB 3966  12.198   7.968  20.683
    1GLU     SC 3967  11.943   8.079  20.865
    1PHE     BB 3968  12.424   7.746  20.715
    1PHE     SC 3969  12.227   7.520  20.689
    1PHE     SC 3970  12.117   7.355  20.571
    1PHE     SC 3971  11.997   7.380  20.741
    1GLY     BB 3972  12.682   7.920  20.624
    1GLY     BB 3973  12.664   8.212  20.797
    1ILE     BB 3974  12.667   8.033  21.086
    1ILE     SC 3975  12.371   8.087  21.133
    1GLY     BB 3976  12.761   7.763  21.045
    1VAL     BB 3977  12.750   7.418  21.031
    1VAL     SC 3978  12.862   7.308  20.842
    1LEU     BB 3979  12.802   7.345  21.344
    1LEU     SC 3980  13.095   7.190  21.302
    1THR     BB 3981  12.574   7.512  21.465
    1THR     SC 3982  12.636   7.772  21.462
    1PHE     BB 3983  12.341   7.325  21.361
    1PHE     SC 3984  12.267   7.508  21.128
    1PHE     SC 3985  12.045   7.575  21.149
    1PHE     SC 3986  12.146   7.749  21.092
    1LYS     BB 3987  12.449   7.061  21.492
    1LYS     SC 3988  12.686   6.895  21.387
    1LYS     SC 3989  12.916   6.679  21.423
    1ILE     BB 3990  12.430   7.167  21.788
    1ILE     SC 3991  12.692   7.237  21.874
    1VAL     BB 3992  12.127   7.243  21.775
    1VAL     SC 3993  12.083   7.485  21.689
    1LEU     BB 3994  12.026   6.957  21.713
    1LEU     SC 3995  12.010   6.802  21.439
    1PHE     BB 3996  12.157   6.817  21.972
    1PHE     SC 3997  12.372   6.694  21.803
    1PHE     SC 3998  12.586   6.630  21.749
    1PHE     SC 3999  12.472   6.550  21.591
    1LEU     BB 4000  12.011   7.006  22.178
    1LEU     SC 4001  12.110   7.295  22.265
    1ILE     BB 4002  11.710   6.935  22.084
    1ILE     SC 4003  11.629   7.149  21.878
    1ILE     BB 4004  11.752   6.619  22.147
    1ILE     SC 4005  11.877   6.505  21.895
    1ASN     BB 4006  11.893   6.626  22.463
    1ASN     SC 4007  11.578   6.702  22.486
    1LYS     BB 4008  12.203   6.643  22.478
    1LYS     SC 4009  12.245   6.389  22.249
    1LYS     SC 4010  12.244   6.168  22.019
    1LYS     BB 4011  12.504   6.618  22.595
    1LYS     SC 4012  12.497   6.516  22.919
    1LYS     SC 4013  12.655   6.468  23.164
    1ILE     BB 4014  12.783   6.802  22.561
    1ILE     SC 4015  12.676   7.025  22.400
    1SER     BB 4016  13.072   6.739  22.412
    1SER     SC 4017  13.096   6.532  22.277
    1ILE     BB 4018  13.405   6.788  22.382
    1ILE     SC 4019  13.513   6.795  22.641
    1SER     BB 4020  13.426   6.705  22.076
    1SER     SC 4021  13.467   6.439  22.121
    1ASP     BB 4022  13.209   6.930  22.001
    1ASP     SC 4023  12.985   6.688  21.944
    1THR     BB 4024  13.351   7.177  22.137
    1THR     SC 4025  13.279   7.199  22.390
    1ILE     BB 4026  13.603   7.158  21.951
    1ILE     SC 4027  13.790   6.938  22.070
    1VAL     BB 4028  13.444   7.199  21.683
    1VAL     SC 4029  13.346   6.993  21.571
    1ALA     BB 4030  13.279   7.466  21.792
    1GLN     BB 4031  13.577   7.637  21.813
    1GLN     SC 4032  13.865   7.540  22.049
    1SER     BB 4033  13.702   7.614  21.518
    1SER     SC 4034  13.836   7.415  21.448
    1GLU     BB 4035  13.461   7.742  21.353
    1GLU     SC 4036  13.207   7.565  21.187
    1ARG     BB 4037  13.478   8.018  21.555
    1ARG     SC 4038  13.180   7.965  21.666
    1ARG     SC 4039  12.860   8.066  21.623
    1GLY     BB 4040  13.801   8.085  21.590
    1SER     BB 4041  13.895   7.975  21.873
    1SER     SC 4042  13.731   8.036  22.068
    1ALA     BB 4043  14.155   7.992  22.136
    1THR     BB 4044  13.880   7.867  22.320
    1THR     SC 4045  13.913   7.994  22.536
    1THR     BB 4046  13.644   7.643  22.512
    1THR     SC 4047  13.782   7.439  22.485
    1SER     BB 4048  13.496   7.873  22.650
    1SER     SC 4049  13.587   8.007  22.834
    1LEU     BB 4050  13.159   7.868  22.623
    1LEU     SC 4051  13.118   7.925  22.948
    1THR     BB 4052  13.088   7.810  22.297
    1THR     SC 4053  13.318   7.720  22.248
    1ILE     BB 4054  12.783   7.734  22.321
    1ILE     SC 4055  12.808   7.456  22.341
    1ASP     BB 4056  12.683   8.017  22.408
    1ASP     SC 4057  12.690   7.910  22.725
    1LEU     BB 4058  12.772   8.151  22.140
    1LEU     SC 4059  13.042   8.283  22.067
    1ILE     BB 4060  12.568   7.973  21.980
    1ILE     SC 4061  12.703   7.706  21.906
    1LYS     BB 4062  12.305   8.061  22.121
    1LYS     SC 4063  12.299   7.864  22.402
    1LYS     SC 4064  12.345   7.683  22.657
    1ASP     BB 4065  12.325   8.370  22.086
    1ASP     SC 4066  12.378   8.474  22.399
    1GLY     BB 4067  12.381   8.366  21.787
    1PHE     BB 4068  12.110   8.224  21.691
    1PHE     SC 4069  12.062   7.964  21.613
    1PHE     SC 4070  11.849   7.907  21.686
    1PHE     SC 4071  11.838   7.879  21.479
    1ILE     BB 4072  11.908   8.410  21.847
    1ILE     SC 4073  11.864   8.278  22.126
    1TRP     BB 4074  12.004   8.681  21.718
    1TRP     SC 4075  12.148   8.801  21.959
    1TRP     SC 4076  12.224   8.788  22.155
    1TRP     SC 4077  11.926   8.939  22.085
    1TRP     SC 4078  11.986   8.910  22.286
    1LEU     BB 4079  11.962   8.609  21.422
    1LEU     SC 4080  12.265   8.473  21.329
    1THR     BB 4081  11.653   8.527  21.419
    1THR     SC 4082  11.659   8.272  21.472
    1SER     BB 4083  11.555   8.782  21.557
    1SER     SC 4084  11.566   8.827  21.808
    1VAL     BB 4085  11.668   8.993  21.353
    1VAL     SC 4086  11.885   9.113  21.432
    1GLN     BB 4087  11.551   8.864  21.097
    1GLN     SC 4088  11.817   8.549  21.010
    1VAL     BB 4089  11.251   8.886  21.184
    1VAL     SC 4090  11.157   8.670  21.287
    1ILE     BB 4091  11.230   9.196  21.275
    1ILE     SC 4092  11.321   9.223  21.551
    1SER     BB 4093  11.367   9.327  21.025
    1SER     SC 4094  11.616   9.389  21.030
    1ALA     BB 4095  11.261   9.145  20.771
    1PHE     BB 4096  10.940   9.132  20.809
    1PHE     SC 4097  10.785   8.922  20.919
    1PHE     SC 4098  10.651   8.811  20.764
    1PHE     SC 4099  10.514   8.885  20.904
    1ILE     BB 4100  10.859   9.411  20.922
    1ILE     SC 4101  10.799   9.356  21.224
    1LEU     BB 4102  11.052   9.627  20.748
    1LEU     SC 4103  11.196   9.752  21.031
    1PHE     BB 4104  10.982   9.463  20.452
    1PHE     SC 4105  11.267   9.465  20.407
    1PHE     SC 4106  11.455   9.372  20.503
    1PHE     SC 4107  11.519   9.562  20.442
    1PHE     BB 4108  10.673   9.482  20.462
    1PHE     SC 4109  10.524   9.366  20.657
    1PHE     SC 4110  10.511   9.261  20.865
    1PHE     SC 4111  10.416   9.444  20.898
    1LEU     BB 4112  10.643   9.812  20.513
    1LEU     SC 4113  10.600   9.840  20.836
    1PHE     BB 4114  10.811   9.784  20.235
    1PHE     SC 4115  10.857  10.100  20.341
    1PHE     SC 4116  10.913  10.141  20.564
    1PHE     SC 4117  10.817  10.317  20.504
    1PHE     BB 4118  10.922   9.819  19.882
    1PHE     SC 4119  10.658   9.919  19.856
    1PHE     SC 4120  10.451   9.838  19.907
    1PHE     SC 4121  10.443  10.037  19.970
    1PHE     BB 4122  11.169   9.652  19.645
    1PHE     SC 4123  11.188   9.464  19.860
    1PHE     SC 4124  11.176   9.272  19.732
    1PHE     SC 4125  11.031   9.244  19.880
    1ASN     BB 4126  11.050   9.609  19.332
    1ASN     SC 4127  10.958   9.357  19.209
    1GLN     BB 4128  10.916   9.876  19.417
    1GLN     SC 4129  10.742   9.799  19.086
    1PRO     BB 4130  10.878  10.167  19.565
    1PRO     SC 4131  10.948  10.259  19.336
    1SER     BB 4132  10.651  10.426  19.593
    1SER     SC 4133  10.675  10.482  19.872
    1ASN     BB 4134  10.459  10.736  19.627
    1ASN     SC 4135  10.712  10.728  19.396
    1ASN     BB 4136  10.213  10.505  19.611
    1ASN     SC 4137   9.941  10.607  19.524
    1PRO     BB 4138  10.086  10.335  19.901
    1PRO     SC 4139  10.249  10.444  19.966
    1ASN     BB 4140   9.890  10.030  19.983
    1ASN     SC 4141   9.755  10.078  19.697
    1LEU     BB 4142   9.996  10.043  20.306
    1LEU     SC 4143  10.263   9.892  20.352
    1GLU     BB 4144   9.811   9.992  20.579
    1GLU     SC 4145   9.446   9.941  20.366
    1VAL     BB 4146   9.992   9.735  20.701
    1VAL     SC 4147   9.804   9.697  20.904
    1VAL     BB 4148  10.021   9.423  20.539
    1VAL     SC 4149  10.115   9.282  20.722
    1SER     BB 4150  10.074   9.570  20.213
    1SER     SC 4151   9.844   9.568  20.144
    1PRO     BB 4152  10.216   9.496  19.932
    1PRO     SC 4153  10.360   9.392  20.107
    1TYR     BB 4154  10.314   9.553  19.568
    1TYR     SC 4155  10.351   9.801  19.467
    1TYR     SC 4156  10.237  10.000  19.497
    1TYR     SC 4157  10.257  10.063  19.273
    1ASP     BB 4158  10.175   9.140  19.738
    1ASP     SC 4159   9.910   8.957  19.621
    1PHE     BB 4160  10.184   8.858  19.966
    1PHE     SC 4161   9.900   8.964  20.047
    1PHE     SC 4162   9.851   9.097  20.232
    1PHE     SC 4163   9.730   9.177  20.080
    1TRP     BB 4164  10.336   8.612  19.836
    1TRP     SC 4165  10.191   8.544  19.598
    1TRP     SC 4166  10.091   8.657  19.451
    1TRP     SC 4167  10.402   8.529  19.398
    1TRP     SC 4168  10.310   8.651  19.250
    1LYS     BB 4169  10.598   8.761  19.734
    1LYS     SC 4170  10.619   8.878  19.440
    1LYS     SC 4171  10.718   9.088  19.223
    1SER     BB 4172  10.677   8.958  19.976
    1SER     SC 4173  10.472   9.096  20.001
    1LEU     BB 4174  10.716   8.788  20.245
    1LEU     SC 4175  10.406   8.850  20.387
    1TRP     BB 4176  10.926   8.601  20.115
    1TRP     SC 4177  10.706   8.362  20.008
    1TRP     SC 4178  10.554   8.275  20.128
    1TRP     SC 4179  10.618   8.169  19.812
    1TRP     SC 4180  10.467   8.076  19.926
    1PHE     BB 4181  11.131   8.817  20.005
    1PHE     SC 4182  11.047   8.767  19.716
    1PHE     SC 4183  11.033   8.828  19.493
    1PHE     SC 4184  11.022   8.619  19.485
    1ALA     BB 4185  11.142   9.003  20.274
    1VAL     BB 4186  11.299   8.733  20.407
    1VAL     SC 4187  11.118   8.594  20.535
    1PHE     BB 4188  11.517   8.647  20.197
    1PHE     SC 4189  11.485   8.495  19.946
    1PHE     SC 4190  11.678   8.576  19.844
    1PHE     SC 4191  11.690   8.371  19.813
    1SER     BB 4192  11.796   8.867  20.511
    1SER     SC 4193  11.670   8.957  20.695
    1THR     BB 4194  11.930   8.593  20.504
    1THR     SC 4195  11.758   8.395  20.544
    1SER     BB 4196  12.121   8.709  20.299
    1SER     SC 4197  12.075   8.720  20.051
    1ALA     BB 4198  12.203   8.989  20.449
    1VAL     BB 4199  12.320   8.865  20.747
    1VAL     SC 4200  12.128   8.863  20.921
    1ASN     BB 4201  12.514   8.638  20.582
    1ASN     SC 4202  12.300   8.435  20.717
    1ASN     BB 4203  12.650   8.776  20.312
    1ASN     SC 4204  12.826   8.963  20.506
    1ALA     BB 4205  12.505   8.618  20.040
    1GLY     BB 4206  12.415   8.837  19.760
    1PHE     BB 4207  12.122   8.741  19.727
    1PHE     SC 4208  12.161   8.437  19.643
    1PHE     SC 4209  12.371   8.348  19.689
    1PHE     SC 4210  12.300   8.229  19.531
    1ASP     BB 4211  11.910   8.829  19.515
    1ASP     SC 4212  11.804   9.147  19.498
    1ILE     BB 4213  11.579   8.761  19.397
    1ILE     SC 4214  11.437   8.618  19.546
    1ILE     BB 4215  11.613   9.000  19.190
    1ILE     SC 4216  11.377   9.177  19.278
    1SER     BB 4217  11.712   8.985  18.861
    1SER     SC 4218  11.583   8.802  18.754
    1PRO     BB 4219  11.711   9.277  18.685
    1PRO     SC 4220  11.466   9.208  18.706
    1ASN     BB 4221  11.854   9.366  18.977
    1ASN     SC 4222  11.770   9.635  18.805
    1SER     BB 4223  12.097   9.351  19.250
    1SER     SC 4224  12.222   9.160  19.143
    1LEU     BB 4225  11.931   9.641  19.388
    1LEU     SC 4226  11.975   9.620  19.692
    1GLN     BB 4227  11.900   9.888  19.170
    1GLN     SC 4228  12.194   9.798  18.900
    1PRO     BB 4229  11.590  10.011  19.206
    1PRO     SC 4230  11.548   9.777  19.173
    1TYR     BB 4231  11.705  10.132  19.497
    1TYR     SC 4232  11.624  10.012  19.700
    1TYR     SC 4233  11.409   9.981  19.775
    1TYR     SC 4234  11.451  10.112  19.970
    1ASN     BB 4235  11.908  10.373  19.452
    1ASN     SC 4236  12.079  10.331  19.219
    1VAL     BB 4237  11.692  10.631  19.355
    1VAL     SC 4238  11.736  10.607  19.119
    1ASP     BB 4239  11.408  10.616  19.520
    1ASP     SC 4240  11.246  10.497  19.265
    1ASN     BB 4241  11.396  10.843  19.771
    1ASN     SC 4242  11.536  11.099  19.798
    1ARG     BB 4243  11.245  10.466  19.978
    1ARG     SC 4244  11.099  10.251  19.914
    1ARG     SC 4245  11.152   9.927  20.096
    1VAL     BB 4246  11.584  10.444  19.992
    1VAL     SC 4247  11.699  10.597  19.851
    1TYR     BB 4248  11.631  10.408  20.303
    1TYR     SC 4249  11.532  10.574  20.508
    1TYR     SC 4250  11.704  10.669  20.631
    1TYR     SC 4251  11.625  10.589  20.839
    1ALA     BB 4252  11.489  10.116  20.398
    1ILE     BB 4253  11.722   9.909  20.246
    1ILE     SC 4254  11.654   9.775  19.976
    1GLN     BB 4255  11.985  10.056  20.326
    1GLN     SC 4256  12.112  10.343  20.313
    1VAL     BB 4257  11.957  10.044  20.638
    1VAL     SC 4258  11.870  10.262  20.743
    1ILE     BB 4259  11.856   9.750  20.693
    1ILE     SC 4260  11.544   9.783  20.717
    1PHE     BB 4261  12.068   9.582  20.540
    1PHE     SC 4262  11.911   9.445  20.332
    1PHE     SC 4263  11.765   9.447  20.153
    1PHE     SC 4264  11.685   9.301  20.277
    1MET     BB 4265  12.322   9.716  20.664
    1MET     SC 4266  12.453  10.033  20.434
    1LEU     BB 4267  12.252   9.636  20.952
    1LEU     SC 4268  12.042   9.764  21.150
    1GLU     BB 4269  12.255   9.328  20.900
    1GLU     SC 4270  11.857   9.256  20.772
    1TRP     BB 4271  12.542   9.288  20.740
    1TRP     SC 4272  12.490   9.372  20.463
    1TRP     SC 4273  12.393   9.483  20.312
    1TRP     SC 4274  12.701   9.559  20.431
    1TRP     SC 4275  12.613   9.671  20.273
    1ILE     BB 4276  12.736   9.433  20.937
    1ILE     SC 4277  12.759   9.728  20.845
    1ILE     BB 4278  12.660   9.275  21.200
    1ILE     SC 4279  12.456   9.446  21.358
    1GLY     BB 4280  12.705   8.987  21.073
    1GLY     BB 4281  12.993   9.041  20.994
    1LEU     BB 4282  13.062   9.086  21.263
    1LEU     SC 4283  13.145   9.437  21.291
    1GLY     BB 4284  13.104   8.981  21.572
    1TYR     BB 4285  13.005   8.743  21.783
    1TYR     SC 4286  12.861   8.549  21.590
    1TYR     SC 4287  12.900   8.429  21.392
    1TYR     SC 4288  12.689   8.482  21.300
    1PRO     BB 4289  13.186   8.858  21.997
    1PRO     SC 4290  13.348   8.680  21.881
    1THR     BB 4291  13.095   9.159  21.950
    1THR     SC 4292  13.225   9.275  21.745
    1PHE     BB 4293  12.790   9.108  22.010
    1PHE     SC 4294  12.576   9.101  21.848
    1PHE     SC 4295  12.403   9.038  21.711
    1PHE     SC 4296  12.307   9.160  21.853
    1ASP     BB 4297  12.999   9.208  22.419
    1ASP     SC 4298  13.314   9.205  22.449
    1ILE     BB 4299  12.783   9.422  22.352
    1ILE     SC 4300  12.860   9.559  22.082
    1LYS     BB 4301  12.544   9.268  22.503
    1LYS     SC 4302  12.337   9.145  22.392
    1LYS     SC 4303  12.039   9.245  22.454
    1ARG     BB 4304  12.701   9.236  22.790
    1ARG     SC 4305  12.820   8.961  22.873
    1ARG     SC 4306  12.971   8.735  23.128
    1LYS     BB 4307  12.891   9.496  22.855
    1LYS     SC 4308  13.164   9.353  22.844
    1LYS     SC 4309  13.372   9.178  23.015
    1LEU     BB 4310  12.682   9.728  22.779
    1LEU     SC 4311  12.580   9.811  22.495
    1LYS     BB 4312  12.407   9.659  22.943
    1LYS     SC 4313  12.255   9.393  22.909
    1LYS     SC 4314  12.059   9.158  23.001
    1ALA     BB 4315  12.560   9.737  23.242
    1ARG     BB 4316  12.652  10.084  23.090
    1ARG     SC 4317  12.931   9.972  23.210
    1ARG     SC 4318  13.247   9.854  23.388
    1LYS     BB 4319  12.430  10.246  22.967
    1LYS     SC 4320  12.256  10.162  22.711
    1LYS     SC 4321  12.028  10.171  22.486
    1THR     BB 4322  12.590  10.540  22.803
    1THR     SC 4323  12.388  10.653  22.738
    1LYS     BB 4324  12.920  10.417  22.902
    1LYS     SC 4325  12.858  10.619  23.142
    1LYS     SC 4326  12.814  10.839  23.365
    1GLU     BB 4327  13.000  10.154  22.681
    1GLU     SC 4328  12.716  10.249  22.571
    1LYS     BB 4329  13.341  10.189  22.578
    1LYS     SC 4330  13.185  10.454  22.460
    1LYS     SC 4331  12.977  10.688  22.402
    1ILE     BB 4332  13.552  10.035  22.761
    1ILE     SC 4333  13.528  10.249  22.993
    1ASN     BB 4334  13.487   9.689  22.836
    1ASN     SC 4335  13.267   9.767  23.001
    1PHE     BB 4336  13.596   9.584  22.583
    1PHE     SC 4337  13.333   9.656  22.430
    1PHE     SC 4338  13.232   9.842  22.336
    1PHE     SC 4339  13.072   9.736  22.420
    1SER     BB 4340  13.764   9.394  22.385
    1SER     SC 4341  13.704   9.167  22.333
    1LEU     BB 4342  14.007   9.411  22.152
    1LEU     SC 4343  14.315   9.437  22.128
    1PHE     BB 4344  13.839   9.294  21.923
    1PHE     SC 4345  13.756   9.039  21.869
    1PHE     SC 4346  13.821   8.966  21.659
    1PHE     SC 4347  13.611   8.962  21.649
    1THR     BB 4348  13.592   9.487  21.963
    1THR     SC 4349  13.418   9.376  22.125
    1LYS     BB 4350  13.754   9.758  21.945
    1LYS     SC 4351  13.840   9.801  22.271
    1LYS     SC 4352  13.847   9.999  22.458
    1ILE     BB 4353  13.880   9.711  21.669
    1ILE     SC 4354  14.155   9.613  21.686
    1ASN     BB 4355  13.619   9.644  21.506
    1ASN     SC 4356  13.639   9.319  21.489
    1PHE     BB 4357  13.465   9.915  21.566
    1PHE     SC 4358  13.344  10.012  21.795
    1PHE     SC 4359  13.127  10.077  21.737
    1PHE     SC 4360  13.216  10.254  21.807
    1TRP     BB 4361  13.683  10.120  21.457
    1TRP     SC 4362  13.743  10.267  21.722
    1TRP     SC 4363  13.695  10.294  21.926
    1TRP     SC 4364  13.628  10.530  21.689
    1TRP     SC 4365  13.578  10.566  21.893
    1VAL     BB 4366  13.764   9.982  21.179
    1VAL     SC 4367  13.966   9.824  21.208
    1TYR     BB 4368  13.490   9.973  21.030
    1TYR     SC 4369  13.294   9.845  21.181
    1TYR     SC 4370  13.082   9.920  21.114
    1TYR     SC 4371  13.025  10.003  21.328
    1LEU     BB 4372  13.431  10.280  21.044
    1LEU     SC 4373  13.327  10.444  21.297
    1VAL     BB 4374  13.693  10.393  20.905
    1VAL     SC 4375  13.865  10.479  21.081
    1LEU     BB 4376  13.674  10.211  20.642
    1LEU     SC 4377  13.855   9.966  20.577
    1PHE     BB 4378  13.359  10.339  20.625
    1PHE     SC 4379  13.251  10.070  20.627
    1PHE     SC 4380  13.111   9.917  20.726
    1PHE     SC 4381  13.193   9.809  20.566
    1ILE     BB 4382  13.496  10.634  20.551
    1ILE     SC 4383  13.431  10.753  20.830
    1PHE     BB 4384  13.704  10.589  20.332
    1PHE     SC 4385  13.956  10.481  20.328
    1PHE     SC 4386  14.108  10.641  20.251
    1PHE     SC 4387  14.123  10.485  20.111
    1GLY     BB 4388  13.517  10.454  20.126
    1PRO     BB 4389  13.302  10.691  20.062
    1PRO     SC 4390  13.201  10.576  20.272
    1LEU     BB 4391  13.532  10.881  19.980
    1LEU     SC 4392  13.642  11.102  20.190
    1ALA     BB 4393  13.674  10.669  19.760
    1VAL     BB 4394  13.378  10.648  19.584
    1VAL     SC 4395  13.264  10.423  19.635
    1PHE     BB 4396  13.333  10.929  19.544
    1PHE     SC 4397  13.134  11.112  19.709
    1PHE     SC 4398  13.188  11.338  19.698
    1PHE     SC 4399  12.978  11.335  19.706
    1ALA     BB 4400  13.662  11.040  19.484
    1THR     BB 4401  13.585  10.833  19.182
    1THR     SC 4402  13.758  10.649  19.231
    1GLU     BB 4403  13.241  10.819  19.134
    1GLU     SC 4404  13.227  10.421  19.217
    1TYR     BB 4405  13.170  11.140  19.064
    1TYR     SC 4406  13.392  11.252  19.201
    1TYR     SC 4407  13.428  11.432  19.060
    1TYR     SC 4408  13.662  11.413  19.073
    1SER     BB 4409  13.256  11.129  18.711
    1SER     SC 4410  13.382  11.309  18.749
    1ASN     BB 4411  13.041  10.893  18.589
    1ASN     SC 4412  13.187  10.631  18.557
    1TYR     BB 4413  12.778  10.834  18.383
    1TYR     SC 4414  12.693  10.910  18.145
    1TYR     SC 4415  12.536  11.082  18.136
    1TYR     SC 4416  12.360  10.939  18.072
    1ASN     BB 4417  12.684  10.534  18.477
    1ASN     SC 4418  12.905  10.446  18.245
    1ASN     BB 4419  12.693  10.643  18.795
    1ASN     SC 4420  12.706  10.293  18.800
    1SER     BB 4421  12.543  10.826  19.020
    1SER     SC 4422  12.735  10.703  19.210
    1LEU     BB 4423  12.635  11.164  19.152
    1LEU     SC 4424  12.384  11.383  19.000
    1ILE     BB 4425  12.697  11.541  19.129
    1ILE     SC 4426  12.947  11.476  19.259
    1PHE     BB 4427  12.614  11.836  19.346
    1PHE     SC 4428  12.352  11.901  19.303
    1PHE     SC 4429  12.214  11.911  19.117
    1PHE     SC 4430  12.192  12.098  19.208
    1TYR     BB 4431  13.036  12.048  19.067
    1TYR     SC 4432  13.298  11.872  19.122
    1TYR     SC 4433  13.500  11.799  19.036
    1TYR     SC 4434  13.593  11.749  19.247
    1TYR     BB 4435  13.064  12.232  18.750
    1TYR     SC 4436  13.161  12.477  18.877
    1TYR     SC 4437  13.334  12.516  19.028
    1TYR     SC 4438  13.216  12.681  19.147
    1ASP     BB 4439  12.940  11.979  18.579
    1ASP     SC 4440  13.127  11.771  18.694
    1GLU     BB 4441  12.636  12.020  18.644
    1GLU     SC 4442  12.438  12.104  18.860
    1ASN     BB 4443  12.651  12.259  18.446
    1ASN     SC 4444  12.475  12.512  18.475
    1PHE     BB 4445  12.516  12.062  18.174
    1PHE     SC 4446  12.755  12.125  17.974
    1PHE     SC 4447  12.656  12.154  17.765
    1PHE     SC 4448  12.819  12.027  17.727
    1THR     BB 4449  12.708  11.776  18.218
    1THR     SC 4450  12.723  11.670  17.986
    1VAL     BB 4451  12.618  11.551  18.401
    1VAL     SC 4452  12.512  11.636  18.636
    1LEU     BB 4453  12.732  11.265  18.455
    1LEU     SC 4454  13.070  11.316  18.362
    1ASN     BB 4455  12.629  11.143  18.678
    1ASN     SC 4456  12.874  11.016  18.895
    1ALA     BB 4457  12.255  11.011  18.719
    1LYS     BB 4458  12.098  11.200  19.029
    1LYS     SC 4459  12.154  10.881  19.112
    1LYS     SC 4460  12.165  10.659  18.933
    1SER     BB 4461  12.080  11.292  19.366
    1SER     SC 4462  11.857  11.340  19.444
    1ASN     BB 4463  12.268  11.402  19.633
    1ASN     SC 4464  12.448  11.635  19.670
    1THR     BB 4465  12.134  11.205  19.841
    1THR     SC 4466  11.940  11.335  19.960
    1VAL     BB 4467  12.167  10.949  19.656
    1VAL     SC 4468  11.964  10.921  19.505
    1VAL     BB 4469  12.477  10.952  19.643
    1VAL     SC 4470  12.566  11.141  19.493
    1PHE     BB 4471  12.513  10.872  19.941
    1PHE     SC 4472  12.479  11.002  20.177
    1PHE     SC 4473  12.687  11.002  20.282
    1PHE     SC 4474  12.563  10.895  20.413
    1MET     BB 4475  12.377  10.593  19.900
    1MET     SC 4476  12.089  10.696  20.113
    1ASP     BB 4477  12.568  10.481  19.676
    1ASP     SC 4478  12.380  10.560  19.402
    1ILE     BB 4479  12.843  10.516  19.830
    1ILE     SC 4480  12.910  10.803  19.828
    1LEU     BB 4481  12.771  10.367  20.098
    1LEU     SC 4482  12.653  10.487  20.359
    1PHE     BB 4483  12.705  10.085  19.975
    1PHE     SC 4484  12.473   9.979  19.911
    1PHE     SC 4485  12.296   9.890  20.032
    1PHE     SC 4486  12.374   9.725  19.930
    1ASN     BB 4487  12.961  10.002  19.789
    1ASN     SC 4488  13.013  10.045  19.500
    1THR     BB 4489  13.178  10.006  20.040
    1THR     SC 4490  13.176  10.254  20.057
    1THR     BB 4491  13.025   9.800  20.226
    1THR     SC 4492  12.874   9.997  20.338
    1ALA     BB 4493  12.908   9.562  20.006
    1SER     BB 4494  13.235   9.428  19.973
    1SER     SC 4495  13.350   9.637  19.935
    1ARG     BB 4496  13.221   9.349  20.305
    1ARG     SC 4497  13.468   9.482  20.385
    1ARG     SC 4498  13.504   9.700  20.643
    1ASN     BB 4499  13.042   9.064  20.193
    1ASN     SC 4500  13.339   8.983  20.294
    1ALA     BB 4501  12.724   9.154  20.096
    1GLY     BB 4502  12.688   9.169  19.721
    1PHE     BB 4503  12.526   9.416  19.655
    1PHE     SC 4504  12.314   9.325  19.878
    1PHE     SC 4505  12.184   9.136  19.842
    1PHE     SC 4506  12.226   9.130  20.048
    1SER     BB 4507  12.369   9.618  19.383
    1SER     SC 4508  12.478   9.568  19.167
    1THR     BB 4509  12.351   9.970  19.347
    1THR     SC 4510  12.332  10.030  19.600
    1ILE     BB 4511  12.579   9.963  19.132
    1ILE     SC 4512  12.657  10.240  19.228
    1ASP     BB 4513  12.764   9.921  18.859
    1ASP     SC 4514  12.727   9.815  18.576
    1ILE     BB 4515  13.072   9.733  18.818
    1ILE     SC 4516  13.051   9.633  19.084
    1SER     BB 4517  13.160   9.769  18.520
    1SER     SC 4518  13.051   9.645  18.329
    1THR     BB 4519  13.143  10.112  18.459
    1THR     SC 4520  12.919  10.073  18.365
    1PHE     BB 4521  13.386  10.185  18.605
    1PHE     SC 4522  13.242  10.184  18.883
    1PHE     SC 4523  13.157  10.034  19.036
    1PHE     SC 4524  13.022  10.195  19.042
    1ASN     BB 4525  13.653  10.298  18.728
    1ASN     SC 4526  13.823  10.575  18.725
    1SER     BB 4527  13.957  10.132  18.776
    1SER     SC 4528  14.053  10.157  18.539
    1GLY     BB 4529  14.020  10.252  19.058
    1SER     BB 4530  13.765  10.145  19.216
    1SER     SC 4531  13.558  10.272  19.145
    1LYS     BB 4532  13.813   9.844  19.149
    1LYS     SC 4533  13.624   9.827  18.867
    1LYS     SC 4534  13.579   9.818  18.570
    1ALA     BB 4535  14.116   9.856  19.275
    1ILE     BB 4536  13.977   9.929  19.587
    1ILE     SC 4537  14.009  10.170  19.681
    1LEU     BB 4538  13.767   9.695  19.603
    1LEU     SC 4539  13.481   9.844  19.489
    1SER     BB 4540  13.978   9.460  19.604
    1SER     SC 4541  14.091   9.374  19.395
    1ILE     BB 4542  14.108   9.526  19.885
    1ILE     SC 4543  14.323   9.660  19.923
    1LEU     BB 4544  13.815   9.564  20.038
    1LEU     SC 4545  13.681   9.837  20.068
    1MET     BB 4546  13.750   9.230  19.962
    1MET     SC 4547  13.584   9.259  19.609
    1PHE     BB 4548  13.989   9.089  20.082
    1PHE     SC 4549  14.232   9.025  19.970
    1PHE     SC 4550  14.442   9.045  20.070
    1PHE     SC 4551  14.420   8.838  20.041
    1ILE     BB 4552  13.894   9.247  20.318
    1ILE     SC 4553  14.100   9.442  20.412
    1GLY     BB 4554  13.701   9.146  20.542
    1SER     BB 4555  13.431   9.099  20.783
    1SER     SC 4556  13.292   9.318  20.791
    1ALA     BB 4557  13.529   8.966  21.053
    1PRO     BB 4558  13.628   8.630  21.218
    1PRO     SC 4559  13.814   8.783  21.263
    1SER     BB 4560  13.350   8.477  21.317
    1SER     SC 4561  13.235   8.700  21.355
    1SER     BB 4562  13.157   8.447  21.047
    1SER     SC 4563  13.330   8.616  20.955
    1THR     BB 4564  12.985   8.497  20.764
    1THR     SC 4565  12.817   8.689  20.816
    1ALA     BB 4566  13.225   8.623  20.571
    1GLY     BB 4567  13.569   8.567  20.435
    1GLY     BB 4568  13.923   8.539  20.339
    1ILE     BB 4569  14.031   8.784  20.491
    1ILE     SC 4570  14.331   8.811  20.482
    1ARG     BB 4571  14.050   8.967  20.783
    1ARG     SC 4572  13.836   8.718  20.821
    1ARG     SC 4573  13.729   8.381  20.709
    1THR     BB 4574  14.046   9.273  20.946
    1THR     SC 4575  13.808   9.380  20.917
    1THR     BB 4576  14.250   9.207  21.184
    1THR     SC 4577  14.084   9.104  21.347
    1THR     BB 4578  14.471   9.076  21.005
    1THR     SC 4579  14.374   8.834  20.946
    1PHE     BB 4580  14.541   9.336  20.864
    1PHE     SC 4581  14.403   9.489  20.666
    1PHE     SC 4582  14.564   9.533  20.503
    1PHE     SC 4583  14.482   9.721  20.546
    1GLY     BB 4584  14.598   9.500  21.126
    1VAL     BB 4585  14.825   9.309  21.241
    1VAL     SC 4586  14.732   9.112  21.382
    1LEU     BB 4587  15.012   9.334  20.993
    1LEU     SC 4588  15.012   9.182  20.720
    1LEU     BB 4589  15.028   9.650  20.969
    1LEU     SC 4590  14.834   9.810  20.766
    1LEU     BB 4591  15.114   9.696  21.280
    1LEU     SC 4592  14.824   9.835  21.381
    1SER     BB 4593  15.363   9.521  21.255
    1SER     SC 4594  15.366   9.267  21.281
    1THR     BB 4595  15.515   9.678  21.029
    1THR     SC 4596  15.498   9.564  20.797
    1PHE     BB 4597  15.484   9.956  21.173
    1PHE     SC 4598  15.275  10.127  21.212
    1PHE     SC 4599  15.330  10.337  21.128
    1PHE     SC 4600  15.284  10.374  21.331
    1THR     BB 4601  15.652   9.852  21.409
    1THR     SC 4602  15.501   9.749  21.595
    1ILE     BB 4603  15.926   9.751  21.256
    1ILE     SC 4604  15.862   9.465  21.172
    1ILE     BB 4605  16.013  10.043  21.139
    1ILE     SC 4606  15.806  10.082  20.930
    1LYS     BB 4607  16.070  10.236  21.401
    1LYS     SC 4608  15.750  10.283  21.498
    1LYS     SC 4609  15.530  10.151  21.643
    1ASN     BB 4610  16.139  10.044  21.646
    1ASN     SC 4611  16.147   9.740  21.523
    1GLN     BB 4612  15.923   9.823  21.826
    1GLN     SC 4613  15.625   9.974  22.031
    1LYS     BB 4614  15.959   9.512  21.973
    1LYS     SC 4615  16.244   9.539  22.127
    1LYS     SC 4616  16.533   9.509  22.246
    1PHE     BB 4617  15.636   9.527  22.021
    1PHE     SC 4618  15.693   9.283  22.224
    1PHE     SC 4619  15.901   9.293  22.331
    1PHE     SC 4620  15.869   9.088  22.299
    1THR     BB 4621  15.311   9.470  21.924
    1THR     SC 4622  15.333   9.347  21.703
    1SER     BB 4623  15.071   9.753  21.936
    1SER     SC 4624  15.122   9.794  22.192
    1ALA     BB 4625  14.716   9.802  22.016
    1PHE     BB 4626  14.566  10.042  22.263
    1PHE     SC 4627  14.303  10.046  22.157
    1PHE     SC 4628  14.192   9.978  21.963
    1PHE     SC 4629  14.111  10.167  22.005
    1ARG     BB 4630  14.800   9.958  22.482
    1ARG     SC 4631  14.847  10.267  22.550
    1ARG     SC 4632  14.919  10.583  22.461
    1LYS     BB 4633  14.817   9.658  22.370
    1LYS     SC 4634  14.561   9.698  22.574
    1LYS     SC 4635  14.440   9.848  22.789
    1THR     BB 4636  14.960   9.342  22.325
    1THR     SC 4637  15.228   9.409  22.366
    1ILE     BB 4638  15.065   9.129  22.062
    1ILE     SC 4639  14.855   9.224  21.853
    1PRO     BB 4640  15.120   8.817  22.009
    1PRO     SC 4641  14.990   8.786  22.221
    1SER     BB 4642  15.324   8.613  21.806
    1SER     SC 4643  15.567   8.584  21.822
    1GLU     BB 4644  15.112   8.398  21.717
    1GLU     SC 4645  14.958   8.243  22.042
    1THR     BB 4646  14.915   8.603  21.575
    1THR     SC 4647  14.753   8.703  21.753
    1VAL     BB 4648  15.120   8.704  21.368
    1VAL     SC 4649  15.271   8.896  21.475
    1ASN     BB 4650  15.182   8.425  21.230
    1ASN     SC 4651  15.491   8.380  21.335
    1ARG     BB 4652  14.882   8.353  21.164
    1ARG     SC 4653  14.769   8.181  21.430
    1ARG     SC 4654  14.707   8.222  21.750
    1SER     BB 4655  14.833   8.611  20.989
    1SER     SC 4656  14.793   8.838  21.084
    1TYR     BB 4657  15.054   8.547  20.776
    1TYR     SC 4658  15.269   8.731  20.868
    1TYR     SC 4659  15.399   8.814  21.042
    1TYR     SC 4660  15.401   9.035  20.959
    1ALA     BB 4661  14.945   8.251  20.714
    1ALA     BB 4662  14.636   8.397  20.627
    1PHE     BB 4663  14.785   8.593  20.383
    1PHE     SC 4664  14.887   8.838  20.403
    1PHE     SC 4665  14.778   9.041  20.375
    1PHE     SC 4666  14.907   9.032  20.211
    1PHE     BB 4667  14.942   8.395  20.202
    1PHE     SC 4668  15.173   8.255  20.228
    1PHE     SC 4669  15.254   8.298  20.015
    1PHE     SC 4670  15.219   8.090  20.017
    1ILE     BB 4671  14.721   8.184  20.120
    1ILE     SC 4672  14.733   7.965  20.340
    1SER     BB 4673  14.513   8.390  20.004
    1SER     SC 4674  14.448   8.523  20.210
    1THR     BB 4675  14.702   8.526  19.792
    1THR     SC 4676  14.829   8.732  19.893
    1PHE     BB 4677  14.789   8.263  19.643
    1PHE     SC 4678  15.042   8.139  19.691
    1PHE     SC 4679  15.032   7.927  19.596
    1PHE     SC 4680  15.211   8.006  19.522
    1LEU     BB 4681  14.503   8.161  19.559
    1LEU     SC 4682  14.433   7.934  19.799
    1ILE     BB 4683  14.442   8.417  19.395
    1ILE     SC 4684  14.302   8.626  19.574
    1PHE     BB 4685  14.685   8.390  19.201
    1PHE     SC 4686  14.937   8.496  19.209
    1PHE     SC 4687  15.057   8.324  19.109
    1PHE     SC 4688  15.079   8.487  18.978
    1ILE     BB 4689  14.620   8.103  19.090
    1ILE     SC 4690  14.782   7.912  19.220
    1ALA     BB 4691  14.315   8.183  19.024
    1LEU     BB 4692  14.430   8.395  18.789
    1LEU     SC 4693  14.408   8.684  18.968
    1PHE     BB 4694  14.619   8.210  18.623
    1PHE     SC 4695  14.858   8.089  18.685
    1PHE     SC 4696  15.009   8.128  18.511
    1PHE     SC 4697  14.990   7.919  18.515
    1ILE     BB 4698  14.397   8.005  18.547
    1ILE     SC 4699  14.369   7.796  18.777
    1ILE     BB 4700  14.182   8.197  18.402
    1ILE     SC 4701  13.972   8.216  18.572
    1TYR     BB 4702  14.389   8.284  18.163
    1TYR     SC 4703  14.447   8.543  18.277
    1TYR     SC 4704  14.528   8.641  18.471
    1TYR     SC 4705  14.357   8.801  18.477
    1VAL     BB 4706  14.361   7.983  18.059
    1VAL     SC 4707  14.594   7.879  18.132
    1ASP     BB 4708  14.048   7.898  18.074
    1ASP     SC 4709  14.050   7.759  18.383
    1SER     BB 4710  13.926   8.127  17.885
    1SER     SC 4711  14.002   8.343  17.990
    1ASN     BB 4712  14.133   8.016  17.655
    1ASN     SC 4713  14.283   8.304  17.645
    1SER     BB 4714  13.999   7.758  17.498
    1SER     SC 4715  13.761   7.832  17.497
    1VAL     BB 4716  14.120   7.876  17.196
    1VAL     SC 4717  13.934   7.765  17.067
    1PHE     BB 4718  14.432   7.976  17.205
    1PHE     SC 4719  14.578   8.017  17.421
    1PHE     SC 4720  14.784   7.930  17.470
    1PHE     SC 4721  14.824   8.133  17.443
    1THR     BB 4722  14.352   8.037  16.743
    1THR     SC 4723  14.196   7.855  16.717
    1LEU     BB 4724  14.290   8.325  16.878
    1LEU     SC 4725  14.606   8.397  16.817
    1LYS     BB 4726  14.026   8.354  17.034
    1LYS     SC 4727  13.801   8.161  16.953
    1LYS     SC 4728  13.536   8.149  16.776
    1ASN     BB 4729  13.732   8.569  17.127
    1ASN     SC 4730  13.586   8.594  16.901
    1ASN     BB 4731  13.900   8.657  17.597
    1ASN     SC 4732  14.217   8.670  17.620
    1SER     BB 4733  13.927   8.791  17.904
    1SER     SC 4734  13.837   8.652  18.080
    1ALA     BB 4735  13.902   9.098  18.066
    1SER     BB 4736  14.144   9.122  18.333
    1SER     SC 4737  14.390   9.127  18.308
    1ILE     BB 4738  13.988   9.298  18.547
    1ILE     SC 4739  13.998   9.544  18.564
    1ASN     BB 4740  13.756   9.105  18.573
    1ASN     SC 4741  13.575   9.258  18.328
    1THR     BB 4742  13.914   8.854  18.678
    1THR     SC 4743  14.008   8.705  18.482
    1ILE     BB 4744  14.019   8.999  18.935
    1ILE     SC 4745  14.267   9.163  18.853
    1LEU     BB 4746  13.737   9.051  19.065
    1LEU     SC 4747  13.699   9.374  18.964
    1LEU     BB 4748  13.629   8.756  19.050
    1LEU     SC 4749  13.476   8.774  18.746
    1ILE     BB 4750  13.839   8.618  19.239
    1ILE     SC 4751  14.019   8.483  19.081
    1THR     BB 4752  13.821   8.807  19.491
    1THR     SC 4753  14.001   9.000  19.471
    1SER     BB 4754  13.512   8.762  19.523
    1SER     SC 4755  13.340   8.884  19.396
    1ALA     BB 4756  13.514   8.435  19.512
    1PHE     BB 4757  13.718   8.433  19.790
    1PHE     SC 4758  13.976   8.436  19.795
    1PHE     SC 4759  14.081   8.236  19.849
    1PHE     SC 4760  14.116   8.360  20.014
    1GLY     BB 4761  13.578   8.672  19.983
    1THR     BB 4762  13.267   8.627  19.965
    1THR     SC 4763  13.302   8.408  20.082
    1VAL     BB 4764  13.097   8.868  19.793
    1VAL     SC 4765  13.310   9.016  19.780
    1GLY     BB 4766  12.939   8.889  19.465
    1LEU     BB 4767  13.074   9.071  19.296
    1LEU     SC 4768  12.990   9.354  19.462
    1SER     BB 4769  13.055   9.189  18.960
    1SER     SC 4770  12.969   8.971  18.894
    1PRO     BB 4771  13.062   9.349  18.672
    1PRO     SC 4772  13.301   9.259  18.652
    1LEU     BB 4773  12.817   9.185  18.555
    1LEU     SC 4774  12.974   9.021  18.307
    1ALA     BB 4775  12.517   9.328  18.539
    1PHE     BB 4776  12.430   8.798  18.501
    1PHE     SC 4777  12.347   8.793  18.226
    1PHE     SC 4778  12.271   8.947  18.070
    1PHE     SC 4779  12.144   8.782  18.045
    1GLN     BB 4780  12.702   8.789  18.603
    1GLN     SC 4781  12.541   8.812  19.021
    1MET     BB 4782  12.874   8.469  18.579
    1MET     SC 4783  13.156   8.522  18.856
    1TYR     BB 4784  12.775   8.351  18.287
    1TYR     SC 4785  12.526   8.357  18.209
    1TYR     SC 4786  12.432   8.409  18.004
    1TYR     SC 4787  12.369   8.188  17.956
    1GLN     BB 4788  13.062   8.371  18.093
    1GLN     SC 4789  12.881   8.597  17.900
    1LEU     BB 4790  13.169   8.106  18.190
    1LEU     SC 4791  13.238   8.213  18.509
    1GLY     BB 4792  13.333   7.838  18.164
    1VAL     BB 4793  13.344   7.512  18.264
    1VAL     SC 4794  13.257   7.370  18.056
    1VAL     BB 4795  13.624   7.531  18.415
    1VAL     SC 4796  13.805   7.411  18.269
    1THR     BB 4797  13.580   7.820  18.544
    1THR     SC 4798  13.611   7.991  18.345
    1LYS     BB 4799  13.358   7.719  18.738
    1LYS     SC 4800  13.075   7.751  18.549
    1LYS     SC 4801  12.901   7.693  18.303
    1ILE     BB 4802  13.531   7.507  18.901
    1ILE     SC 4803  13.535   7.246  18.734
    1SER     BB 4804  13.755   7.694  19.015
    1SER     SC 4805  13.878   7.753  18.791
    1LEU     BB 4806  13.552   7.884  19.166
    1LEU     SC 4807  13.525   8.134  18.948
    1ILE     BB 4808  13.424   7.670  19.354
    1ILE     SC 4809  13.212   7.514  19.191
    1LEU     BB 4810  13.693   7.629  19.504
    1LEU     SC 4811  13.930   7.438  19.434
    1ILE     BB 4812  13.746   7.929  19.592
    1ILE     SC 4813  13.885   8.052  19.347
    1MET     BB 4814  13.478   7.962  19.757
    1MET     SC 4815  13.197   8.036  19.459
    1PHE     BB 4816  13.531   7.727  19.952
    1PHE     SC 4817  13.458   7.450  19.900
    1PHE     SC 4818  13.618   7.350  20.034
    1PHE     SC 4819  13.441   7.250  20.084
    1ILE     BB 4820  13.812   7.819  20.070
    1ILE     SC 4821  14.031   7.686  19.896
    1GLY     BB 4822  13.735   8.101  20.167
    1GLN     BB 4823  13.499   8.039  20.372
    1GLN     SC 4824  13.200   8.150  20.381
    1LEU     BB 4825  13.645   7.798  20.547
    1LEU     SC 4826  13.573   7.503  20.492
    1GLY     BB 4827  13.935   7.865  20.544
    1VAL     BB 4828  14.260   7.824  20.464
    1VAL     SC 4829  14.321   8.060  20.366
    1SER     BB 4830  14.376   7.668  20.710
    1SER     SC 4831  14.466   7.894  20.841
    1ASN     BB 4832  14.145   7.459  20.729
    1ASN     SC 4833  13.987   7.607  20.985
    1THR     BB 4834  14.178   7.355  20.431
    1THR     SC 4835  14.049   7.498  20.260
    1LEU     BB 4836  14.460   7.243  20.484
    1LEU     SC 4837  14.660   7.482  20.341
    1LEU     BB 4838  14.428   7.073  20.777
    1LEU     SC 4839  14.501   7.307  20.998
    1ILE     BB 4840  14.299   6.814  20.631
    1ILE     SC 4841  14.047   6.941  20.540
    1PHE     BB 4842  14.600   6.742  20.453
    1PHE     SC 4843  14.554   6.831  20.215
    1PHE     SC 4844  14.421   7.015  20.163
    1PHE     SC 4845  14.608   7.062  20.081
    1LEU     BB 4846  14.772   6.761  20.685
    1LEU     SC 4847  14.862   7.108  20.625
    1LYS     BB 4848  15.067   6.702  20.937
    1LYS     SC 4849  15.094   6.470  20.714
    1LYS     SC 4850  15.126   6.271  20.465
    1PRO     BB 4851  15.090   6.747  21.294
    1PRO     SC 4852  14.876   6.837  21.221
    1ALA     BB 4853  15.232   6.450  21.357
    1ARG     BB 4854  15.524   6.665  21.269
    1ARG     SC 4855  15.513   6.568  20.971
    1ARG     SC 4856  15.429   6.734  20.691
    1ASP     BB 4857  15.627   6.756  21.524
    1ASP     SC 4858  15.543   6.987  21.735
    1LYS     BB 4859  15.942   6.919  21.619
    1LYS     SC 4860  16.029   6.845  21.308
    1LYS     SC 4861  16.131   6.797  21.013
    1ALA     BB 4862  16.112   6.882  21.933
    1TYR     BB 4863  16.347   7.002  21.756
    1TYR     SC 4864  16.436   6.778  21.611
    1TYR     SC 4865  16.409   6.876  21.403
    1TYR     SC 4866  16.340   6.675  21.301
    1LYS     BB 4867  16.624   7.194  21.684
    1LYS     SC 4868  16.517   7.440  21.903
    1LYS     SC 4869  16.471   7.632  22.145
    1TYR     BB 4870  16.818   7.443  21.526
    1TYR     SC 4871  16.792   7.204  21.288
    1TYR     SC 4872  16.576   7.160  21.215
    1TYR     SC 4873  16.629   6.944  21.135
    1LEU     BB 4874  17.057   7.640  21.400
    1LEU     SC 4875  17.294   7.405  21.515
    1GLU     BB 4876  17.177   7.959  21.334
    1GLU     SC 4877  17.130   8.206  21.658
    1GLU     BB 4878  17.077   8.168  21.046
    1GLU     SC 4879  17.211   7.859  20.922
    1ASP     BB 4880  17.209   8.347  20.775
    1ASP     SC 4881  17.379   8.610  20.864
    1ILE     BB 4882  16.962   8.566  20.593
    1ILE     SC 4883  16.825   8.341  20.477
    1THR     BB 4884  16.903   8.772  20.356
    1THR     SC 4885  17.119   8.932  20.322
    1ILE     BB 4886  16.604   9.019  20.275
    1ILE     SC 4887  16.505   8.967  20.482
    1GLY     BB 4888  16.678   9.292  20.070
    1LYS     BB 4889  17.172  10.936  20.834
    1LYS     SC 4890  17.045  10.916  21.141
    1LYS     SC 4891  17.098  11.004  21.447
    1THR     BB 4892  17.221  10.632  20.681
    1THR     SC 4893  17.340  10.455  20.842
    1SER     BB 4894  16.955  10.625  20.503
    1SER     SC 4895  16.819  10.460  20.677
    1GLU     BB 4896  16.969  10.929  20.411
    1GLU     SC 4897  16.865  11.097  20.765
    1LYS     BB 4898  17.244  10.903  20.262
    1LYS     SC 4899  17.472  10.953  20.505
    1LYS     SC 4900  17.680  11.033  20.738
    1ILE     BB 4901  17.149  10.703  20.050
    1ILE     SC 4902  17.156  10.413  20.178
    1PHE     BB 4903  16.921  10.887  19.925
    1PHE     SC 4904  16.676  10.960  20.024
    1PHE     SC 4905  16.466  10.917  19.932
    1PHE     SC 4906  16.474  11.126  19.941
    1LEU     BB 4907  17.064  11.172  19.874
    1LEU     SC 4908  16.942  11.348  20.140
    1ILE     BB 4909  17.280  11.055  19.688
    1ILE     SC 4910  17.524  10.988  19.875
    1TYR     BB 4911  17.084  10.913  19.487
    1TYR     SC 4912  16.970  10.650  19.503
    1TYR     SC 4913  17.097  10.468  19.436
    1TYR     SC 4914  16.938  10.390  19.285
    1VAL     BB 4915  16.899  11.160  19.399
    1VAL     SC 4916  16.710  11.216  19.545
    1ALA     BB 4917  17.162  11.344  19.332
    1ILE     BB 4918  17.225  11.140  19.059
    1ILE     SC 4919  17.456  10.962  19.152
    1ILE     BB 4920  16.958  11.177  18.908
    1ILE     SC 4921  16.748  10.975  19.009
    1LEU     BB 4922  16.984  11.488  18.877
    1LEU     SC 4923  16.872  11.714  19.057
    1LEU     BB 4924  17.266  11.481  18.742
    1LEU     SC 4925  17.549  11.464  18.876
    1GLY     BB 4926  17.173  11.284  18.506
    1GLY     BB 4927  16.933  11.474  18.404
    1LEU     BB 4928  17.114  11.718  18.345
    1LEU     SC 4929  17.047  11.921  18.608
    1LEU     BB 4930  17.304  11.565  18.160
    1LEU     SC 4931  17.581  11.475  18.343
    1LEU     BB 4932  17.072  11.445  17.952
    1LEU     SC 4933  17.088  11.125  18.030
    1SER     BB 4934  16.982  11.759  17.872
    1SER     SC 4935  16.871  11.833  18.064
    1ILE     BB 4936  17.237  11.809  17.724
    1ILE     SC 4937  17.460  11.898  17.931
    1PRO     BB 4938  17.308  11.878  17.391
    1PRO     SC 4939  17.278  12.122  17.484
    1ASN     BB 4940  17.544  11.651  17.335
    1ASN     SC 4941  17.784  11.858  17.440
    1PHE     BB 4942  17.343  11.393  17.411
    1PHE     SC 4943  17.521  11.408  17.647
    1PHE     SC 4944  17.558  11.427  17.871
    1PHE     SC 4945  17.746  11.468  17.791
    1SER     BB 4946  17.088  11.509  17.210
    1SER     SC 4947  16.973  11.538  17.437
    1LEU     BB 4948  17.153  11.321  16.943
    1LEU     SC 4949  17.349  11.616  16.915
    1THR     BB 4950  17.234  11.194  16.670
    1THR     SC 4951  17.063  11.226  16.470
    1LYS     BB 4952  17.478  10.995  16.501
    1LYS     SC 4953  17.391  10.691  16.571
    1LYS     SC 4954  17.280  10.409  16.667
    1SER     BB 4955  17.505  11.286  16.308
    1SER     SC 4956  17.353  11.214  16.151
    1GLY     BB 4957  17.427  11.554  16.507
    1SER     BB 4958  17.127  11.587  16.527
    1SER     SC 4959  16.979  11.636  16.311
    1LYS     BB 4960  16.868  11.736  16.679
    1LYS     SC 4961  16.982  12.038  16.772
    1LYS     SC 4962  17.096  12.333  16.819
    1TYR     BB 4963  16.716  11.629  16.997
    1TYR     SC 4964  16.587  11.370  16.954
    1TYR     SC 4965  16.400  11.330  16.819
    1TYR     SC 4966  16.291  11.202  16.986
    1ASN     BB 4967  16.463  11.709  17.198
    1ASN     SC 4968  16.475  12.031  17.292
    1TRP     BB 4969  16.394  11.726  17.570
    1TRP     SC 4970  16.552  11.435  17.561
    1TRP     SC 4971  16.658  11.322  17.419
    1TRP     SC 4972  16.492  11.181  17.679
    1TRP     SC 4973  16.600  11.059  17.542
    1ASP     BB 4974  16.216  11.680  17.829
    1ASP     SC 4975  15.918  11.559  17.713
    1PHE     BB 4976  16.202  11.716  18.164
    1PHE     SC 4977  16.091  11.904  18.342
    1PHE     SC 4978  16.249  11.999  18.483
    1PHE     SC 4979  16.108  11.916  18.614
    1LEU     BB 4980  16.071  11.431  18.246
    1LEU     SC 4981  15.761  11.527  18.332
    1THR     BB 4982  16.245  11.241  18.058
    1THR     SC 4983  16.119  11.288  17.837
    1GLY     BB 4984  16.530  11.299  18.167
    1ILE     BB 4985  16.448  11.195  18.451
    1ILE     SC 4986  16.335  11.437  18.610
    1PHE     BB 4987  16.346  10.907  18.369
    1PHE     SC 4988  16.120  10.807  18.263
    1PHE     SC 4989  15.920  10.726  18.352
    1PHE     SC 4990  16.009  10.555  18.269
    1ILE     BB 4991  16.610  10.795  18.235
    1ILE     SC 4992  16.549  10.787  17.958
    1ALA     BB 4993  16.810  10.894  18.471
    1SER     BB 4994  16.638  10.685  18.677
    1SER     SC 4995  16.443  10.762  18.811
    1SER     BB 4996  16.645  10.418  18.511
    1SER     SC 4997  16.480  10.358  18.338
    1GLY     BB 4998  16.967  10.405  18.495
    1PHE     BB 4999  17.013  10.436  18.830
    1PHE     SC 5000  17.168  10.618  18.922
    1PHE     SC 5001  17.121  10.687  19.137
    1PHE     SC 5002  17.312  10.604  19.155
    1SER     BB 5003  16.780  10.202  18.899
    1SER     SC 5004  16.620  10.380  19.002
    1ASP     BB 5005  16.798   9.965  18.688
    1ASP     SC 5006  17.118   9.970  18.739
    1THR     BB 5007  16.516   9.929  18.509
    1THR     SC 5008  16.364  10.091  18.645
    1GLY     BB 5009  16.468   9.990  18.161
    1LEU     BB 5010  16.268  10.199  18.126
    1LEU     SC 5011  15.994  10.066  18.292
    1THR     BB 5012  16.137  10.389  17.829
    1THR     SC 5013  16.376  10.333  17.754
    1VAL     BB 5014  16.014  10.695  17.683
    1VAL     SC 5015  15.901  10.821  17.869
    1LEU     BB 5016  16.286  10.713  17.529
    1LEU     SC 5017  16.191  11.044  17.456
    1ASP     BB 5018  16.526  10.643  17.336
    1ASP     SC 5019  16.550  10.455  17.091
    1VAL     BB 5020  16.876  10.530  17.293
    1VAL     SC 5021  16.887  10.372  17.502
    1SER     BB 5022  16.995  10.518  16.991
    1SER     SC 5023  17.009  10.302  16.856
    1SER     BB 5024  16.834  11.006  17.121
    1SER     SC 5025  16.578  10.954  17.106
    1TYR     BB 5026  17.143  10.927  17.185
    1TYR     SC 5027  17.068  10.967  17.488
    1TYR     SC 5028  16.888  10.883  17.608
    1TYR     SC 5029  16.864  11.076  17.742
    1THR     BB 5030  17.451  11.001  17.216
    1THR     SC 5031  17.522  11.244  17.110
    1PHE     BB 5032  17.743  10.848  17.292
    1PHE     SC 5033  17.992  10.830  17.171
    1PHE     SC 5034  18.086  10.622  17.209
    1PHE     SC 5035  18.224  10.755  17.294
    1TRP     BB 5036  17.773  11.035  17.552
    1TRP     SC 5037  17.977  11.244  17.448
    1TRP     SC 5038  18.106  11.321  17.300
    1TRP     SC 5039  18.215  11.215  17.605
    1TRP     SC 5040  18.354  11.295  17.465
    1GLY     BB 5041  17.482  10.958  17.672
    1GLN     BB 5042  17.543  10.656  17.676
    1GLN     SC 5043  17.446  10.568  17.267
    1LEU     BB 5044  17.774  10.693  17.886
    1LEU     SC 5045  18.078  10.724  17.838
    1ILE     BB 5046  17.587  10.806  18.109
    1ILE     SC 5047  17.599  11.089  18.104
    1LEU     BB 5048  17.416  10.550  18.125
    1LEU     SC 5049  17.158  10.614  17.907
    1LEU     BB 5050  17.658  10.373  18.216
    1LEU     SC 5051  17.773  10.230  17.939
    1LEU     BB 5052  17.727  10.536  18.478
    1LEU     SC 5053  17.970  10.750  18.367
    1LEU     BB 5054  17.451  10.492  18.610
    1LEU     SC 5055  17.301  10.792  18.531
    1ILE     BB 5056  17.452  10.177  18.596
    1ILE     SC 5057  17.326  10.101  18.321
    1GLU     BB 5058  17.722  10.146  18.750
    1GLU     SC 5059  18.010  10.027  18.638
    1PHE     BB 5060  17.629  10.297  19.014
    1PHE     SC 5061  17.784  10.546  18.947
    1PHE     SC 5062  17.804  10.760  18.862
    1PHE     SC 5063  18.003  10.692  18.871
    1GLY     BB 5064  17.358  10.131  19.075
    1GLY     BB 5065  17.443   9.803  19.053
    1ILE     BB 5066  17.678   9.852  19.294
    1ILE     SC 5067  17.908   9.831  19.093
    1GLY     BB 5068  17.630  10.098  19.440
    1VAL     BB 5069  17.687  10.418  19.557
    1VAL     SC 5070  17.495  10.572  19.566
    1LEU     BB 5071  17.885  10.358  19.807
    1LEU     SC 5072  17.681  10.463  20.048
    1THR     BB 5073  18.098  10.197  19.655
    1THR     SC 5074  18.009   9.952  19.596
    1PHE     BB 5075  18.215  10.447  19.500
    1PHE     SC 5076  18.070  10.382  19.238
    1PHE     SC 5077  18.225  10.349  19.068
    1PHE     SC 5078  18.085  10.196  19.038
    1LYS     BB 5079  18.280  10.618  19.756
    1LYS     SC 5080  18.075  10.769  19.928
    1LYS     SC 5081  17.997  10.907  20.202
    1ILE     BB 5082  18.483  10.412  19.876
    1ILE     SC 5083  18.354  10.269  20.085
    1VAL     BB 5084  18.670  10.402  19.626
    1VAL     SC 5085  18.598  10.223  19.449
    1LEU     BB 5086  18.742  10.704  19.629
    1LEU     SC 5087  18.582  10.949  19.510
    1PHE     BB 5088  18.862  10.707  19.927
    1PHE     SC 5089  18.634  10.860  20.041
    1PHE     SC 5090  18.459  10.907  20.184
    1PHE     SC 5091  18.469  11.078  20.065
    1LEU     BB 5092  19.074  10.478  19.872
    1LEU     SC 5093  19.019  10.167  19.884
    1ILE     BB 5094  19.227  10.629  19.630
    1ILE     SC 5095  19.099  10.528  19.369
    1ILE     BB 5096  19.296  10.885  19.819
    1ILE     SC 5097  19.054  11.066  19.793
    1ASN     BB 5098  19.420  10.735  20.104
    1ASN     SC 5099  19.641  10.710  19.866
    1LYS     BB 5100  19.215  10.661  20.326
    1LYS     SC 5101  19.065  10.971  20.313
    1LYS     SC 5102  18.934  11.258  20.260
    1LYS     BB 5103  19.098  10.589  20.620
    1LYS     SC 5104  19.352  10.559  20.843
    1LYS     SC 5105  19.434  10.472  21.115
    1ILE     BB 5106  18.854  10.387  20.725
    1ILE     SC 5107  18.773  10.263  20.468
    1SER     BB 5108  18.561  10.447  20.867
    1SER     SC 5109  18.482  10.682  20.881
    1ILE     BB 5110  18.304  10.356  21.067
    1ILE     SC 5111  18.412  10.223  21.292
    1SER     BB 5112  18.087  10.545  20.933
    1SER     SC 5113  18.136  10.762  21.092
    1ASP     BB 5114  18.143  10.412  20.645
    1ASP     SC 5115  18.290  10.694  20.546
    1THR     BB 5116  18.100  10.110  20.730
    1THR     SC 5117  18.323  10.005  20.820
    1ILE     BB 5118  17.798  10.157  20.806
    1ILE     SC 5119  17.792  10.277  21.095
    1VAL     BB 5120  17.710  10.250  20.519
    1VAL     SC 5121  17.733  10.495  20.462
    1ALA     BB 5122  17.856   9.993  20.365
    1GLN     BB 5123  17.636   9.780  20.521
    1GLN     SC 5124  17.620   9.728  20.902
    1SER     BB 5125  17.345   9.892  20.445
    1SER     SC 5126  17.236  10.075  20.577
    1GLU     BB 5127  17.370   9.881  20.128
    1GLU     SC 5128  17.459  10.149  19.917
    1ARG     BB 5129  17.454   9.552  20.151
    1ARG     SC 5130  17.748   9.607  20.029
    1ARG     SC 5131  17.920   9.586  19.740
    1GLY     BB 5132  17.246   9.422  20.374
    1SER     BB 5133  17.399   9.395  20.650
    1SER     SC 5134  17.640   9.294  20.626
    1ALA     BB 5135  17.405   9.235  20.983
    1THR     BB 5136  17.745   9.324  20.945
    1THR     SC 5137  17.847   9.116  21.043
    1THR     BB 5138  18.082   9.490  20.979
    1THR     SC 5139  18.003   9.663  21.138
    1SER     BB 5140  18.240   9.258  20.859
    1SER     SC 5141  18.271   9.040  20.964
    1LEU     BB 5142  18.458   9.335  20.615
    1LEU     SC 5143  18.703   9.164  20.761
    1THR     BB 5144  18.286   9.523  20.392
    1THR     SC 5145  18.108   9.584  20.561
    1ILE     BB 5146  18.524   9.633  20.219
    1ILE     SC 5147  18.569   9.875  20.356
    1ASP     BB 5148  18.606   9.359  20.094
    1ASP     SC 5149  18.842   9.335  20.328
    1LEU     BB 5150  18.331   9.325  19.947
    1LEU     SC 5151  18.073   9.186  20.045
    1ILE     BB 5152  18.387   9.582  19.776
    1ILE     SC 5153  18.288   9.830  19.930
    1LYS     BB 5154  18.652   9.495  19.639
    1LYS     SC 5155  18.890   9.566  19.877
    1LYS     SC 5156  19.070   9.626  20.130
    1ASP     BB 5157  18.560   9.224  19.512
    1ASP     SC 5158  18.728   8.997  19.690
    1GLY     BB 5159  18.307   9.333  19.375
    1PHE     BB 5160  18.450   9.544  19.183
    1PHE     SC 5161  18.472   9.819  19.204
    1PHE     SC 5162  18.681   9.876  19.120
    1PHE     SC 5163  18.548   9.984  18.999
    1ILE     BB 5164  18.670   9.351  19.062
    1ILE     SC 5165  18.920   9.372  19.248
    1TRP     BB 5166  18.470   9.139  18.948
    1TRP     SC 5167  18.519   8.912  19.147
    1TRP     SC 5168  18.607   8.834  19.323
    1TRP     SC 5169  18.735   8.772  19.012
    1TRP     SC 5170  18.839   8.709  19.186
    1LEU     BB 5171  18.304   9.326  18.769
    1LEU     SC 5172  18.051   9.401  18.979
    1THR     BB 5173  18.529   9.454  18.582
    1THR     SC 5174  18.605   9.664  18.717
    1SER     BB 5175  18.646   9.184  18.497
    1SER     SC 5176  18.806   9.043  18.637
    1VAL     BB 5177  18.386   9.053  18.375
    1VAL     SC 5178  18.273   8.877  18.530
    1GLN     BB 5179  18.304   9.287  18.190
    1GLN     SC 5180  18.117   9.563  18.451
    1VAL     BB 5181  18.566   9.286  18.020
    1VAL     SC 5182  18.742   9.457  18.099
    1ILE     BB 5183  18.595   8.975  17.937
    1ILE     SC 5184  18.724   8.827  18.158
    1SER     BB 5185  18.302   8.927  17.835
    1SER     SC 5186  18.123   8.832  17.994
    1ALA     BB 5187  18.241   9.207  17.670
    1PHE     BB 5188  18.515   9.276  17.481
    1PHE     SC 5189  18.709   9.450  17.527
    1PHE     SC 5190  18.701   9.629  17.378
    1PHE     SC 5191  18.880   9.529  17.330
    1ILE     BB 5192  18.563   8.979  17.389
    1ILE     SC 5193  18.831   8.921  17.541
    1LEU     BB 5194  18.274   8.809  17.346
    1LEU     SC 5195  18.354   8.564  17.569
    1PHE     BB 5196  18.135   9.068  17.177
    1PHE     SC 5197  17.912   9.055  17.361
    1PHE     SC 5198  17.863   9.085  17.586
    1PHE     SC 5199  17.752   8.916  17.532
    1PHE     BB 5200  18.404   9.008  16.991
    1PHE     SC 5201  18.605   9.179  16.970
    1PHE     SC 5202  18.603   9.357  16.820
    1PHE     SC 5203  18.778   9.251  16.770
    1LEU     BB 5204  18.267   8.738  16.851
    1LEU     SC 5205  18.463   8.556  17.064
    1PHE     BB 5206  17.962   8.854  16.848
    1PHE     SC 5207  17.921   8.539  16.749
    1PHE     SC 5208  18.047   8.394  16.882
    1PHE     SC 5209  18.041   8.299  16.696
    1PHE     BB 5210  17.671   8.996  16.669
    1PHE     SC 5211  17.785   9.292  16.661
    1PHE     SC 5212  17.844   9.421  16.847
    1PHE     SC 5213  17.728   9.549  16.727
    1PHE     BB 5214  17.359   9.103  16.585
    1PHE     SC 5215  17.348   9.285  16.858
    1PHE     SC 5216  17.270   9.204  17.060
    1PHE     SC 5217  17.441   9.315  17.113
    1ASN     BB 5218  17.176   9.341  16.407
    1ASN     SC 5219  16.903   9.259  16.348
    1GLN     BB 5220  17.078   9.566  16.186
    1GLN     SC 5221  17.302   9.801  16.020
    1PRO     BB 5222  16.914   9.910  16.232
    1PRO     SC 5223  17.048   9.888  16.394
    1SER     BB 5224  16.977   9.967  15.898
    1SER     SC 5225  16.986  10.210  15.912
    1ASN     BB 5226  16.945   9.767  15.698
    1ASN     SC 5227  16.925  10.028  15.466
    1ASN     BB 5228  17.197   9.530  15.509
    1ASN     SC 5229  16.962   9.344  15.632
    1PRO     BB 5230  17.541   9.587  15.497
    1PRO     SC 5231  17.449   9.780  15.590
    1ASN     BB 5232  17.582   9.339  15.691
    1ASN     SC 5233  17.634   9.582  15.903
    1LEU     BB 5234  17.743   9.012  15.607
    1LEU     SC 5235  17.705   9.144  15.307
    1GLU     BB 5236  17.760   8.940  15.919
    1GLU     SC 5237  18.167   9.039  15.860
    1VAL     BB 5238  17.757   8.730  16.243
    1VAL     SC 5239  17.625   8.568  16.117
    1VAL     BB 5240  17.991   8.850  16.353
    1VAL     SC 5241  18.177   8.674  16.256
    1SER     BB 5242  18.228   9.046  16.451
    1SER     SC 5243  18.323   8.976  16.662
    1PRO     BB 5244  18.263   9.367  16.332
    1PRO     SC 5245  18.461   9.337  16.462
    1TYR     BB 5246  18.001   9.440  16.134
    1TYR     SC 5247  17.779   9.313  16.177
    1TYR     SC 5248  17.641   9.182  16.309
    1TYR     SC 5249  17.509   9.367  16.375
    1ASP     BB 5250  18.254   9.794  16.306
    1ASP     SC 5251  18.395  10.057  16.154
    1PHE     BB 5252  18.444   9.943  16.561
    1PHE     SC 5253  18.709   9.816  16.479
    1PHE     SC 5254  18.761   9.756  16.260
    1PHE     SC 5255  18.815   9.588  16.374
    1TRP     BB 5256  18.294  10.204  16.674
    1TRP     SC 5257  18.464  10.429  16.557
    1TRP     SC 5258  18.641  10.489  16.459
    1TRP     SC 5259  18.578  10.565  16.786
    1TRP     SC 5260  18.759  10.630  16.695
    1LYS     BB 5261  18.027  10.036  16.736
    1LYS     SC 5262  17.868  10.211  16.537
    1LYS     SC 5263  17.811  10.525  16.499
    1SER     BB 5264  18.114   9.751  16.850
    1SER     SC 5265  18.176   9.553  16.706
    1LEU     BB 5266  18.288   9.815  17.107
    1LEU     SC 5267  18.605   9.799  16.972
    1TRP     BB 5268  18.069   9.987  17.243
    1TRP     SC 5269  18.019  10.254  17.223
    1TRP     SC 5270  17.843  10.366  17.255
    1TRP     SC 5271  18.083  10.326  17.495
    1TRP     SC 5272  17.908  10.439  17.535
    1PHE     BB 5273  17.825   9.783  17.249
    1PHE     SC 5274  17.670   9.944  17.046
    1PHE     SC 5275  17.572   9.994  16.841
    1PHE     SC 5276  17.564  10.176  16.943
    1ALA     BB 5277  17.994   9.530  17.355
    1VAL     BB 5278  18.017   9.709  17.645
    1VAL     SC 5279  18.248   9.824  17.646
    1PHE     BB 5280  17.729   9.827  17.710
    1PHE     SC 5281  17.602  10.069  17.602
    1PHE     SC 5282  17.383  10.005  17.651
    1PHE     SC 5283  17.391  10.201  17.719
    1SER     BB 5284  17.725   9.455  18.011
    1SER     SC 5285  17.931   9.327  17.997
    1THR     BB 5286  17.675   9.684  18.211
    1THR     SC 5287  17.857   9.876  18.191
    1SER     BB 5288  17.377   9.632  18.181
    1SER     SC 5289  17.233   9.727  17.997
    1ALA     BB 5290  17.380   9.307  18.223
    1VAL     BB 5291  17.533   9.288  18.531
    1VAL     SC 5292  17.788   9.256  18.500
    1ASN     BB 5293  17.321   9.523  18.656
    1ASN     SC 5294  17.598   9.694  18.664
    1ASN     BB 5295  17.013   9.482  18.542
    1ASN     SC 5296  17.003   9.206  18.706
    1ALA     BB 5297  16.942   9.752  18.336
    1GLY     BB 5298  16.767   9.676  18.025
    1PHE     BB 5299  16.964   9.826  17.834
    1PHE     SC 5300  16.931  10.126  17.929
    1PHE     SC 5301  16.831  10.154  18.138
    1PHE     SC 5302  16.791  10.335  18.040
    1ASP     BB 5303  16.942   9.859  17.528
    1ASP     SC 5304  16.946   9.595  17.319
    1ILE     BB 5305  17.096  10.022  17.246
    1ILE     SC 5306  17.326  10.115  17.290
    1ILE     BB 5307  16.883   9.882  17.054
    1ILE     SC 5308  17.084   9.726  16.873
    1SER     BB 5309  16.584  10.019  16.933
    1SER     SC 5310  16.651  10.225  16.815
    1PRO     BB 5311  16.383   9.819  16.755
    1PRO     SC 5312  16.566   9.894  16.593
    1ASN     BB 5313  16.508   9.595  16.968
    1ASN     SC 5314  16.394   9.448  16.699
    1SER     BB 5315  16.541   9.444  17.300
    1SER     SC 5316  16.431   9.639  17.416
    1LEU     BB 5317  16.707   9.155  17.150
    1LEU     SC 5318  16.901   9.065  17.372
    1GLN     BB 5319  16.534   8.993  16.924
    1GLN     SC 5320  16.163   9.179  16.981
    1PRO     BB 5321  16.754   8.923  16.679
    1PRO     SC 5322  16.739   9.178  16.696
    1TYR     BB 5323  16.886   8.697  16.913
    1TYR     SC 5324  17.134   8.745  16.931
    1TYR     SC 5325  17.287   8.811  16.776
    1TYR     SC 5326  17.451   8.661  16.854
    1ASN     BB 5327  16.658   8.443  16.908
    1ASN     SC 5328  16.474   8.439  17.109
    1VAL     BB 5329  16.680   8.300  16.586
    1VAL     SC 5330  16.485   8.401  16.501
    1ASP     BB 5331  16.975   8.309  16.490
    1ASP     SC 5332  17.107   8.444  16.254
    1ASN     BB 5333  17.136   8.013  16.538
    1ASN     SC 5334  17.024   7.745  16.561
    1ARG     BB 5335  17.450   8.329  16.686
    1ARG     SC 5336  17.366   8.575  16.502
    1ARG     SC 5337  17.118   8.801  16.353
    1VAL     BB 5338  17.249   8.314  16.953
    1VAL     SC 5339  17.045   8.178  16.912
    1TYR     BB 5340  17.444   8.201  17.188
    1TYR     SC 5341  17.610   7.980  17.169
    1TYR     SC 5342  17.561   7.814  17.325
    1TYR     SC 5343  17.778   7.817  17.419
    1ALA     BB 5344  17.643   8.452  17.251
    1ILE     BB 5345  17.405   8.651  17.395
    1ILE     SC 5346  17.395   8.860  17.202
    1GLN     BB 5347  17.256   8.443  17.566
    1GLN     SC 5348  17.115   8.161  17.546
    1VAL     BB 5349  17.495   8.330  17.749
    1VAL     SC 5350  17.590   8.105  17.669
    1ILE     BB 5351  17.660   8.587  17.831
    1ILE     SC 5352  17.886   8.599  17.612
    1PHE     BB 5353  17.435   8.759  17.952
    1PHE     SC 5354  17.409   8.983  17.761
    1PHE     SC 5355  17.387   9.046  17.539
    1PHE     SC 5356  17.538   9.171  17.613
    1MET     BB 5357  17.327   8.546  18.153
    1MET     SC 5358  17.022   8.324  17.991
    1LEU     BB 5359  17.593   8.520  18.306
    1LEU     SC 5360  17.856   8.365  18.228
    1GLU     BB 5361  17.606   8.820  18.395
    1GLU     SC 5362  17.794   9.000  18.060
    1TRP     BB 5363  17.300   8.866  18.520
    1TRP     SC 5364  17.129   8.908  18.288
    1TRP     SC 5365  17.068   8.881  18.089
    1TRP     SC 5366  16.931   8.712  18.348
    1TRP     SC 5367  16.859   8.685  18.149
    1ILE     BB 5368  17.286   8.628  18.719
    1ILE     SC 5369  17.157   8.389  18.568
    1ILE     BB 5370  17.551   8.684  18.883
    1ILE     SC 5371  17.772   8.503  18.766
    1GLY     BB 5372  17.478   8.986  18.949
    1GLY     BB 5373  17.213   8.916  19.082
    1LEU     BB 5374  17.354   8.759  19.269
    1LEU     SC 5375  17.254   8.417  19.213
    1GLY     BB 5376  17.556   8.736  19.528
    1TYR     BB 5377  17.811   8.889  19.682
    1TYR     SC 5378  17.803   9.164  19.547
    1TYR     SC 5379  17.654   9.339  19.503
    1TYR     SC 5380  17.724   9.364  19.279
    1PRO     BB 5381  17.821   8.669  19.887
    1PRO     SC 5382  17.657   8.840  20.006
    1THR     BB 5383  17.798   8.430  19.676
    1THR     SC 5384  17.547   8.383  19.601
    1PHE     BB 5385  18.057   8.512  19.518
    1PHE     SC 5386  18.098   8.608  19.273
    1PHE     SC 5387  18.133   8.745  19.093
    1PHE     SC 5388  18.277   8.596  19.064
    1ASP     BB 5389  18.188   8.242  19.893
    1ASP     SC 5390  18.002   8.171  20.119
    1ILE     BB 5391  18.240   8.100  19.640
    1ILE     SC 5392  18.000   8.053  19.452
    1LYS     BB 5393  18.542   8.206  19.573
    1LYS     SC 5394  18.629   8.389  19.404
    1LYS     SC 5395  18.870   8.331  19.196
    1ARG     BB 5396  18.667   8.108  19.864
    1ARG     SC 5397  18.674   8.297  20.106
    1ARG     SC 5398  18.792   8.381  20.450
    1LYS     BB 5399  18.540   7.804  19.896
    1LYS     SC 5400  18.372   7.890  20.144
    1LYS     SC 5401  18.369   7.942  20.458
    1LEU     BB 5402  18.604   7.669  19.609
    1LEU     SC 5403  18.446   7.718  19.328
    1LYS     BB 5404  18.915   7.715  19.580
    1LYS     SC 5405  19.039   8.001  19.565
    1LYS     SC 5406  19.267   8.220  19.577
    1ALA     BB 5407  18.987   7.505  19.845
    1ARG     BB 5408  18.776   7.224  19.668
    1ARG     SC 5409  18.684   7.225  19.972
    1ARG     SC 5410  18.616   7.178  20.334
    1LYS     BB 5411  18.810   7.162  19.376
    1LYS     SC 5412  18.773   7.374  19.139
    1LYS     SC 5413  18.754   7.497  18.845
    1THR     BB 5414  18.516   6.944  19.295
    1THR     SC 5415  18.587   6.898  19.073
    1LYS     BB 5416  18.371   6.941  19.631
    1LYS     SC 5417  18.559   6.683  19.653
    1LYS     SC 5418  18.708   6.400  19.654
    1GLU     BB 5419  18.217   7.252  19.691
    1GLU     SC 5420  18.326   7.313  19.440
    1LYS     BB 5421  17.890   7.200  19.825
    1LYS     SC 5422  17.873   7.034  19.542
    1LYS     SC 5423  17.938   6.881  19.269
    1ILE     BB 5424  17.933   7.265  20.151
    1ILE     SC 5425  17.983   6.992  20.171
    1ASN     BB 5426  18.104   7.561  20.238
    1ASN     SC 5427  18.361   7.464  20.157
    1PHE     BB 5428  17.828   7.727  20.216
    1PHE     SC 5429  17.912   7.747  19.922
    1PHE     SC 5430  17.886   7.630  19.724
    1PHE     SC 5431  18.077   7.714  19.706
    1SER     BB 5432  17.616   7.951  20.291
    1SER     SC 5433  17.654   8.189  20.312
    1LEU     BB 5434  17.281   7.965  20.339
    1LEU     SC 5435  17.082   7.882  20.520
    1PHE     BB 5436  17.244   8.188  20.137
    1PHE     SC 5437  17.310   8.455  20.146
    1PHE     SC 5438  17.130   8.590  20.095
    1PHE     SC 5439  17.268   8.631  19.943
    1THR     BB 5440  17.413   8.053  19.904
    1THR     SC 5441  17.668   8.112  19.924
    1LYS     BB 5442  17.236   7.790  19.892
    1LYS     SC 5443  17.359   7.606  20.135
    1LYS     SC 5444  17.443   7.356  20.149
    1ILE     BB 5445  16.963   7.917  19.843
    1ILE     SC 5446  16.803   7.938  20.087
    1ASN     BB 5447  17.045   8.077  19.592
    1ASN     SC 5448  17.079   8.373  19.726
    1PHE     BB 5449  17.147   7.828  19.420
    1PHE     SC 5450  17.376   7.673  19.435
    1PHE     SC 5451  17.473   7.671  19.222
    1PHE     SC 5452  17.431   7.469  19.261
    1TRP     BB 5453  16.884   7.647  19.433
    1TRP     SC 5454  17.008   7.402  19.579
    1TRP     SC 5455  17.185   7.311  19.655
    1TRP     SC 5456  17.019   7.191  19.383
    1TRP     SC 5457  17.192   7.092  19.455
    1VAL     BB 5458  16.654   7.861  19.375
    1VAL     SC 5459  16.556   7.956  19.594
    1TYR     BB 5460  16.740   7.973  19.099
    1TYR     SC 5461  17.005   8.064  19.098
    1TYR     SC 5462  17.090   8.061  18.881
    1TYR     SC 5463  17.266   7.913  18.933
    1LEU     BB 5464  16.740   7.698  18.948
    1LEU     SC 5465  16.964   7.471  18.961
    1VAL     BB 5466  16.444   7.605  19.009
    1VAL     SC 5467  16.436   7.432  19.203
    1LEU     BB 5468  16.299   7.874  18.909
    1LEU     SC 5469  16.170   8.090  19.093
    1PHE     BB 5470  16.481   7.818  18.627
    1PHE     SC 5471  16.605   8.079  18.658
    1PHE     SC 5472  16.798   8.201  18.673
    1PHE     SC 5473  16.649   8.348  18.682
    1ILE     BB 5474  16.284   7.554  18.566
    1ILE     SC 5475  16.508   7.352  18.636
    1PHE     BB 5476  15.993   7.641  18.601
    1PHE     SC 5477  15.836   7.700  18.819
    1PHE     SC 5478  15.653   7.556  18.824
    1PHE     SC 5479  15.567   7.747  18.808
    1GLY     BB 5480  15.992   7.874  18.397
    1PRO     BB 5481  16.054   7.725  18.117
    1PRO     SC 5482  16.291   7.763  18.218
    1LEU     BB 5483  15.802   7.543  18.148
    1LEU     SC 5484  15.843   7.243  18.268
    1ALA     BB 5485  15.586   7.790  18.203
    1VAL     BB 5486  15.666   7.918  17.894
    1VAL     SC 5487  15.806   8.133  17.923
    1PHE     BB 5488  15.647   7.673  17.715
    1PHE     SC 5489  15.866   7.499  17.619
    1PHE     SC 5490  15.770   7.297  17.554
    1PHE     SC 5491  15.905   7.341  17.399
    1ALA     BB 5492  15.356   7.543  17.810
    1THR     BB 5493  15.210   7.839  17.728
    1THR     SC 5494  15.168   7.972  17.948
    1GLU     BB 5495  15.433   7.905  17.478
    1GLU     SC 5496  15.309   8.243  17.549
    1TYR     BB 5497  15.318   7.682  17.229
    1TYR     SC 5498  15.479   7.454  17.280
    1TYR     SC 5499  15.407   7.273  17.154
    1TYR     SC 5500  15.623   7.219  17.075
    1SER     BB 5501  15.028   7.807  17.074
    1SER     SC 5502  14.889   7.687  17.223
    1ASN     BB 5503  15.090   8.109  17.008
    1ASN     SC 5504  15.010   8.359  17.168
    1TYR     BB 5505  15.131   8.296  16.723
    1TYR     SC 5506  15.044   8.304  16.470
    1TYR     SC 5507  15.207   8.213  16.329
    1TYR     SC 5508  15.234   8.411  16.203
    1ASN     BB 5509  15.230   8.583  16.837
    1ASN     SC 5510  14.916   8.697  16.839
    1ASN     BB 5511  15.406   8.405  17.001
    1ASN     SC 5512  15.510   8.681  17.206
    1SER     BB 5513  15.606   8.170  17.094
    1SER     SC 5514  15.411   7.962  17.077
    1LEU     BB 5515  15.757   7.810  17.012
    1LEU     SC 5516  15.898   7.904  17.249
    1ILE     BB 5517  15.762   7.612  16.711
    1ILE     SC 5518  15.509   7.524  16.733
    1PHE     BB 5519  15.787   7.280  16.567
    1PHE     SC 5520  16.065   7.271  16.438
    1PHE     SC 5521  16.075   7.354  16.222
    1PHE     SC 5522  16.178   7.172  16.210
    1TYR     BB 5523  15.864   7.019  15.947
    1TYR     SC 5524  15.971   6.747  16.043
    1TYR     SC 5525  15.928   6.603  16.223
    1TYR     SC 5526  16.157   6.563  16.266
    1TYR     BB 5527  15.558   7.145  15.824
    1TYR     SC 5528  15.594   6.926  15.632
    1TYR     SC 5529  15.622   6.699  15.673
    1TYR     SC 5530  15.750   6.662  15.479
    1ASP     BB 5531  15.538   7.433  15.893
    1ASP     SC 5532  15.719   7.410  16.147
    1GLU     BB 5533  15.635   7.751  15.848
    1GLU     SC 5534  15.371   8.065  15.948
    1ASN     BB 5535  15.878   7.918  16.007
    1ASN     SC 5536  15.820   8.188  15.883
    1PHE     BB 5537  16.094   8.186  16.137
    1PHE     SC 5538  16.238   7.930  16.211
    1PHE     SC 5539  16.413   7.817  16.107
    1PHE     SC 5540  16.270   7.667  16.139
    1THR     BB 5541  15.974   8.457  16.360
    1THR     SC 5542  15.745   8.430  16.299
    1VAL     BB 5543  16.025   8.342  16.675
    1VAL     SC 5544  16.191   8.549  16.711
    1LEU     BB 5545  15.688   8.312  16.673
    1LEU     SC 5546  15.732   8.621  16.824
    1ASN     BB 5547  15.599   7.970  16.671
    1ASN     SC 5548  15.304   7.923  16.671
    1ALA     BB 5549  15.782   8.026  16.429
    1LYS     BB 5550  16.050   7.777  16.580
    1LYS     SC 5551  16.143   7.988  16.783
    1LYS     SC 5552  16.294   8.185  16.910
    1SER     BB 5553  16.300   7.586  16.621
    1SER     SC 5554  16.463   7.472  16.448
    1ASN     BB 5555  16.379   7.323  16.861
    1ASN     SC 5556  16.128   7.130  16.798
    1THR     BB 5557  16.634   7.495  16.951
    1THR     SC 5558  16.837   7.384  16.829
    1VAL     BB 5559  16.518   7.805  16.974
    1VAL     SC 5560  16.609   7.895  16.749
    1VAL     BB 5561  16.300   7.749  17.190
    1VAL     SC 5562  16.149   7.574  17.067
    1PHE     BB 5563  16.500   7.723  17.431
    1PHE     SC 5564  16.676   7.528  17.503
    1PHE     SC 5565  16.603   7.459  17.713
    1PHE     SC 5566  16.799   7.527  17.746
    1MET     BB 5567  16.625   8.017  17.420
    1MET     SC 5568  16.946   7.900  17.282
    1ASP     BB 5569  16.364   8.167  17.513
    1ASP     SC 5570  16.177   8.337  17.390
    1ILE     BB 5571  16.265   8.016  17.772
    1ILE     SC 5572  16.166   7.749  17.688
    1LEU     BB 5573  16.529   8.079  17.914
    1LEU     SC 5574  16.781   7.900  17.923
    1PHE     BB 5575  16.522   8.399  17.889
    1PHE     SC 5576  16.646   8.563  17.717
    1PHE     SC 5577  16.869   8.631  17.705
    1PHE     SC 5578  16.764   8.808  17.748
    1ASN     BB 5579  16.221   8.504  17.983
    1ASN     SC 5580  15.975   8.558  17.842
    1THR     BB 5581  16.258   8.360  18.285
    1THR     SC 5582  16.202   8.142  18.195
    1THR     BB 5583  16.526   8.517  18.364
    1THR     SC 5584  16.671   8.318  18.259
    1ALA     BB 5585  16.488   8.835  18.240
    1SER     BB 5586  16.259   8.912  18.502
    1SER     SC 5587  16.120   8.717  18.479
    1ARG     BB 5588  16.516   8.870  18.725
    1ARG     SC 5589  16.381   8.674  18.893
    1ARG     SC 5590  16.502   8.370  18.987
    1ASN     BB 5591  16.611   9.199  18.632
    1ASN     SC 5592  16.498   9.193  18.934
    1ALA     BB 5593  16.742   9.203  18.314
    1GLY     BB 5594  16.505   9.348  18.063
    1PHE     BB 5595  16.525   9.166  17.819
    1PHE     SC 5596  16.841   9.204  17.834
    1PHE     SC 5597  16.936   9.412  17.794
    1PHE     SC 5598  17.053   9.332  17.949
    1SER     BB 5599  16.401   9.108  17.467
    1SER     SC 5600  16.210   9.276  17.531
    1THR     BB 5601  16.347   8.821  17.272
    1THR     SC 5602  16.460   8.660  17.435
    1ILE     BB 5603  16.057   8.908  17.271
    1ILE     SC 5604  15.977   8.679  17.366
    1ASP     BB 5605  15.737   8.991  17.320
    1ASP     SC 5606  15.631   9.272  17.217
    1ILE     BB 5607  15.509   9.096  17.584
    1ILE     SC 5608  15.715   9.096  17.784
    1SER     BB 5609  15.220   9.161  17.463
    1SER     SC 5610  15.175   9.387  17.365
    1THR     BB 5611  15.137   8.885  17.272
    1THR     SC 5612  15.241   8.993  17.074
    1PHE     BB 5613  15.072   8.726  17.505
    1PHE     SC 5614  15.367   8.638  17.589
    1PHE     SC 5615  15.569   8.707  17.679
    1PHE     SC 5616  15.624   8.543  17.561
    1ASN     BB 5617  14.952   8.553  17.740
    1ASN     SC 5618  14.772   8.282  17.745
    1SER     BB 5619  14.799   8.619  18.034
    1SER     SC 5620  14.553   8.653  17.964
    1GLY     BB 5621  14.931   8.384  18.197
    1SER     BB 5622  15.236   8.457  18.145
    1SER     SC 5623  15.270   8.418  17.900
    1LYS     BB 5624  15.214   8.746  18.262
    1LYS     SC 5625  15.144   8.912  17.975
    1LYS     SC 5626  14.963   9.034  17.768
    1ALA     BB 5627  15.090   8.642  18.547
    1ILE     BB 5628  15.393   8.480  18.606
    1ILE     SC 5629  15.394   8.220  18.592
    1LEU     BB 5630  15.587   8.722  18.559
    1LEU     SC 5631  15.679   8.682  18.233
    1SER     BB 5632  15.484   8.900  18.800
    1SER     SC 5633  15.274   9.041  18.788
    1ILE     BB 5634  15.582   8.711  19.033
    1ILE     SC 5635  15.429   8.488  19.135
    1LEU     BB 5636  15.885   8.669  18.904
    1LEU     SC 5637  15.953   8.435  18.720
    1MET     BB 5638  15.928   9.013  18.946
    1MET     SC 5639  15.794   9.147  18.605
    1PHE     BB 5640  15.872   9.048  19.248
    1PHE     SC 5641  15.642   9.112  19.371
    1PHE     SC 5642  15.570   9.024  19.574
    1PHE     SC 5643  15.606   9.225  19.618
    1ILE     BB 5644  16.087   8.829  19.252
    1ILE     SC 5645  15.975   8.585  19.378
    1GLY     BB 5646  16.392   8.871  19.280
    1SER     BB 5647  16.753   8.867  19.246
    1SER     SC 5648  16.820   8.685  19.073
    1ALA     BB 5649  16.904   8.868  19.525
    1PRO     BB 5650  16.999   9.102  19.815
    1PRO     SC 5651  16.889   8.908  19.919
    1SER     BB 5652  17.289   9.253  19.751
    1SER     SC 5653  17.385   9.059  19.626
    1SER     BB 5654  17.246   9.405  19.457
    1SER     SC 5655  17.035   9.252  19.464
    1THR     BB 5656  17.153   9.501  19.155
    1THR     SC 5657  17.268   9.336  18.988
    1ALA     BB 5658  16.828   9.420  19.159
    1GLY     BB 5659  16.495   9.468  19.335
    1GLY     BB 5660  16.224   9.430  19.541
    1ILE     BB 5661  16.192   9.167  19.628
    1ILE     SC 5662  15.954   9.079  19.795
    1ARG     BB 5663  16.364   8.884  19.733
    1ARG     SC 5664  16.569   9.149  19.702
    1ARG     SC 5665  16.616   9.523  19.674
    1THR     BB 5666  16.429   8.547  19.713
    1THR     SC 5667  16.548   8.495  19.486
    1THR     BB 5668  16.459   8.489  20.027
    1THR     SC 5669  16.706   8.544  20.043
    1THR     BB 5670  16.201   8.639  20.120
    1THR     SC 5671  16.250   8.903  20.091
    1PHE     BB 5672  16.012   8.437  19.991
    1PHE     SC 5673  15.942   8.394  19.716
    1PHE     SC 5674  15.708   8.391  19.716
    1PHE     SC 5675  15.762   8.216  19.612
    1GLY     BB 5676  16.134   8.178  20.124
    1VAL     BB 5677  16.092   8.267  20.426
    1VAL     SC 5678  16.290   8.408  20.519
    1LEU     BB 5679  15.783   8.308  20.402
    1LEU     SC 5680  15.619   8.551  20.293
    1LEU     BB 5681  15.700   8.027  20.277
    1LEU     SC 5682  15.665   7.994  19.958
    1LEU     BB 5683  15.850   7.849  20.503
    1LEU     SC 5684  16.099   7.735  20.305
    1SER     BB 5685  15.698   7.975  20.734
    1SER     SC 5686  15.758   8.197  20.848
    1THR     BB 5687  15.409   7.892  20.647
    1THR     SC 5688  15.275   8.086  20.540
    1PHE     BB 5689  15.479   7.586  20.609
    1PHE     SC 5690  15.623   7.449  20.424
    1PHE     SC 5691  15.498   7.282  20.322
    1PHE     SC 5692  15.657   7.178  20.413
    1THR     BB 5693  15.552   7.560  20.908
    1THR     SC 5694  15.809   7.610  20.947
    1ILE     BB 5695  15.277   7.676  21.038
    1ILE     SC 5696  15.316   7.979  21.060
    1ILE     BB 5697  15.077   7.463  20.910
    1ILE     SC 5698  15.062   7.534  20.623
    1LYS     BB 5699  15.185   7.182  21.004
    1LYS     SC 5700  15.469   7.072  20.931
    1LYS     SC 5701  15.746   7.086  20.984
    1ASN     BB 5702  15.351   7.209  21.273
    1ASN     SC 5703  15.293   7.538  21.362
    1GLN     BB 5704  15.656   7.399  21.361
    1GLN     SC 5705  15.990   7.230  21.240
    1LYS     BB 5706  15.796   7.617  21.593
    1LYS     SC 5707  15.708   7.477  21.873
    1LYS     SC 5708  15.601   7.392  22.155
    1PHE     BB 5709  16.049   7.634  21.381
    1PHE     SC 5710  16.195   7.766  21.637
    1PHE     SC 5711  16.131   7.677  21.842
    1PHE     SC 5712  16.162   7.879  21.883
    1THR     BB 5713  16.214   7.776  21.114
    1THR     SC 5714  16.063   7.967  21.043
    1SER     BB 5715  16.338   7.558  20.839
    1SER     SC 5716  16.477   7.410  21.005
    1ALA     BB 5717  16.630   7.547  20.616
    1PHE     BB 5718  16.862   7.258  20.561
    1PHE     SC 5719  16.969   7.338  20.311
    1PHE     SC 5720  16.921   7.491  20.142
    1PHE     SC 5721  16.974   7.316  20.038
    1ARG     BB 5722  16.862   7.202  20.894
    1ARG     SC 5723  16.841   6.891  20.838
    1ARG     SC 5724  16.679   6.621  20.722
    1LYS     BB 5725  16.830   7.510  20.965
    1LYS     SC 5726  17.158   7.421  20.942
    1LYS     SC 5727  17.264   7.268  20.707
    1THR     BB 5728  16.760   7.801  21.162
    1THR     SC 5729  16.592   7.676  21.343
    1ILE     BB 5730  16.541   8.074  21.153
    1ILE     SC 5731  16.519   8.106  20.845
    1PRO     BB 5732  16.515   8.368  21.281
    1PRO     SC 5733  16.761   8.342  21.322
    1SER     BB 5734  16.269   8.599  21.385
    1SER     SC 5735  16.120   8.580  21.578
    1GLU     BB 5736  16.387   8.860  21.258
    1GLU     SC 5737  16.674   9.101  21.394
    1THR     BB 5738  16.393   8.761  20.959
    1THR     SC 5739  16.605   8.614  20.921
    1VAL     BB 5740  16.088   8.715  20.942
    1VAL     SC 5741  16.026   8.476  21.041
    1ASN     BB 5742  15.992   9.013  21.009
    1ASN     SC 5743  15.860   8.962  21.307
    1ARG     BB 5744  16.167   9.156  20.788
    1ARG     SC 5745  16.459   9.218  20.945
    1ARG     SC 5746  16.664   9.437  21.117
    1SER     BB 5747  16.035   8.998  20.550
    1SER     SC 5748  16.097   8.767  20.485
    1TYR     BB 5749  15.739   9.097  20.601
    1TYR     SC 5750  15.623   8.859  20.733
    1TYR     SC 5751  15.647   8.690  20.892
    1TYR     SC 5752  15.545   8.525  20.759
    1ALA     BB 5753  15.821   9.409  20.599
    1ALA     BB 5754  15.954   9.366  20.275
    1PHE     BB 5755  15.650   9.246  20.155
    1PHE     SC 5756  15.548   9.000  20.202
    1PHE     SC 5757  15.487   8.893  20.004
    1PHE     SC 5758  15.308   8.908  20.111
    1PHE     BB 5759  15.439   9.466  20.234
    1PHE     SC 5760  15.322   9.538  20.468
    1PHE     SC 5761  15.107   9.568  20.386
    1PHE     SC 5762  15.166   9.760  20.445
    1ILE     BB 5763  15.551   9.743  20.125
    1ILE     SC 5764  15.743   9.848  20.345
    1SER     BB 5765  15.571   9.652  19.824
    1SER     SC 5766  15.730   9.465  19.857
    1THR     BB 5767  15.273   9.560  19.782
    1THR     SC 5768  15.236   9.309  19.853
    1PHE     BB 5769  15.154   9.838  19.856
    1PHE     SC 5770  15.041   9.888  20.114
    1PHE     SC 5771  15.017  10.119  20.132
    1PHE     SC 5772  14.828  10.044  20.185
    1LEU     BB 5773  15.310  10.010  19.641
    1LEU     SC 5774  15.569  10.135  19.822
    1ILE     BB 5775  15.193   9.851  19.403
    1ILE     SC 5776  15.382   9.615  19.332
    1PHE     BB 5777  14.895   9.908  19.470
    1PHE     SC 5778  14.712   9.765  19.615
    1PHE     SC 5779  14.589   9.937  19.711
    1PHE     SC 5780  14.451   9.838  19.587
    1ILE     BB 5781  14.909  10.221  19.470
    1ILE     SC 5782  14.926  10.318  19.733
    1ALA     BB 5783  15.059  10.225  19.183
    1LEU     BB 5784  14.777  10.102  19.044
    1LEU     SC 5785  14.872   9.775  19.028
    1PHE     BB 5786  14.561  10.300  19.149
    1PHE     SC 5787  14.463  10.347  19.402
    1PHE     SC 5788  14.230  10.352  19.392
    1PHE     SC 5789  14.281  10.544  19.460
    1ILE     BB 5790  14.691  10.553  19.021
    1ILE     SC 5791  14.911  10.662  19.217
    1ILE     BB 5792  14.705  10.472  18.706
    1ILE     SC 5793  14.967  10.424  18.658
    1TYR     BB 5794  14.383  10.453  18.666
    1TYR     SC 5795  14.375  10.162  18.690
    1TYR     SC 5796  14.438   9.992  18.834
    1TYR     SC 5797  14.541   9.867  18.664
    1VAL     BB 5798  14.372  10.769  18.712
    1VAL     SC 5799  14.270  10.784  18.954
    1ASP     BB 5800  14.610  10.894  18.533
    1ASP     SC 5801  14.858  10.895  18.767
    1SER     BB 5802  14.512  10.784  18.248
    1SER     SC 5803  14.504  10.534  18.274
    1ASN     BB 5804  14.226  10.942  18.305
    1ASN     SC 5805  14.059  10.666  18.313
    1SER     BB 5806  14.267  11.261  18.211
    1SER     SC 5807  14.437  11.232  18.034
    1VAL     BB 5808  13.951  11.251  18.060
    1VAL     SC 5809  14.022  11.435  17.904
    1PHE     BB 5810  13.709  11.114  18.229
    1PHE     SC 5811  13.717  10.974  18.452
    1PHE     SC 5812  13.646  10.982  18.671
    1PHE     SC 5813  13.528  10.829  18.588
    1THR     BB 5814  13.464  11.255  17.860
    1THR     SC 5815  13.596  11.448  17.802
    1LEU     BB 5816  13.538  10.947  17.801
    1LEU     SC 5817  13.249  10.862  17.940
    1LYS     BB 5818  13.833  10.900  17.718
    1LYS     SC 5819  13.972  11.142  17.592
    1LYS     SC 5820  14.055  11.261  17.308
    1ASN     BB 5821  14.080  10.713  17.502
    1ASN     SC 5822  14.026  10.801  17.250
    1ASN     BB 5823  14.247  10.408  17.879
    1ASN     SC 5824  14.039  10.342  18.107
    1SER     BB 5825  14.432  10.170  18.013
    1SER     SC 5826  14.645  10.246  18.101
    1ALA     BB 5827  14.513   9.834  17.970
    1SER     BB 5828  14.537   9.675  18.292
    1SER     SC 5829  14.351   9.634  18.450
    1ILE     BB 5830  14.772   9.464  18.245
    1ILE     SC 5831  14.727   9.229  18.173
    1ASN     BB 5832  14.985   9.678  18.155
    1ASN     SC 5833  14.895   9.647  17.828
    1THR     BB 5834  14.985   9.822  18.430
    1THR     SC 5835  14.802  10.012  18.443
    1ILE     BB 5836  15.063   9.574  18.606
    1ILE     SC 5837  14.806   9.416  18.671
    1LEU     BB 5838  15.339   9.514  18.470
    1LEU     SC 5839  15.234   9.260  18.270
    1LEU     BB 5840  15.460   9.804  18.496
    1LEU     SC 5841  15.434  10.033  18.295
    1ILE     BB 5842  15.467   9.826  18.809
    1ILE     SC 5843  15.250   9.977  18.891
    1THR     BB 5844  15.626   9.564  18.873
    1THR     SC 5845  15.455   9.365  18.915
    1SER     BB 5846  15.866   9.643  18.685
    1SER     SC 5847  15.867   9.606  18.441
    1ALA     BB 5848  15.914   9.943  18.806
    1PHE     BB 5849  15.972   9.802  19.117
    1PHE     SC 5850  15.798   9.754  19.301
    1PHE     SC 5851  15.797   9.900  19.483
    1PHE     SC 5852  15.867   9.718  19.561
    1GLY     BB 5853  16.171   9.539  19.045
    1THR     BB 5854  16.372   9.645  18.826
    1THR     SC 5855  16.465   9.797  19.004
    1VAL     BB 5856  16.320   9.519  18.511
    1VAL     SC 5857  16.146   9.351  18.602
    1GLY     BB 5858  16.181   9.650  18.201
    1LEU     BB 5859  15.945   9.512  18.123
    1LEU     SC 5860  16.088   9.212  18.056
    1SER     BB 5861  15.685   9.520  17.856
    1SER     SC 5862  15.713   9.751  17.854
    1PRO     BB 5863  15.378   9.632  17.762
    1PRO     SC 5864  15.309   9.433  17.842
    1LEU     BB 5865  15.555   9.824  17.529
    1LEU     SC 5866  15.362   9.714  17.310
    1ALA     BB 5867  15.869   9.901  17.337
    1PHE     BB 5868  15.441  10.219  17.359
    1PHE     SC 5869  15.231  10.163  17.121
    1PHE     SC 5870  15.276  10.024  16.941
    1PHE     SC 5871  15.183  10.191  16.854
    1GLN     BB 5872  15.360  10.223  17.686
    1GLN     SC 5873  15.111  10.114  17.854
    1MET     BB 5874  15.635  10.370  17.788
    1MET     SC 5875  15.899  10.052  17.844
    1TYR     BB 5876  15.563  10.621  17.568
    1TYR     SC 5877  15.773  10.448  17.423
    1TYR     SC 5878  15.989  10.493  17.349
    1TYR     SC 5879  16.075  10.283  17.410
    1GLN     BB 5880  15.236  10.664  17.665
    1GLN     SC 5881  14.988  10.439  17.476
    1LEU     BB 5882  15.276  10.822  17.909
    1LEU     SC 5883  15.429  10.569  18.086
    1GLY     BB 5884  15.186  11.038  18.119
    1VAL     BB 5885  15.301  11.294  18.309
    1VAL     SC 5886  15.236  11.517  18.177
    1VAL     BB 5887  15.214  11.165  18.585
    1VAL     SC 5888  15.003  11.297  18.672
    1THR     BB 5889  15.287  10.861  18.519
    1THR     SC 5890  15.099  10.770  18.358
    1LYS     BB 5891  15.594  10.915  18.516
    1LYS     SC 5892  15.644  11.012  18.195
    1LYS     SC 5893  15.605  11.190  17.946
    1ILE     BB 5894  15.624  11.017  18.817
    1ILE     SC 5895  15.550  11.318  18.819
    1SER     BB 5896  15.519  10.762  18.959
    1SER     SC 5897  15.266  10.776  18.890
    1LEU     BB 5898  15.731  10.566  18.831
    1LEU     SC 5899  15.566  10.411  18.584
    1ILE     BB 5900  15.987  10.712  18.940
    1ILE     SC 5901  16.044  10.954  18.755
    1LEU     BB 5902  15.917  10.649  19.235
    1LEU     SC 5903  15.736  10.807  19.435
    1ILE     BB 5904  15.895  10.333  19.212
    1ILE     SC 5905  15.604  10.290  19.117
    1MET     BB 5906  16.190  10.287  19.108
    1MET     SC 5907  16.157  10.379  18.704
    1PHE     BB 5908  16.331  10.418  19.353
    1PHE     SC 5909  16.390  10.701  19.377
    1PHE     SC 5910  16.394  10.713  19.608
    1PHE     SC 5911  16.569  10.814  19.550
    1ILE     BB 5912  16.207  10.240  19.587
    1ILE     SC 5913  15.955  10.388  19.687
    1GLY     BB 5914  16.281   9.956  19.484
    1GLN     BB 5915  16.600   9.974  19.464
    1GLN     SC 5916  16.792   9.927  19.215
    1LEU     BB 5917  16.665  10.105  19.762
    1LEU     SC 5918  16.722  10.407  19.790
    1GLY     BB 5919  16.457   9.994  19.942
    1VAL     BB 5920  16.181  10.007  20.135
    1VAL     SC 5921  16.030   9.819  20.030
    1SER     BB 5922  16.301  10.036  20.424
    1SER     SC 5923  16.292   9.766  20.478
    1ASN     BB 5924  16.508  10.259  20.352
    1ASN     SC 5925  16.773  10.057  20.340
    1THR     BB 5926  16.292  10.460  20.237
    1THR     SC 5927  16.238  10.417  19.987
    1LEU     BB 5928  16.155  10.496  20.509
    1LEU     SC 5929  15.876  10.296  20.481
    1LEU     BB 5930  16.401  10.542  20.736
    1LEU     SC 5931  16.483  10.233  20.824
    1ILE     BB 5932  16.445  10.849  20.662
    1ILE     SC 5933  16.527  10.816  20.375
    1PHE     BB 5934  16.122  10.936  20.780
    1PHE     SC 5935  15.975  10.954  20.575
    1PHE     SC 5936  15.995  10.830  20.379
    1PHE     SC 5937  15.801  10.785  20.446
    1LEU     BB 5938  16.119  10.773  21.082
    1LEU     SC 5939  15.999  10.510  20.930
    1LYS     BB 5940  16.262  10.982  21.220
    1LYS     SC 5941  16.546  10.829  21.209
    1LYS     SC 5942  16.667  10.538  21.276
    1PRO     BB 5943  16.265  10.931  21.523
    1PRO     SC 5944  16.237  11.134  21.591
    1ALA     BB 5945  16.347  10.653  21.718
    1ARG     BB 5946  16.063  10.457  21.886
    1ARG     SC 5947  15.831  10.614  21.734
    1ARG     SC 5948  15.570  10.800  21.543
    1ASP     BB 5949  16.165  10.383  22.162
    1ASP     SC 5950  16.433  10.206  22.225
    1LYS     BB 5951  16.012  10.111  22.369
    1LYS     SC 5952  15.747  10.271  22.259
    1LYS     SC 5953  15.470  10.408  22.183
    1ALA     BB 5954  16.108   9.966  22.677
    1TYR     BB 5955  15.792   9.914  22.716
    1TYR     SC 5956  15.697  10.153  22.754
    1TYR     SC 5957  15.486  10.247  22.726
    1TYR     SC 5958  15.558  10.405  22.568
    1LYS     BB 5959  15.526   9.712  22.806
    1LYS     SC 5960  15.724   9.429  22.749
    1LYS     SC 5961  15.910   9.177  22.760
    1TYR     BB 5962  15.241   9.513  22.737
    1TYR     SC 5963  15.145   9.825  22.641
    1TYR     SC 5964  15.311   9.896  22.494
    1TYR     SC 5965  15.257  10.124  22.512
    1LEU     BB 5966  14.971   9.331  22.743
    1LEU     SC 5967  14.752   9.464  22.895
    1GLU     BB 5968  14.791   9.057  22.662
    1GLU     SC 5969  15.005   8.721  22.750
    1GLU     BB 5970  14.589   8.982  22.354
    1GLU     SC 5971  14.422   9.284  22.500
    1ASP     BB 5972  14.279   8.883  22.223
    1ASP     SC 5973  14.261   8.624  22.443
    1ILE     BB 5974  14.304   8.819  21.857
    1ILE     SC 5975  14.349   9.093  21.769
    1THR     BB 5976  14.138   8.740  21.585
    1THR     SC 5977  13.939   8.567  21.658
    1ILE     BB 5978  14.234   8.592  21.225
    1ILE     SC 5979  14.460   8.574  21.296
    1GLY     BB 5980  14.009   8.407  21.040
    2GLN     BB 5981   2.389  -2.274  12.774
    2GLN     SC 5982   2.786  -2.304  12.928
    2ASN     BB 5983   2.394  -2.392  12.464
    2ASN     SC 5984   2.635  -2.157  12.444
    2PHE     BB 5985   2.176  -2.397  12.177
    2PHE     SC 5986   1.994  -2.482  12.420
    2PHE     SC 5987   1.992  -2.344  12.608
    2PHE     SC 5988   1.989  -2.537  12.687
    2ALA     BB 5989   2.084  -2.625  11.898
    2ILE     BB 5990   1.828  -2.583  11.620
    2ILE     SC 5991   1.635  -2.531  11.832
    2ILE     BB 5992   1.701  -2.847  11.403
    2ILE     SC 5993   1.996  -2.933  11.348
    2GLY     BB 5994   1.450  -2.830  11.187
    2VAL     BB 5995   1.179  -2.596  11.164
    2VAL     SC 5996   1.346  -2.418  11.167
    2SER     BB 5997   0.934  -2.712  11.275
    2SER     SC 5998   0.916  -2.963  11.297
    2ASN     BB 5999   0.663  -2.667  11.484
    2ASN     SC 6000   0.445  -2.659  11.229
    2PHE     BB 6001   0.823  -2.782  11.725
    2PHE     SC 6002   0.820  -3.034  11.840
    2PHE     SC 6003   1.028  -3.125  11.893
    2PHE     SC 6004   0.925  -3.125  12.076
    2THR     BB 6005   1.106  -2.642  11.679
    2THR     SC 6006   1.223  -2.800  11.503
    2LEU     BB 6007   0.994  -2.353  11.695
    2LEU     SC 6008   0.760  -2.231  11.512
    2SER     BB 6009   0.909  -2.371  11.995
    2SER     SC 6010   0.691  -2.450  12.076
    2VAL     BB 6011   1.190  -2.430  12.114
    2VAL     SC 6012   1.240  -2.687  12.123
    2ILE     BB 6013   1.312  -2.164  12.023
    2ILE     SC 6014   1.434  -2.108  11.803
    2GLU     BB 6015   1.091  -1.952  12.116
    2GLU     SC 6016   0.742  -1.887  11.914
    2THR     BB 6017   1.108  -2.035  12.415
    2THR     SC 6018   0.934  -2.223  12.466
    2LEU     BB 6019   1.421  -2.009  12.477
    2LEU     SC 6020   1.536  -2.329  12.459
    2VAL     BB 6021   1.441  -1.701  12.398
    2VAL     SC 6022   1.471  -1.726  12.142
    2GLN     BB 6023   1.213  -1.602  12.602
    2GLN     SC 6024   0.936  -1.461  12.531
    2LYS     BB 6025   1.425  -1.733  12.830
    2LYS     SC 6026   1.226  -1.949  12.901
    2LYS     SC 6027   0.954  -2.036  13.045
    2ARG     BB 6028   1.723  -1.620  12.747
    2ARG     SC 6029   1.591  -1.353  12.863
    2ARG     SC 6030   1.394  -1.072  13.005
    2GLN     BB 6031   1.885  -1.805  12.553
    2GLN     SC 6032   1.850  -2.020  12.856
    2SER     BB 6033   2.134  -1.969  12.379
    2SER     SC 6034   2.369  -1.886  12.347
    2VAL     BB 6035   2.025  -1.979  12.025
    2VAL     SC 6036   1.822  -2.113  12.132
    2THR     BB 6037   2.034  -2.184  11.732
    2THR     SC 6038   2.289  -2.174  11.727
    2VAL     BB 6039   1.929  -2.169  11.377
    2VAL     SC 6040   1.688  -2.081  11.428
    2PHE     BB 6041   1.840  -2.463  11.165
    2PHE     SC 6042   2.132  -2.442  11.248
    2PHE     SC 6043   2.239  -2.495  11.447
    2PHE     SC 6044   2.332  -2.317  11.388
    2ASP     BB 6045   1.816  -2.489  10.808
    2ASP     SC 6046   1.476  -2.577  10.791
    2ILE     BB 6047   1.748  -2.525  10.444
    2ILE     SC 6048   1.807  -2.788  10.354
    2ASP     BB 6049   1.530  -2.308  10.456
    2ASP     SC 6050   1.237  -2.320  10.342
    2GLU     BB 6051   1.532  -1.966  10.391
    2GLU     SC 6052   1.811  -1.833  10.119
    2ARG     BB 6053   1.239  -1.887  10.479
    2ARG     SC 6054   1.076  -1.920  10.188
    2ARG     SC 6055   0.925  -1.902   9.849
    2ARG     BB 6056   1.237  -2.008  10.765
    2ARG     SC 6057   1.158  -2.332  10.725
    2ARG     SC 6058   1.076  -2.677  10.635
    2LEU     BB 6059   1.473  -1.837  10.861
    2LEU     SC 6060   1.719  -2.066  10.813
    2ASN     BB 6061   1.383  -1.544  10.795
    2ASN     SC 6062   1.544  -1.507  10.506
    2LEU     BB 6063   1.154  -1.561  10.999
    2LEU     SC 6064   0.893  -1.692  10.814
    2TYR     BB 6065   1.309  -1.661  11.280
    2TYR     SC 6066   1.178  -1.930  11.233
    2TYR     SC 6067   1.133  -2.144  11.309
    2TYR     SC 6068   0.964  -2.184  11.146
    2LEU     BB 6069   1.532  -1.433  11.288
    2LEU     SC 6070   1.721  -1.651  11.112
    2SER     BB 6071   1.344  -1.162  11.303
    2SER     SC 6072   1.333  -1.100  11.065
    2GLU     BB 6073   1.035  -1.281  11.432
    2GLU     SC 6074   0.980  -1.077  11.144
    2PHE     BB 6075   1.157  -1.512  11.681
    2PHE     SC 6076   0.980  -1.668  11.491
    2PHE     SC 6077   0.801  -1.813  11.517
    2PHE     SC 6078   0.772  -1.735  11.325
    2ASP     BB 6079   1.413  -1.408  11.872
    2ASP     SC 6080   1.255  -1.159  12.011
    2THR     BB 6081   1.689  -1.501  11.782
    2THR     SC 6082   1.729  -1.713  11.651
    2VAL     BB 6083   2.030  -1.516  11.824
    2VAL     SC 6084   2.095  -1.584  12.069
    2GLU     BB 6085   2.059  -1.726  11.567
    2GLU     SC 6086   2.340  -1.564  11.413
    2GLY     BB 6087   2.091  -1.788  11.190
    2ILE     BB 6088   2.133  -2.067  10.944
    2ILE     SC 6089   2.410  -1.998  11.032
    2VAL     BB 6090   2.209  -2.180  10.621
    2VAL     SC 6091   2.050  -2.066  10.449
    2ILE     BB 6092   2.161  -2.548  10.630
    2ILE     SC 6093   2.383  -2.525  10.776
    2ASP     BB 6094   2.309  -2.850  10.592
    2ASP     SC 6095   2.239  -3.064  10.364
    2THR     BB 6096   2.308  -3.134  10.831
    2THR     SC 6097   2.135  -3.024  10.970
    2THR     BB 6098   2.443  -3.372  10.657
    2THR     SC 6099   2.237  -3.430  10.519
    2ASN     BB 6100   2.684  -3.186  10.639
    2ASN     SC 6101   2.816  -3.081  10.375
    2LYS     BB 6102   2.991  -3.156  10.799
    2LYS     SC 6103   3.178  -3.377  10.885
    2LYS     SC 6104   3.438  -3.473  11.046
    2VAL     BB 6105   3.109  -2.877  10.720
    2VAL     SC 6106   3.284  -2.892  10.524
    2ALA     BB 6107   2.822  -2.736  10.737
    2LEU     BB 6108   2.834  -2.800  11.074
    2LEU     SC 6109   2.645  -3.047  11.167
    2ALA     BB 6110   3.148  -2.703  11.147
    2LYS     BB 6111   3.073  -2.365  11.059
    2LYS     SC 6112   3.175  -2.386  10.780
    2LYS     SC 6113   3.452  -2.379  10.616
    2LYS     BB 6114   2.871  -2.321  11.325
    2LYS     SC 6115   2.613  -2.442  11.182
    2LYS     SC 6116   2.429  -2.671  11.185
    2GLY     BB 6117   2.991  -2.454  11.586
    2ILE     BB 6118   2.858  -2.734  11.701
    2ILE     SC 6119   2.695  -2.844  11.537
    2GLN     BB 6120   3.082  -2.793  11.939
    2GLN     SC 6121   3.293  -2.758  11.671
    2SER     BB 6122   2.950  -2.525  12.116
    2SER     SC 6123   3.114  -2.372  11.989
    2TYR     BB 6124   2.704  -2.719  12.200
    2TYR     SC 6125   2.559  -2.512  12.023
    2TYR     SC 6126   2.619  -2.488  11.800
    2TYR     SC 6127   2.631  -2.253  11.810
    2ASP     BB 6128   2.549  -2.890  12.451
    2ASP     SC 6129   2.623  -2.640  12.683
    2TRP     BB 6130   2.263  -2.874  12.289
    2TRP     SC 6131   2.109  -2.959  12.572
    2TRP     SC 6132   2.157  -2.947  12.776
    2TRP     SC 6133   1.936  -3.175  12.654
    2TRP     SC 6134   1.981  -3.172  12.861
    2VAL     BB 6135   2.102  -3.078  12.035
    2VAL     SC 6136   2.288  -3.005  11.854
    2ILE     BB 6137   1.815  -3.027  11.821
    2ILE     SC 6138   1.678  -2.963  12.064
    2VAL     BB 6139   1.627  -3.266  11.624
    2VAL     SC 6140   1.828  -3.346  11.480
    2GLY     BB 6141   1.314  -3.186  11.437
    2ILE     BB 6142   1.323  -3.415  11.223
    2ILE     SC 6143   1.513  -3.289  11.018
    2GLU     BB 6144   1.051  -3.624  11.090
    2GLU     SC 6145   0.717  -3.566  11.303
    2ASN     BB 6146   0.967  -3.679  10.789
    2ASN     SC 6147   0.730  -3.448  10.789
    2GLU     BB 6148   1.280  -3.718  10.746
    2GLU     SC 6149   1.342  -3.403  10.509
    2LEU     BB 6150   1.507  -3.967  10.797
    2LEU     SC 6151   1.428  -4.248  10.906
    2GLU     BB 6152   1.779  -3.916  10.653
    2GLU     SC 6153   1.885  -4.014  10.273
    2SER     BB 6154   1.830  -3.634  10.781
    2SER     SC 6155   1.733  -3.422  10.682
    2SER     BB 6156   1.812  -3.717  11.087
    2SER     SC 6157   1.594  -3.716  11.216
    2LEU     BB 6158   2.031  -3.954  11.090
    2LEU     SC 6159   1.825  -4.214  11.060
    2VAL     BB 6160   2.274  -3.793  10.978
    2VAL     SC 6161   2.304  -3.835  10.722
    2THR     BB 6162   2.261  -3.568  11.195
    2THR     SC 6163   2.101  -3.374  11.118
    2VAL     BB 6164   2.297  -3.749  11.454
    2VAL     SC 6165   2.103  -3.869  11.546
    2LEU     BB 6166   2.564  -3.880  11.367
    2LEU     SC 6167   2.627  -4.117  11.173
    2ASN     BB 6168   2.730  -3.614  11.342
    2ASN     SC 6169   2.692  -3.556  11.010
    2LEU     BB 6170   2.689  -3.531  11.645
    2LEU     SC 6171   2.421  -3.326  11.612
    2LEU     BB 6172   2.831  -3.783  11.765
    2LEU     SC 6173   2.699  -4.054  11.857
    2ASP     BB 6174   3.110  -3.771  11.599
    2ASP     SC 6175   3.032  -3.992  11.355
    2LEU     BB 6176   3.143  -3.459  11.733
    2LEU     SC 6177   3.104  -3.326  11.434
    2LYS     BB 6178   3.063  -3.475  12.051
    2LYS     SC 6179   3.343  -3.626  12.063
    2LYS     SC 6180   3.632  -3.762  12.059
    2CYS     BB 6181   2.772  -3.432  12.164
    2CYS     SC 6182   2.581  -3.224  12.090
    2THR     BB 6183   2.636  -3.434  12.487
    2THR     SC 6184   2.782  -3.284  12.640
    2ASN     BB 6185   2.330  -3.339  12.383
    2ASN     SC 6186   2.315  -3.313  12.715
    2ILE     BB 6187   2.085  -3.535  12.212
    2ILE     SC 6188   2.299  -3.578  11.991
    2THR     BB 6189   1.777  -3.434  12.052
    2THR     SC 6190   1.679  -3.365  12.292
    2VAL     BB 6191   1.499  -3.623  11.906
    2VAL     SC 6192   1.701  -3.737  11.791
    2LYS     BB 6193   1.275  -3.659  11.639
    2LYS     SC 6194   1.039  -3.437  11.618
    2LYS     SC 6195   0.763  -3.311  11.510
    2ALA     BB 6196   1.028  -3.929  11.607
    2LYS     BB 6197   0.770  -4.055  11.384
    2LYS     SC 6198   0.783  -4.010  11.070
    2LYS     SC 6199   0.742  -3.987  10.757
    2ASP     BB 6200   0.852  -4.364  11.456
    2ASP     SC 6201   0.614  -4.547  11.319
    2ASP     BB 6202   0.955  -4.681  11.565
    2ASP     SC 6203   0.694  -4.736  11.752
    2ASN     BB 6204   1.181  -4.727  11.351
    2ASN     SC 6205   1.013  -4.943  11.163
    2TYR     BB 6206   1.308  -4.441  11.376
    2TYR     SC 6207   1.110  -4.346  11.149
    2TYR     SC 6208   1.086  -4.181  10.990
    2TYR     SC 6209   0.995  -4.316  10.823
    2ARG     BB 6210   1.379  -4.484  11.675
    2ARG     SC 6211   1.177  -4.460  11.915
    2ARG     SC 6212   0.926  -4.630  11.982
    2ARG     BB 6213   1.572  -4.736  11.636
    2ARG     SC 6214   1.358  -4.995  11.620
    2ARG     SC 6215   1.096  -5.259  11.672
    2VAL     BB 6216   1.794  -4.577  11.483
    2VAL     SC 6217   1.764  -4.598  11.226
    2LEU     BB 6218   1.842  -4.356  11.708
    2LEU     SC 6219   1.634  -4.110  11.583
    2LEU     BB 6220   1.924  -4.576  11.917
    2LEU     SC 6221   1.620  -4.653  12.070
    2ALA     BB 6222   2.166  -4.708  11.741
    2LEU     BB 6223   2.270  -4.363  11.730
    2LEU     SC 6224   2.253  -4.372  11.402
    2GLY     BB 6225   2.374  -4.287  12.050
    2LEU     BB 6226   2.197  -4.348  12.324
    2LEU     SC 6227   1.979  -4.554  12.350
    2THR     BB 6228   2.399  -4.298  12.566
    2THR     SC 6229   2.612  -4.439  12.503
    2GLU     BB 6230   2.349  -3.950  12.477
    2GLU     SC 6231   2.750  -3.943  12.575
    2ASN     BB 6232   2.018  -3.967  12.425
    2ASN     SC 6233   2.018  -4.062  12.133
    2GLN     BB 6234   1.688  -3.824  12.315
    2GLN     SC 6235   1.504  -3.862  12.621
    2ILE     BB 6236   1.352  -3.933  12.244
    2ILE     SC 6237   1.472  -4.134  12.036
    2ILE     BB 6238   1.074  -3.789  12.054
    2ILE     SC 6239   1.103  -3.544  12.248
    2VAL     BB 6240   0.689  -3.813  12.021
    2VAL     SC 6241   0.728  -4.051  11.983
    2PRO     BB 6242   0.478  -3.556  12.010
    2PRO     SC 6243   0.707  -3.457  11.935
    2ASN     BB 6244   0.229  -3.665  11.852
    2ASN     SC 6245   0.286  -3.505  11.556
    2LYS     BB 6246   0.192  -3.932  12.019
    2LYS     SC 6247   0.333  -4.185  11.837
    2LYS     SC 6248   0.396  -4.450  11.656
    2ILE     BB 6249   0.173  -3.808  12.309
    2ILE     SC 6250   0.461  -3.779  12.418
    2ALA     BB 6251  -0.046  -3.576  12.239
    2GLY     BB 6252  -0.273  -3.825  12.152
    2GLU     BB 6253  -0.322  -3.974  12.427
    2GLU     SC 6254  -0.191  -4.304  12.603
    2ILE     BB 6255  -0.408  -3.724  12.589
    2ILE     SC 6256  -0.142  -3.599  12.700
    2THR     BB 6257  -0.646  -3.637  12.400
    2THR     SC 6258  -0.520  -3.500  12.218
    2ALA     BB 6259  -0.771  -3.939  12.381
    2THR     BB 6260  -0.851  -3.923  12.710
    2THR     SC 6261  -0.647  -4.025  12.848
    2ARG     BB 6262  -1.033  -3.668  12.705
    2ARG     SC 6263  -0.937  -3.376  12.721
    2ARG     SC 6264  -1.012  -3.029  12.832
    2VAL     BB 6265  -1.241  -3.785  12.483
    2VAL     SC 6266  -1.147  -3.736  12.247
    2ILE     BB 6267  -1.362  -4.023  12.664
    2ILE     SC 6268  -1.145  -4.236  12.682
    2PHE     BB 6269  -1.479  -3.792  12.856
    2PHE     SC 6270  -1.345  -3.887  13.115
    2PHE     SC 6271  -1.120  -3.941  13.114
    2PHE     SC 6272  -1.196  -4.052  13.274
    2ASN     BB 6273  -1.799  -3.674  12.793
    2ASN     SC 6274  -1.987  -3.775  12.612
    2ILE     BB 6275  -1.792  -3.471  13.064
    2ILE     SC 6276  -1.888  -3.661  13.251
    2ASP     BB 6277  -1.491  -3.353  13.107
    2ASP     SC 6278  -1.427  -3.097  12.965
    2PHE     BB 6279  -1.304  -3.512  13.340
    2PHE     SC 6280  -1.399  -3.695  13.511
    2PHE     SC 6281  -1.532  -3.631  13.690
    2PHE     SC 6282  -1.376  -3.735  13.781
    2ASP     BB 6283  -1.062  -3.441  13.153
    2ASP     SC 6284  -0.809  -3.632  13.138
    2ILE     BB 6285  -0.827  -3.182  13.118
    2ILE     SC 6286  -0.988  -2.969  13.276
    2GLU     BB 6287  -0.552  -3.295  13.269
    2GLU     SC 6288  -0.305  -3.162  13.042
    2VAL     BB 6289  -0.227  -3.499  13.277
    2VAL     SC 6290  -0.361  -3.710  13.293
    2SER     BB 6291   0.231  -3.928  13.490
    2SER     SC 6292   0.129  -4.147  13.391
    2ILE     BB 6293   0.424  -4.104  13.723
    2ILE     SC 6294   0.368  -3.939  13.946
    2ASP     BB 6295   0.314  -4.393  13.634
    2ASP     SC 6296   0.563  -4.583  13.742
    2ASP     BB 6297   0.257  -4.687  13.406
    2ASP     SC 6298   0.304  -4.423  13.213
    2GLU     BB 6299   0.326  -4.946  13.577
    2GLU     SC 6300   0.720  -5.002  13.410
    2PHE     BB 6301   0.241  -4.784  13.804
    2PHE     SC 6302   0.463  -4.863  13.994
    2PHE     SC 6303   0.486  -4.983  14.192
    2PHE     SC 6304   0.662  -5.026  14.086
    2ILE     BB 6305  -0.073  -4.701  13.907
    2ILE     SC 6306  -0.257  -4.916  13.798
    2SER     BB 6307  -0.012  -4.336  13.857
    2SER     SC 6308   0.086  -4.331  14.095
    2SER     BB 6309  -0.180  -4.004  13.909
    2SER     SC 6310  -0.280  -4.065  13.690
    2THR     BB 6311  -0.245  -3.661  13.793
    2THR     SC 6312  -0.109  -3.535  13.982
    2LEU     BB 6313  -0.577  -3.506  13.794
    2LEU     SC 6314  -0.746  -3.705  13.596
    2GLU     BB 6315  -0.803  -3.293  13.602
    2GLU     SC 6316  -0.672  -2.912  13.567
    2VAL     BB 6317  -1.134  -3.190  13.707
    2VAL     SC 6318  -1.144  -3.448  13.798
    2LYS     BB 6319  -1.500  -3.213  13.717
    2LYS     SC 6320  -1.510  -3.033  13.454
    2LYS     SC 6321  -1.617  -2.870  13.230
    2ASN     BB 6322  -1.867  -3.127  13.803
    2ASN     SC 6323  -1.865  -3.245  13.506
    2PRO     BB 6324  -2.227  -3.101  13.900
    2PRO     SC 6325  -2.258  -3.138  13.669
    2ASP     BB 6326  -2.248  -3.317  14.135
    2ASP     SC 6327  -2.095  -3.503  13.950
    2LEU     BB 6328  -2.032  -3.109  14.297
    2LEU     SC 6329  -1.799  -3.330  14.233
    2PHE     BB 6330  -2.239  -2.901  14.374
    2PHE     SC 6331  -2.394  -2.705  14.245
    2PHE     SC 6332  -2.314  -2.486  14.232
    2PHE     SC 6333  -2.499  -2.466  14.330
    2ASN     BB 6334  -2.211  -2.796  14.684
    2ASN     SC 6335  -2.337  -2.570  14.812
    2LYS     BB 6336  -1.942  -2.944  14.807
    2LYS     SC 6337  -2.119  -3.182  14.690
    2LYS     SC 6338  -2.422  -3.278  14.666
    2ASN     BB 6339  -1.770  -3.107  15.055
    2ASN     SC 6340  -1.904  -2.878  15.260
    2ILE     BB 6341  -1.479  -3.266  15.104
    2ILE     SC 6342  -1.236  -3.088  15.024
    2GLN     BB 6343  -1.542  -3.442  15.367
    2GLN     SC 6344  -1.364  -3.469  15.638
    2GLN     BB 6345  -1.831  -3.543  15.276
    2GLN     SC 6346  -2.138  -3.298  15.248
    2VAL     BB 6347  -1.673  -3.613  14.998
    2VAL     SC 6348  -1.838  -3.567  14.813
    2GLY     BB 6349  -1.444  -3.833  15.089
    2LEU     BB 6350  -1.179  -3.915  14.896
    2LEU     SC 6351  -1.221  -3.656  14.656
    2SER     BB 6352  -0.971  -4.073  15.078
    2SER     SC 6353  -0.819  -3.856  15.160
    2THR     BB 6354  -1.153  -4.294  15.243
    2THR     SC 6355  -1.203  -4.189  15.471
    2ASN     BB 6356  -1.341  -4.428  14.997
    2ASN     SC 6357  -1.590  -4.252  15.099
    2LYS     BB 6358  -1.064  -4.463  14.759
    2LYS     SC 6359  -1.322  -4.426  14.601
    2LYS     SC 6360  -1.565  -4.508  14.413
    2ASP     BB 6361  -0.749  -4.357  14.780
    2ASP     SC 6362  -0.735  -4.647  14.922
    2PHE     BB 6363  -0.759  -4.005  14.751
    2PHE     SC 6364  -0.863  -4.099  14.505
    2PHE     SC 6365  -1.054  -3.969  14.511
    2PHE     SC 6366  -1.122  -4.158  14.452
    2ASN     BB 6367  -0.633  -3.675  14.668
    2ASN     SC 6368  -0.461  -3.583  14.931
    2ILE     BB 6369  -0.667  -3.326  14.715
    2ILE     SC 6370  -0.963  -3.266  14.643
    2ILE     BB 6371  -0.475  -3.056  14.590
    2ILE     SC 6372  -0.260  -3.228  14.455
    2GLN     BB 6373  -0.696  -2.875  14.410
    2GLN     SC 6374  -0.488  -2.583  14.462
    2ILE     BB 6375  -0.893  -2.560  14.365
    2ILE     SC 6376  -1.118  -2.694  14.525
    2ARG     BB 6377  -1.069  -2.398  14.085
    2ARG     SC 6378  -0.862  -2.301  13.872
    2ARG     SC 6379  -0.736  -2.130  13.566
    2ARG     BB 6380  -1.256  -2.082  14.127
    2ARG     SC 6381  -1.486  -2.156  14.315
    2ARG     SC 6382  -1.604  -2.068  14.625
    2LYS     BB 6383  -1.301  -1.846  13.902
    2LYS     SC 6384  -1.599  -1.773  13.988
    2LYS     SC 6385  -1.894  -1.667  14.038
    2GLY     BB 6386  -0.962  -1.861  13.898
    2LYS     BB 6387  -0.943  -1.930  14.187
    2LYS     SC 6388  -1.068  -1.648  14.333
    2LYS     SC 6389  -1.210  -1.387  14.447
    2ILE     BB 6390  -0.791  -2.030  14.479
    2ILE     SC 6391  -0.525  -2.156  14.362
    2LEU     BB 6392  -0.851  -2.294  14.709
    2LEU     SC 6393  -1.183  -2.202  14.688
    2LEU     BB 6394  -0.826  -2.421  15.001
    2LEU     SC 6395  -0.594  -2.357  15.237
    2PRO     BB 6396  -0.836  -2.785  15.091
    2PRO     SC 6397  -0.669  -2.771  14.940
    2ASP     BB 6398  -0.934  -2.740  15.372
    2ASP     SC 6399  -0.735  -2.683  15.624
    2ASP     BB 6400  -1.150  -2.900  15.576
    2ASP     SC 6401  -1.106  -3.196  15.424
    2TYR     BB 6402  -1.401  -2.718  15.439
    2TYR     SC 6403  -1.622  -2.773  15.573
    2TYR     SC 6404  -1.734  -2.575  15.524
    2TYR     SC 6405  -1.768  -2.518  15.750
    2THR     BB 6406  -1.473  -2.686  15.082
    2THR     SC 6407  -1.247  -2.532  15.049
    2GLU     BB 6408  -1.634  -2.527  14.816
    2GLU     SC 6409  -1.924  -2.279  14.791
    2LEU     BB 6410  -1.778  -2.671  14.530
    2LEU     SC 6411  -1.523  -2.909  14.550
    2LYS     BB 6412  -1.828  -2.613  14.187
    2LYS     SC 6413  -1.940  -2.291  14.287
    2LYS     SC 6414  -2.046  -2.033  14.442
    2GLU     BB 6415  -1.941  -2.586  13.879
    2GLU     SC 6416  -2.265  -2.693  13.676
    2GLY     BB 6417  -1.647  -2.621  13.675
    2ASP     BB 6418  -1.437  -2.673  13.866
    2ASP     SC 6419  -1.539  -2.450  14.116
    2ILE     BB 6420  -0.996  -3.070  14.011
    2ILE     SC 6421  -1.257  -3.113  14.158
    2VAL     BB 6422  -0.725  -3.215  14.198
    2VAL     SC 6423  -0.542  -3.077  14.069
    2VAL     BB 6424  -0.615  -3.550  14.159
    2VAL     SC 6425  -0.864  -3.625  14.163
    2PHE     BB 6426  -0.460  -3.831  14.356
    2PHE     SC 6427  -0.197  -3.761  14.414
    2PHE     SC 6428  -0.031  -3.867  14.292
    2PHE     SC 6429   0.011  -3.917  14.491
    2ALA     BB 6430  -0.363  -4.173  14.263
    2ARG     BB 6431  -0.493  -4.422  14.092
    2ARG     SC 6432  -0.365  -4.688  14.264
    2ARG     SC 6433  -0.265  -4.919  14.540
    2THR     BB 6434  -0.635  -4.467  13.782
    2THR     SC 6435  -0.452  -4.447  13.593
    2THR     BB 6436  -0.864  -4.673  13.861
    2THR     SC 6437  -0.777  -4.917  13.815
    2ILE     BB 6438  -0.956  -4.511  14.115
    2ILE     SC 6439  -0.772  -4.603  14.346
    2ILE     BB 6440  -1.036  -4.244  13.966
    2ILE     SC 6441  -0.778  -4.072  13.955
    2ASN     BB 6442  -1.254  -4.379  13.786
    2ASN     SC 6443  -1.058  -4.400  13.518
    2SER     BB 6444  -1.429  -4.479  14.035
    2SER     SC 6445  -1.373  -4.678  14.168
    2LEU     BB 6446  -1.517  -4.181  14.085
    2LEU     SC 6447  -1.391  -3.953  14.247
    2ALA     BB 6448  -1.603  -4.097  13.768
    2GLU     BB 6449  -1.875  -4.339  13.855
    2GLU     SC 6450  -1.664  -4.622  13.653
    2LYS     BB 6451  -1.924  -4.208  14.213
    2LYS     SC 6452  -1.970  -4.474  14.350
    2LYS     SC 6453  -2.056  -4.593  14.636
    2LYS     BB 6454  -2.215  -4.485  12.388
    2LYS     SC 6455  -1.943  -4.553  12.594
    2LYS     SC 6456  -1.682  -4.492  12.773
    2GLN     BB 6457  -1.957  -4.338  12.205
    2GLN     SC 6458  -2.138  -4.025  12.360
    2ASN     BB 6459  -1.852  -4.155  11.901
    2ASN     SC 6460  -2.086  -4.378  11.824
    2PHE     BB 6461  -1.565  -4.151  11.679
    2PHE     SC 6462  -1.455  -4.071  11.958
    2PHE     SC 6463  -1.482  -4.212  12.143
    2PHE     SC 6464  -1.517  -4.019  12.218
    2ALA     BB 6465  -1.419  -3.920  11.434
    2ILE     BB 6466  -1.099  -3.951  11.234
    2ILE     SC 6467  -0.969  -4.006  11.488
    2ILE     BB 6468  -0.921  -3.680  11.065
    2ILE     SC 6469  -1.191  -3.588  10.942
    2GLY     BB 6470  -0.623  -3.688  10.918
    2VAL     BB 6471  -0.359  -3.927  10.958
    2VAL     SC 6472  -0.533  -4.094  10.914
    2SER     BB 6473  -0.151  -3.813  11.130
    2SER     SC 6474  -0.139  -3.563  11.157
    2ASN     BB 6475   0.058  -3.867  11.400
    2ASN     SC 6476   0.336  -3.871  11.213
    2PHE     BB 6477  -0.159  -3.756  11.595
    2PHE     SC 6478  -0.183  -3.505  11.714
    2PHE     SC 6479  -0.399  -3.418  11.708
    2PHE     SC 6480  -0.350  -3.415  11.912
    2THR     BB 6481  -0.425  -3.883  11.476
    2THR     SC 6482  -0.489  -3.720  11.281
    2LEU     BB 6483  -0.325  -4.169  11.506
    2LEU     SC 6484  -0.031  -4.263  11.371
    2SER     BB 6485  -0.299  -4.175  11.824
    2SER     SC 6486  -0.106  -4.105  11.952
    2VAL     BB 6487  -0.602  -4.125  11.882
    2VAL     SC 6488  -0.660  -3.871  11.874
    2ILE     BB 6489  -0.711  -4.391  11.757
    2ILE     SC 6490  -0.780  -4.426  11.503
    2GLU     BB 6491  -0.538  -4.609  11.900
    2GLU     SC 6492  -0.138  -4.644  11.841
    2THR     BB 6493  -0.613  -4.526  12.184
    2THR     SC 6494  -0.460  -4.334  12.277
    2LEU     BB 6495  -0.930  -4.550  12.163
    2LEU     SC 6496  -1.033  -4.228  12.110
    2VAL     BB 6497  -0.927  -4.858  12.074
    2VAL     SC 6498  -0.964  -4.866  11.821
    2GLN     BB 6499  -0.749  -4.971  12.313
    2GLN     SC 6500  -0.458  -5.105  12.322
    2LYS     BB 6501  -1.003  -4.855  12.503
    2LYS     SC 6502  -0.826  -4.632  12.621
    2LYS     SC 6503  -0.569  -4.536  12.793
    2ARG     BB 6504  -1.279  -4.946  12.335
    2ARG     SC 6505  -1.184  -5.225  12.461
    2ARG     SC 6506  -1.038  -5.523  12.626
    2GLN     BB 6507  -1.387  -4.758  12.107
    2GLN     SC 6508  -1.474  -4.531  12.403
    2SER     BB 6509  -1.580  -4.589  11.881
    2SER     SC 6510  -1.797  -4.672  11.778
    2VAL     BB 6511  -1.381  -4.566  11.568
    2VAL     SC 6512  -1.220  -4.434  11.731
    2THR     BB 6513  -1.329  -4.353  11.275
    2THR     SC 6514  -1.557  -4.460  11.175
    2VAL     BB 6515  -1.133  -4.360  10.967
    2VAL     SC 6516  -0.907  -4.441  11.065
    2PHE     BB 6517  -1.005  -4.057  10.783
    2PHE     SC 6518  -1.306  -4.084  10.785
    2PHE     SC 6519  -1.463  -4.032  10.950
    2PHE     SC 6520  -1.535  -4.210  10.867
    2ASP     BB 6521  -0.875  -4.042  10.449
    2ASP     SC 6522  -0.551  -3.939  10.524
    2ILE     BB 6523  -0.727  -3.973  10.119
    2ILE     SC 6524  -0.759  -3.706  10.030
    2ASP     BB 6525  -0.524  -4.188  10.180
    2ASP     SC 6526  -0.208  -4.180  10.147
    2GLU     BB 6527  -0.497  -4.526  10.122
    2GLU     SC 6528  -0.581  -4.739   9.807
    2ARG     BB 6529  -0.236  -4.608  10.279
    2ARG     SC 6530  -0.006  -4.565  10.035
    2ARG     SC 6531   0.223  -4.576   9.743
    2ARG     BB 6532  -0.325  -4.497  10.554
    2ARG     SC 6533  -0.232  -4.176  10.541
    2ARG     SC 6534  -0.123  -3.831  10.482
    2LEU     BB 6535  -0.577  -4.671  10.573
    2LEU     SC 6536  -0.858  -4.661  10.467
    2ASN     BB 6537  -0.452  -4.961  10.522
    2ASN     SC 6538  -0.537  -4.976  10.202
    2LEU     BB 6539  -0.286  -4.941  10.779
    2LEU     SC 6540   0.013  -4.807  10.673
    2TYR     BB 6541  -0.537  -4.847  10.989
    2TYR     SC 6542  -0.372  -4.600  11.005
    2TYR     SC 6543  -0.345  -4.378  11.057
    2TYR     SC 6544  -0.132  -4.361  10.961
    2LEU     BB 6545  -0.741  -5.091  10.958
    2LEU     SC 6546  -0.946  -5.130  10.729
    2SER     BB 6547  -0.526  -5.334  11.067
    2SER     SC 6548  -0.477  -5.417  10.837
    2GLU     BB 6549  -0.226  -5.223  11.212
    2GLU     SC 6550  -0.126  -5.427  10.950
    2PHE     BB 6551  -0.382  -4.984  11.428
    2PHE     SC 6552  -0.306  -4.755  11.335
    2PHE     SC 6553  -0.117  -4.685  11.450
    2PHE     SC 6554  -0.262  -4.540  11.492
    2ASP     BB 6555  -0.659  -4.993  11.540
    2ASP     SC 6556  -0.539  -5.232  11.733
    2THR     BB 6557  -0.980  -5.022  11.414
    2THR     SC 6558  -1.001  -4.816  11.259
    2VAL     BB 6559  -1.318  -5.023  11.355
    2VAL     SC 6560  -1.454  -4.966  11.571
    2GLU     BB 6561  -1.293  -4.806  11.104
    2GLU     SC 6562  -1.675  -4.788  10.948
    2GLY     BB 6563  -1.210  -4.752  10.737
    2ILE     BB 6564  -1.214  -4.460  10.499
    2ILE     SC 6565  -1.520  -4.541  10.518
    2VAL     BB 6566  -1.207  -4.329  10.183
    2VAL     SC 6567  -1.002  -4.403  10.031
    2ILE     BB 6568  -1.169  -3.961  10.193
    2ILE     SC 6569  -1.434  -3.994  10.270
    2ASP     BB 6570  -1.307  -3.658  10.137
    2ASP     SC 6571  -1.180  -3.437   9.936
    2THR     BB 6572  -1.362  -3.373  10.371
    2THR     SC 6573  -1.223  -3.483  10.544
    2THR     BB 6574  -1.457  -3.133  10.174
    2THR     SC 6575  -1.224  -3.067  10.094
    2ASN     BB 6576  -1.681  -3.327  10.091
    2ASN     SC 6577  -1.738  -3.421   9.802
    2LYS     BB 6578  -2.020  -3.364  10.168
    2LYS     SC 6579  -2.107  -3.043  10.186
    2LYS     SC 6580  -2.153  -2.733  10.244
    2VAL     BB 6581  -2.107  -3.642  10.041
    2VAL     SC 6582  -2.233  -3.604   9.817
    2ALA     BB 6583  -1.832  -3.779  10.134
    2LEU     BB 6584  -1.939  -3.721  10.455
    2LEU     SC 6585  -1.782  -3.471  10.599
    2ALA     BB 6586  -2.256  -3.831  10.426
    2LYS     BB 6587  -2.149  -4.163  10.364
    2LYS     SC 6588  -2.088  -4.138  10.040
    2LYS     SC 6589  -2.064  -4.113   9.721
    2LYS     BB 6590  -2.029  -4.201  10.673
    2LYS     SC 6591  -1.742  -4.085  10.602
    2LYS     SC 6592  -1.578  -3.846  10.643
    2GLY     BB 6593  -2.229  -4.066  10.884
    2ILE     BB 6594  -2.122  -3.797  11.049
    2ILE     SC 6595  -1.923  -3.686  10.946
    2GLN     BB 6596  -2.403  -3.751  11.226
    2GLN     SC 6597  -2.542  -3.776  10.917
    2SER     BB 6598  -2.321  -4.015  11.438
    2SER     SC 6599  -2.311  -4.189  11.296
    2TYR     BB 6600  -2.098  -3.830  11.578
    2TYR     SC 6601  -1.890  -4.030  11.448
    2TYR     SC 6602  -1.933  -4.074  11.225
    2TYR     SC 6603  -1.855  -4.295  11.232
    2ASP     BB 6604  -2.017  -3.679  11.871
    2ASP     SC 6605  -2.181  -3.936  12.024
    2TRP     BB 6606  -1.699  -3.688  11.786
    2TRP     SC 6607  -1.625  -3.606  12.100
    2TRP     SC 6608  -1.730  -3.619  12.282
    2TRP     SC 6609  -1.476  -3.396  12.235
    2TRP     SC 6610  -1.580  -3.402  12.420
    2VAL     BB 6611  -1.475  -3.474  11.592
    2VAL     SC 6612  -1.608  -3.539  11.366
    2ILE     BB 6613  -1.142  -3.514  11.449
    2ILE     SC 6614  -1.072  -3.583  11.717
    2VAL     BB 6615  -0.913  -3.269  11.314
    2VAL     SC 6616  -1.071  -3.182  11.127
    2GLY     BB 6617  -0.561  -3.339  11.210
    2ILE     BB 6618  -0.518  -3.107  11.008
    2ILE     SC 6619  -0.647  -3.228  10.755
    2GLU     BB 6620  -0.221  -2.892  10.956
    2GLU     SC 6621   0.051  -2.957  11.232
    2ASN     BB 6622  -0.061  -2.827  10.689
    2ASN     SC 6623   0.169  -3.059  10.738
    2GLU     BB 6624  -0.357  -2.781  10.569
    2GLU     SC 6625  -0.350  -3.089  10.313
    2LEU     BB 6626  -0.590  -2.536  10.571
    2LEU     SC 6627  -0.549  -2.260  10.713
    2GLU     BB 6628  -0.816  -2.583  10.359
    2GLU     SC 6629  -0.826  -2.455   9.973
    2SER     BB 6630  -0.894  -2.870  10.459
    2SER     SC 6631  -0.777  -3.079  10.381
    2SER     BB 6632  -0.955  -2.798  10.762
    2SER     SC 6633  -0.777  -2.806  10.942
    2LEU     BB 6634  -1.169  -2.561  10.720
    2LEU     SC 6635  -0.970  -2.296  10.756
    2VAL     BB 6636  -1.376  -2.718  10.543
    2VAL     SC 6637  -1.339  -2.668  10.290
    2THR     BB 6638  -1.415  -2.950  10.747
    2THR     SC 6639  -1.238  -3.140  10.709
    2VAL     BB 6640  -1.520  -2.778  10.995
    2VAL     SC 6641  -1.358  -2.664  11.140
    2LEU     BB 6642  -1.756  -2.643  10.844
    2LEU     SC 6643  -1.758  -2.397  10.651
    2ASN     BB 6644  -1.908  -2.906  10.770
    2ASN     SC 6645  -1.779  -2.951  10.461
    2LEU     BB 6646  -1.944  -2.996  11.074
    2LEU     SC 6647  -1.679  -3.205  11.103
    2LEU     BB 6648  -2.112  -2.744  11.154
    2LEU     SC 6649  -2.019  -2.451  11.234
    2ASP     BB 6650  -2.338  -2.754  10.926
    2ASP     SC 6651  -2.210  -2.548  10.686
    2LEU     BB 6652  -2.408  -3.071  11.032
    2LEU     SC 6653  -2.296  -3.197  10.748
    2LYS     BB 6654  -2.413  -3.070  11.360
    2LYS     SC 6655  -2.685  -2.916  11.309
    2LYS     SC 6656  -2.965  -2.781  11.239
    2CYS     BB 6657  -2.178  -3.130  11.538
    2CYS     SC 6658  -1.952  -3.322  11.513
    2THR     BB 6659  -2.105  -3.136  11.862
    2THR     SC 6660  -2.276  -3.291  12.003
    2ASN     BB 6661  -1.779  -3.224  11.869
    2ASN     SC 6662  -1.862  -3.238  12.191
    2ILE     BB 6663  -1.499  -3.014  11.755
    2ILE     SC 6664  -1.660  -2.979  11.503
    2THR     BB 6665  -1.163  -3.116  11.696
    2THR     SC 6666  -1.129  -3.186  11.953
    2VAL     BB 6667  -0.860  -2.922  11.631
    2VAL     SC 6668  -1.027  -2.802  11.473
    2LYS     BB 6669  -0.575  -2.877  11.432
    2LYS     SC 6670  -0.338  -3.098  11.464
    2LYS     SC 6671  -0.042  -3.219  11.423
    2ALA     BB 6672  -0.328  -2.608  11.473
    2LYS     BB 6673  -0.026  -2.474  11.329
    2LYS     SC 6674   0.040  -2.505  11.019
    2LYS     SC 6675   0.155  -2.506  10.725
    2ASP     BB 6676  -0.125  -2.166  11.389
    2ASP     SC 6677   0.154  -1.991  11.317
    2ASP     BB 6678  -0.254  -1.854  11.478
    2ASP     SC 6679  -0.048  -1.804  11.728
    2ASN     BB 6680  -0.422  -1.791  11.218
    2ASN     SC 6681  -0.221  -1.547  11.103
    2TYR     BB 6682  -0.550  -2.077  11.200
    2TYR     SC 6683  -0.302  -2.169  11.024
    2TYR     SC 6684  -0.239  -2.334  10.876
    2TYR     SC 6685  -0.108  -2.197  10.740
    2ARG     BB 6686  -0.694  -2.054  11.481
    2ARG     SC 6687  -0.556  -2.086  11.757
    2ARG     SC 6688  -0.335  -1.915  11.886
    2ARG     BB 6689  -0.879  -1.807  11.403
    2ARG     SC 6690  -0.674  -1.544  11.449
    2ARG     SC 6691  -0.417  -1.298  11.547
    2VAL     BB 6692  -1.049  -1.956  11.187
    2VAL     SC 6693  -0.960  -1.912  10.948
    2LEU     BB 6694  -1.145  -2.197  11.372
    2LEU     SC 6695  -0.905  -2.429  11.298
    2LEU     BB 6696  -1.292  -2.002  11.573
    2LEU     SC 6697  -1.163  -1.837  11.807
    2ALA     BB 6698  -1.480  -1.836  11.342
    2LEU     BB 6699  -1.573  -2.193  11.277
    2LEU     SC 6700  -1.478  -2.136  10.974
    2GLY     BB 6701  -1.699  -2.212  11.570
    2LEU     BB 6702  -1.825  -2.351  11.853
    2LEU     SC 6703  -2.134  -2.387  11.666
    2THR     BB 6704  -1.852  -2.407  12.195
    2THR     SC 6705  -2.043  -2.274  12.306
    2GLU     BB 6706  -1.767  -2.735  12.137
    2GLU     SC 6707  -2.051  -2.815  12.319
    2ASN     BB 6708  -1.496  -2.636  12.043
    2ASN     SC 6709  -1.625  -2.621  11.720
    2GLN     BB 6710  -1.142  -2.733  11.982
    2GLN     SC 6711  -1.179  -2.672  12.360
    2ILE     BB 6712  -0.791  -2.614  11.995
    2ILE     SC 6713  -0.873  -2.408  11.781
    2ILE     BB 6714  -0.482  -2.760  11.884
    2ILE     SC 6715  -0.562  -3.009  12.057
    2VAL     BB 6716  -0.104  -2.734  11.953
    2VAL     SC 6717  -0.135  -2.495  11.917
    2PRO     BB 6718   0.107  -2.990  11.985
    2PRO     SC 6719  -0.095  -3.086  11.851
    2ASN     BB 6720   0.385  -2.871  11.897
    2ASN     SC 6721   0.402  -3.021  11.593
    2LYS     BB 6722   0.380  -2.616  12.082
    2LYS     SC 6723   0.286  -2.354  11.882
    2LYS     SC 6724   0.276  -2.083  11.697
    2ILE     BB 6725   0.326  -2.752  12.363
    2ILE     SC 6726   0.018  -2.781  12.395
    2ALA     BB 6727   0.556  -2.982  12.338
    2GLY     BB 6728   0.794  -2.731  12.319
    2GLU     BB 6729   0.760  -2.589  12.600
    2GLU     SC 6730   0.469  -2.287  12.567
    2ILE     BB 6731   0.810  -2.844  12.773
    2ILE     SC 6732   0.526  -2.972  12.813
    2THR     BB 6733   1.089  -2.923  12.651
    2THR     SC 6734   1.021  -3.052  12.436
    2ALA     BB 6735   1.212  -2.619  12.674
    2THR     BB 6736   1.205  -2.648  13.014
    2THR     SC 6737   0.972  -2.552  13.098
    2ARG     BB 6738   1.385  -2.904  13.048
    2ARG     SC 6739   1.288  -3.196  13.030
    2ARG     SC 6740   1.333  -3.544  13.149
    2VAL     BB 6741   1.644  -2.783  12.890
    2VAL     SC 6742   1.613  -2.822  12.637
    2ILE     BB 6743   1.721  -2.551  13.099
    2ILE     SC 6744   1.501  -2.338  13.071
    2PHE     BB 6745   1.792  -2.781  13.310
    2PHE     SC 6746   1.591  -2.698  13.530
    2PHE     SC 6747   1.371  -2.650  13.474
    2PHE     SC 6748   1.402  -2.544  13.652
    2ASN     BB 6749   2.125  -2.889  13.333
    2ASN     SC 6750   2.239  -2.608  13.193
    2ILE     BB 6751   2.028  -3.108  13.587
    2ILE     SC 6752   2.070  -2.914  13.787
    2ASP     BB 6753   1.728  -3.228  13.551
    2ASP     SC 6754   1.701  -3.478  13.386
    2PHE     BB 6755   1.479  -3.080  13.728
    2PHE     SC 6756   1.511  -2.892  13.918
    2PHE     SC 6757   1.581  -2.963  14.127
    2PHE     SC 6758   1.408  -2.854  14.169
    2ASP     BB 6759   1.296  -3.144  13.481
    2ASP     SC 6760   1.055  -2.953  13.408
    2ILE     BB 6761   1.082  -3.403  13.382
    2ILE     SC 6762   1.198  -3.621  13.571
    2GLU     BB 6763   0.777  -3.294  13.460
    2GLU     SC 6764   0.601  -3.415  13.169
    2VAL     BB 6765   0.461  -3.090  13.392
    2VAL     SC 6766   0.585  -2.880  13.449
    2SER     BB 6767  -0.046  -2.670  13.502
    2SER     SC 6768   0.071  -2.446  13.433
    2ILE     BB 6769  -0.288  -2.496  13.692
    2ILE     SC 6770  -0.277  -2.670  13.910
    2ASP     BB 6771  -0.163  -2.206  13.634
    2ASP     SC 6772  -0.433  -2.015  13.685
    2ASP     BB 6773  -0.052  -1.908  13.434
    2ASP     SC 6774  -0.055  -2.164  13.227
    2GLU     BB 6775  -0.163  -1.655  13.591
    2GLU     SC 6776  -0.508  -1.607  13.336
    2PHE     BB 6777  -0.136  -1.825  13.829
    2PHE     SC 6778  -0.398  -1.746  13.959
    2PHE     SC 6779  -0.469  -1.632  14.148
    2PHE     SC 6780  -0.613  -1.584  14.001
    2ILE     BB 6781   0.140  -1.910  14.003
    2ILE     SC 6782   0.347  -1.692  13.949
    2SER     BB 6783   0.100  -2.275  13.925
    2SER     SC 6784  -0.072  -2.279  14.110
    2SER     BB 6785   0.250  -2.605  14.006
    2SER     SC 6786   0.402  -2.536  13.824
    2THR     BB 6787   0.345  -2.947  13.900
    2THR     SC 6788   0.163  -3.077  14.039
    2LEU     BB 6789   0.667  -3.102  13.981
    2LEU     SC 6790   0.878  -2.896  13.839
    2GLU     BB 6791   0.940  -3.310  13.849
    2GLU     SC 6792   0.817  -3.686  13.768
    2VAL     BB 6793   1.237  -3.415  14.034
    2VAL     SC 6794   1.216  -3.159  14.127
    2LYS     BB 6795   1.592  -3.387  14.133
    2LYS     SC 6796   1.674  -3.563  13.876
    2LYS     SC 6797   1.814  -3.730  13.673
    2ASN     BB 6798   1.929  -3.477  14.278
    2ASN     SC 6799   1.909  -3.197  14.049
    2PRO     BB 6800   2.241  -3.514  14.496
    2PRO     SC 6801   2.342  -3.472  14.292
    2ASP     BB 6802   2.195  -3.309  14.739
    2ASP     SC 6803   2.088  -3.119  14.535
    2LEU     BB 6804   1.947  -3.520  14.830
    2LEU     SC 6805   1.729  -3.306  14.711
    2PHE     BB 6806   2.131  -3.730  14.952
    2PHE     SC 6807   2.303  -3.930  14.860
    2PHE     SC 6808   2.251  -4.135  14.761
    2PHE     SC 6809   2.359  -4.188  14.933
    2ASN     BB 6810   2.019  -3.840  15.240
    2ASN     SC 6811   2.109  -4.069  15.391
    2LYS     BB 6812   1.728  -3.698  15.290
    2LYS     SC 6813   1.933  -3.456  15.233
    2LYS     SC 6814   2.230  -3.369  15.306
    2ASN     BB 6815   1.485  -3.519  15.494
    2ASN     SC 6816   1.575  -3.783  15.680
    2ILE     BB 6817   1.179  -3.363  15.523
    2ILE     SC 6818   1.024  -3.502  15.325
    2GLN     BB 6819   1.208  -3.262  15.828
    2GLN     SC 6820   1.101  -3.452  16.148
    2GLN     BB 6821   1.489  -3.120  15.753
    2GLN     SC 6822   1.816  -3.347  15.774
    2VAL     BB 6823   1.409  -3.072  15.452
    2VAL     SC 6824   1.615  -3.078  15.303
    2GLY     BB 6825   1.190  -2.823  15.447
    2LEU     BB 6826   0.931  -2.685  15.228
    2LEU     SC 6827   1.056  -2.939  15.027
    2SER     BB 6828   0.692  -2.515  15.346
    2SER     SC 6829   0.534  -2.701  15.432
    2THR     BB 6830   0.834  -2.332  15.570
    2THR     SC 6831   0.822  -2.456  15.794
    2ASN     BB 6832   1.083  -2.213  15.376
    2ASN     SC 6833   1.293  -2.397  15.534
    2LYS     BB 6834   0.881  -2.172  15.070
    2LYS     SC 6835   1.173  -2.205  14.986
    2LYS     SC 6836   1.457  -2.122  14.865
    2ASP     BB 6837   0.568  -2.278  15.005
    2ASP     SC 6838   0.522  -1.988  15.140
    2PHE     BB 6839   0.581  -2.624  14.976
    2PHE     SC 6840   0.755  -2.531  14.761
    2PHE     SC 6841   0.947  -2.656  14.801
    2PHE     SC 6842   1.016  -2.460  14.775
    2ASN     BB 6843   0.500  -2.957  14.846
    2ASN     SC 6844   0.266  -3.067  15.046
    2ILE     BB 6845   0.522  -3.312  14.890
    2ILE     SC 6846   0.824  -3.363  14.897
    2ILE     BB 6847   0.369  -3.576  14.718
    2ILE     SC 6848   0.190  -3.404  14.535
    2GLN     BB 6849   0.632  -3.747  14.596
    2GLN     SC 6850   0.410  -4.025  14.385
    2ILE     BB 6851   0.833  -4.060  14.589
    2ILE     SC 6852   0.988  -3.952  14.825
    2ARG     BB 6853   1.075  -4.213  14.358
    2ARG     SC 6854   0.931  -4.300  14.096
    2ARG     SC 6855   0.919  -4.443  13.753
    2ARG     BB 6856   1.247  -4.532  14.434
    2ARG     SC 6857   1.416  -4.459  14.678
    2ARG     SC 6858   1.451  -4.564  15.003
    2LYS     BB 6859   1.347  -4.763  14.217
    2LYS     SC 6860   1.615  -4.840  14.373
    2LYS     SC 6861   1.892  -4.946  14.488
    2GLY     BB 6862   1.015  -4.751  14.136
    2LYS     BB 6863   0.927  -4.686  14.410
    2LYS     SC 6864   1.016  -4.973  14.574
    2LYS     SC 6865   1.126  -5.241  14.706
    2ILE     BB 6866   0.694  -4.589  14.655
    2ILE     SC 6867   0.479  -4.479  14.462
    2LEU     BB 6868   0.695  -4.338  14.895
    2LEU     SC 6869   1.022  -4.435  14.968
    2LEU     BB 6870   0.603  -4.221  15.177
    2LEU     SC 6871   0.314  -4.282  15.344
    2PRO     BB 6872   0.621  -3.864  15.280
    2PRO     SC 6873   0.485  -3.861  15.095
    2ASP     BB 6874   0.628  -3.901  15.578
    2ASP     SC 6875   0.364  -3.964  15.759
    2ASP     BB 6876   0.782  -3.748  15.836
    2ASP     SC 6877   0.761  -3.434  15.702
    2TYR     BB 6878   1.056  -3.935  15.756
    2TYR     SC 6879   1.234  -3.887  15.943
    2TYR     SC 6880   1.351  -4.087  15.919
    2TYR     SC 6881   1.321  -4.152  16.142
    2THR     BB 6882   1.209  -3.958  15.423
    2THR     SC 6883   0.997  -4.107  15.333
    2GLU     BB 6884   1.435  -4.112  15.209
    2GLU     SC 6885   1.719  -4.361  15.251
    2LEU     BB 6886   1.646  -3.957  14.978
    2LEU     SC 6887   1.406  -3.714  14.943
    2LYS     BB 6888   1.774  -4.004  14.653
    2LYS     SC 6889   1.855  -4.332  14.764
    2LYS     SC 6890   1.899  -4.599  14.933
    2GLU     BB 6891   1.959  -4.025  14.380
    2GLU     SC 6892   2.319  -3.909  14.260
    2GLY     BB 6893   1.725  -3.987  14.113
    2ASP     BB 6894   1.478  -3.933  14.244
    2ASP     SC 6895   1.509  -4.151  14.515
    2ILE     BB 6896   1.021  -3.536  14.288
    2ILE     SC 6897   1.200  -3.549  14.515
    2VAL     BB 6898   0.708  -3.403  14.402
    2VAL     SC 6899   0.564  -3.535  14.226
    2VAL     BB 6900   0.613  -3.066  14.346
    2VAL     SC 6901   0.854  -2.996  14.421
    2PHE     BB 6902   0.409  -2.791  14.507
    2PHE     SC 6903   0.139  -2.872  14.487
    2PHE     SC 6904   0.021  -2.779  14.311
    2PHE     SC 6905  -0.100  -2.740  14.478
    2ALA     BB 6906   0.333  -2.449  14.403
    2ARG     BB 6907   0.501  -2.194  14.277
    2ARG     SC 6908   0.332  -1.933  14.419
    2ARG     SC 6909   0.166  -1.709  14.668
    2THR     BB 6910   0.717  -2.141  14.016
    2THR     SC 6911   0.591  -2.155  13.786
    2THR     BB 6912   0.919  -1.936  14.157
    2THR     SC 6913   0.844  -1.692  14.099
    2ILE     BB 6914   0.944  -2.108  14.420
    2ILE     SC 6915   0.706  -2.024  14.600
    2ILE     BB 6916   1.060  -2.370  14.288
    2ILE     SC 6917   0.815  -2.542  14.208
    2ASN     BB 6918   1.316  -2.231  14.174
    2ASN     SC 6919   1.196  -2.201  13.866
    2SER     BB 6920   1.421  -2.139  14.463
    2SER     SC 6921   1.332  -1.943  14.585
    2LEU     BB 6922   1.495  -2.438  14.524
    2LEU     SC 6923   1.333  -2.671  14.640
    2ALA     BB 6924   1.663  -2.508  14.238
    2GLU     BB 6925   1.900  -2.272  14.401
    2GLU     SC 6926   1.736  -1.977  14.174
    2LYS     BB 6927   1.857  -2.414  14.754
    2LYS     SC 6928   1.863  -2.151  14.906
    2LYS     SC 6929   1.871  -2.041  15.208
    2GLN     BB 6930  -0.940   0.745   9.805
    2GLN     SC 6931  -1.268   0.673  10.027
    2ASN     BB 6932  -0.785   0.438   9.922
    2ASN     SC 6933  -0.543   0.661  10.004
    2PHE     BB 6934  -0.662   0.163   9.723
    2PHE     SC 6935  -0.953   0.207   9.620
    2PHE     SC 6936  -1.016   0.418   9.541
    2PHE     SC 6937  -1.184   0.351   9.647
    2ALA     BB 6938  -0.618  -0.196   9.784
    2ILE     BB 6939  -0.497  -0.465   9.548
    2ILE     SC 6940  -0.716  -0.363   9.378
    2ILE     BB 6941  -0.539  -0.830   9.567
    2ILE     SC 6942  -0.438  -0.813   9.862
    2GLY     BB 6943  -0.469  -1.062   9.340
    2VAL     BB 6944  -0.421  -1.036   8.984
    2VAL     SC 6945  -0.258  -0.860   9.029
    2SER     BB 6946  -0.664  -1.121   8.843
    2SER     SC 6947  -0.831  -1.267   8.962
    2ASN     BB 6948  -0.893  -1.050   8.594
    2ASN     SC 6949  -0.797  -1.310   8.405
    2PHE     BB 6950  -1.072  -0.892   8.797
    2PHE     SC 6951  -1.300  -0.974   8.934
    2PHE     SC 6952  -1.309  -0.917   9.160
    2PHE     SC 6953  -1.484  -0.833   9.081
    2THR     BB 6954  -0.848  -0.732   8.956
    2THR     SC 6955  -0.765  -0.908   9.133
    2LEU     BB 6956  -0.734  -0.587   8.710
    2LEU     SC 6957  -0.620  -0.731   8.445
    2SER     BB 6958  -0.997  -0.426   8.643
    2SER     SC 6959  -1.181  -0.509   8.503
    2VAL     BB 6960  -1.010  -0.270   8.912
    2VAL     SC 6961  -1.140  -0.399   9.097
    2ILE     BB 6962  -0.742  -0.130   8.869
    2ILE     SC 6963  -0.516  -0.325   8.962
    2GLU     BB 6964  -0.775  -0.015   8.571
    2GLU     SC 6965  -0.740  -0.254   8.242
    2THR     BB 6966  -1.030   0.146   8.640
    2THR     SC 6967  -1.247   0.004   8.603
    2LEU     BB 6968  -0.938   0.320   8.892
    2LEU     SC 6969  -1.070   0.156   9.160
    2VAL     BB 6970  -0.695   0.459   8.745
    2VAL     SC 6971  -0.516   0.269   8.772
    2GLN     BB 6972  -0.869   0.578   8.502
    2GLN     SC 6973  -0.853   0.510   8.187
    2LYS     BB 6974  -1.036   0.736   8.749
    2LYS     SC 6975  -1.289   0.573   8.693
    2LYS     SC 6976  -1.530   0.477   8.498
    2ARG     BB 6977  -0.796   0.860   8.940
    2ARG     SC 6978  -0.771   1.058   8.690
    2ARG     SC 6979  -0.772   1.261   8.379
    2GLN     BB 6980  -0.701   0.668   9.170
    2GLN     SC 6981  -1.053   0.746   9.271
    2SER     BB 6982  -0.575   0.538   9.464
    2SER     SC 6983  -0.426   0.661   9.625
    2VAL     BB 6984  -0.362   0.253   9.367
    2VAL     SC 6985  -0.571   0.159   9.242
    2THR     BB 6986  -0.267  -0.065   9.493
    2THR     SC 6987  -0.166   0.044   9.701
    2VAL     BB 6988  -0.045  -0.342   9.385
    2VAL     SC 6989  -0.133  -0.333   9.142
    2PHE     BB 6990  -0.088  -0.703   9.467
    2PHE     SC 6991  -0.028  -0.521   9.699
    2PHE     SC 6992  -0.171  -0.381   9.817
    2PHE     SC 6993   0.005  -0.270   9.801
    2ASP     BB 6994   0.152  -0.968   9.440
    2ASP     SC 6995  -0.023  -1.168   9.215
    2ILE     BB 6996   0.358  -1.274   9.422
    2ILE     SC 6997   0.287  -1.473   9.610
    2ASP     BB 6998   0.395  -1.217   9.130
    2ASP     SC 6999   0.362  -1.409   8.880
    2GLU     BB 7000   0.620  -1.047   8.933
    2GLU     SC 7001   1.005  -1.003   8.925
    2ARG     BB 7002   0.490  -1.049   8.648
    2ARG     SC 7003   0.621  -1.337   8.524
    2ARG     SC 7004   0.815  -1.619   8.380
    2ARG     BB 7005   0.223  -0.924   8.738
    2ARG     SC 7006   0.040  -1.186   8.833
    2ARG     SC 7007  -0.129  -1.492   8.938
    2LEU     BB 7008   0.341  -0.663   8.847
    2LEU     SC 7009   0.481  -0.572   9.101
    2ASN     BB 7010   0.519  -0.558   8.603
    2ASN     SC 7011   0.802  -0.692   8.712
    2LEU     BB 7012   0.283  -0.519   8.416
    2LEU     SC 7013   0.243  -0.830   8.263
    2TYR     BB 7014   0.097  -0.322   8.611
    2TYR     SC 7015  -0.076  -0.571   8.644
    2TYR     SC 7016  -0.280  -0.660   8.709
    2TYR     SC 7017  -0.247  -0.865   8.591
    2LEU     BB 7018   0.308  -0.091   8.666
    2LEU     SC 7019   0.536  -0.091   8.878
    2SER     BB 7020   0.359  -0.004   8.348
    2SER     SC 7021   0.563  -0.133   8.300
    2GLU     BB 7022   0.078  -0.122   8.161
    2GLU     SC 7023   0.381  -0.211   7.990
    2PHE     BB 7024  -0.183  -0.048   8.399
    2PHE     SC 7025  -0.201  -0.340   8.334
    2PHE     SC 7026  -0.370  -0.475   8.249
    2PHE     SC 7027  -0.194  -0.571   8.186
    2ASP     BB 7028  -0.163   0.251   8.551
    2ASP     SC 7029  -0.215   0.348   8.255
    2THR     BB 7030  -0.043   0.246   8.830
    2THR     SC 7031  -0.066   0.042   8.980
    2VAL     BB 7032   0.051   0.401   9.126
    2VAL     SC 7033  -0.140   0.556   9.218
    2GLU     BB 7034   0.124   0.106   9.260
    2GLU     SC 7035   0.303   0.195   9.621
    2GLY     BB 7036   0.375  -0.177   9.301
    2ILE     BB 7037   0.400  -0.500   9.493
    2ILE     SC 7038   0.464  -0.287   9.723
    2VAL     BB 7039   0.588  -0.762   9.613
    2VAL     SC 7040   0.716  -0.899   9.427
    2ILE     BB 7041   0.366  -1.003   9.778
    2ILE     SC 7042   0.370  -0.793   9.963
    2ASP     BB 7043   0.271  -1.152  10.066
    2ASP     SC 7044   0.286  -1.470  10.120
    2THR     BB 7045  -0.066  -1.167  10.223
    2THR     SC 7046  -0.170  -1.074  10.019
    2THR     BB 7047  -0.023  -1.381  10.463
    2THR     SC 7048  -0.037  -1.591  10.320
    2ASN     BB 7049   0.193  -1.184  10.559
    2ASN     SC 7050   0.489  -1.254  10.610
    2LYS     BB 7051   0.207  -0.936  10.801
    2LYS     SC 7052   0.090  -0.943  11.082
    2LYS     SC 7053   0.023  -0.797  11.359
    2VAL     BB 7054   0.481  -0.783  10.747
    2VAL     SC 7055   0.665  -0.860  10.915
    2ALA     BB 7056   0.437  -0.794  10.429
    2LEU     BB 7057   0.160  -0.597  10.481
    2LEU     SC 7058  -0.126  -0.755  10.461
    2ALA     BB 7059   0.300  -0.377  10.686
    2LYS     BB 7060   0.516  -0.275  10.425
    2LYS     SC 7061   0.764  -0.492  10.459
    2LYS     SC 7062   1.037  -0.660  10.519
    2LYS     BB 7063   0.253  -0.129  10.263
    2LYS     SC 7064   0.192  -0.387  10.097
    2LYS     SC 7065  -0.013  -0.594  10.072
    2GLY     BB 7066   0.067   0.026  10.473
    2ILE     BB 7067  -0.241  -0.112  10.495
    2ILE     SC 7068  -0.255  -0.347  10.405
    2GLN     BB 7069  -0.372   0.112  10.708
    2GLN     SC 7070  -0.233  -0.088  11.040
    2SER     BB 7071  -0.414   0.348  10.469
    2SER     SC 7072  -0.206   0.352  10.370
    2TYR     BB 7073  -0.669   0.197  10.362
    2TYR     SC 7074  -0.494   0.116  10.118
    2TYR     SC 7075  -0.290   0.015  10.162
    2TYR     SC 7076  -0.171   0.154  10.015
    2ASP     BB 7077  -1.001   0.220  10.302
    2ASP     SC 7078  -0.987   0.566  10.271
    2TRP     BB 7079  -0.975  -0.004  10.063
    2TRP     SC 7080  -1.292   0.069   9.982
    2TRP     SC 7081  -1.415   0.233  10.027
    2TRP     SC 7082  -1.543  -0.072   9.946
    2TRP     SC 7083  -1.673   0.090   9.993
    2VAL     BB 7084  -0.978  -0.367  10.031
    2VAL     SC 7085  -0.737  -0.388  10.150
    2ILE     BB 7086  -0.903  -0.601   9.763
    2ILE     SC 7087  -1.097  -0.445   9.618
    2VAL     BB 7088  -0.973  -0.955   9.728
    2VAL     SC 7089  -0.841  -1.028   9.940
    2GLY     BB 7090  -0.908  -1.158   9.420
    2ILE     BB 7091  -0.886  -1.443   9.549
    2ILE     SC 7092  -0.592  -1.435   9.638
    2GLU     BB 7093  -1.017  -1.765   9.432
    2GLU     SC 7094  -1.265  -1.714   9.122
    2ASN     BB 7095  -0.864  -2.042   9.388
    2ASN     SC 7096  -0.820  -1.990   9.064
    2GLU     BB 7097  -0.736  -1.979   9.676
    2GLU     SC 7098  -0.359  -1.926   9.550
    2LEU     BB 7099  -0.830  -2.010   9.999
    2LEU     SC 7100  -1.102  -2.135  10.089
    2GLU     BB 7101  -0.590  -1.974  10.196
    2GLU     SC 7102  -0.337  -2.262  10.330
    2SER     BB 7103  -0.501  -1.694  10.090
    2SER     SC 7104  -0.343  -1.665   9.895
    2SER     BB 7105  -0.777  -1.539  10.123
    2SER     SC 7106  -0.951  -1.531   9.939
    2LEU     BB 7107  -0.834  -1.597  10.435
    2LEU     SC 7108  -1.045  -1.855  10.405
    2VAL     BB 7109  -0.567  -1.483  10.551
    2VAL     SC 7110  -0.395  -1.674  10.596
    2THR     BB 7111  -0.597  -1.202  10.421
    2THR     SC 7112  -0.491  -1.197  10.182
    2VAL     BB 7113  -0.874  -1.117  10.553
    2VAL     SC 7114  -1.084  -1.198  10.455
    2LEU     BB 7115  -0.785  -1.156  10.848
    2LEU     SC 7116  -0.760  -1.417  11.019
    2ASN     BB 7117  -0.547  -0.952  10.847
    2ASN     SC 7118  -0.290  -1.159  10.774
    2LEU     BB 7119  -0.735  -0.708  10.770
    2LEU     SC 7120  -0.690  -0.702  10.436
    2LEU     BB 7121  -0.905  -0.722  11.030
    2LEU     SC 7122  -1.169  -0.882  11.102
    2ASP     BB 7123  -0.670  -0.726  11.256
    2ASP     SC 7124  -0.664  -1.059  11.301
    2LEU     BB 7125  -0.565  -0.428  11.128
    2LEU     SC 7126  -0.295  -0.568  11.004
    2LYS     BB 7127  -0.822  -0.235  11.068
    2LYS     SC 7128  -0.832  -0.220  11.384
    2LYS     SC 7129  -0.804  -0.199  11.701
    2CYS     BB 7130  -0.981  -0.215  10.820
    2CYS     SC 7131  -0.908  -0.241  10.525
    2THR     BB 7132  -1.249  -0.092  10.677
    2THR     SC 7133  -1.265   0.183  10.707
    2ASN     BB 7134  -1.277  -0.201  10.366
    2ASN     SC 7135  -1.507   0.039  10.341
    2ILE     BB 7136  -1.363  -0.544  10.261
    2ILE     SC 7137  -1.142  -0.645  10.445
    2THR     BB 7138  -1.321  -0.705   9.944
    2THR     SC 7139  -1.500  -0.539   9.831
    2VAL     BB 7140  -1.432  -1.030   9.817
    2VAL     SC 7141  -1.343  -1.103  10.050
    2LYS     BB 7142  -1.344  -1.323   9.643
    2LYS     SC 7143  -1.291  -1.292   9.324
    2LYS     SC 7144  -1.252  -1.393   9.021
    2ALA     BB 7145  -1.573  -1.604   9.581
    2LYS     BB 7146  -1.584  -1.935   9.433
    2LYS     SC 7147  -1.327  -2.119   9.419
    2LYS     SC 7148  -1.107  -2.343   9.376
    2ASP     BB 7149  -1.785  -2.043   9.670
    2ASP     SC 7150  -1.879  -2.342   9.565
    2ASP     BB 7151  -2.010  -2.125   9.927
    2ASP     SC 7152  -2.278  -2.127   9.739
    2ASN     BB 7153  -1.800  -2.215  10.143
    2ASN     SC 7154  -1.862  -2.542  10.118
    2TYR     BB 7155  -1.605  -1.972  10.099
    2TYR     SC 7156  -1.455  -2.146   9.879
    2TYR     SC 7157  -1.255  -2.160   9.766
    2TYR     SC 7158  -1.246  -2.394   9.758
    2ARG     BB 7159  -1.823  -1.758  10.182
    2ARG     SC 7160  -2.051  -1.657   9.997
    2ARG     SC 7161  -2.292  -1.812   9.884
    2ARG     BB 7162  -1.863  -1.861  10.479
    2ARG     SC 7163  -2.079  -2.119  10.440
    2ARG     SC 7164  -2.369  -2.344  10.364
    2VAL     BB 7165  -1.574  -1.788  10.577
    2VAL     SC 7166  -1.417  -1.994  10.566
    2LEU     BB 7167  -1.572  -1.481  10.492
    2LEU     SC 7168  -1.428  -1.503  10.183
    2LEU     BB 7169  -1.816  -1.411  10.680
    2LEU     SC 7170  -2.119  -1.457  10.621
    2ALA     BB 7171  -1.684  -1.544  10.966
    2LEU     BB 7172  -1.415  -1.305  10.860
    2LEU     SC 7173  -1.216  -1.561  10.859
    2GLY     BB 7174  -1.602  -1.047  10.885
    2LEU     BB 7175  -1.655  -0.725  10.869
    2LEU     SC 7176  -1.397  -0.547  10.845
    2THR     BB 7177  -1.895  -0.476  10.855
    2THR     SC 7178  -1.913  -0.336  11.074
    2GLU     BB 7179  -1.771  -0.383  10.544
    2GLU     SC 7180  -1.781  -0.040  10.668
    2ASN     BB 7181  -1.815  -0.657  10.412
    2ASN     SC 7182  -1.586  -0.889  10.416
    2GLN     BB 7183  -1.781  -0.795  10.069
    2GLN     SC 7184  -2.082  -0.557  10.094
    2ILE     BB 7185  -1.914  -1.063   9.862
    2ILE     SC 7186  -1.837  -1.265  10.080
    2ILE     BB 7187  -1.795  -1.196   9.550
    2ILE     SC 7188  -1.784  -0.899   9.449
    2VAL     BB 7189  -1.933  -1.379   9.240
    2VAL     SC 7190  -2.030  -1.534   9.401
    2PRO     BB 7191  -1.856  -1.313   8.922
    2PRO     SC 7192  -1.658  -1.215   9.061
    2ASN     BB 7193  -1.901  -1.586   8.775
    2ASN     SC 7194  -1.573  -1.671   8.732
    2LYS     BB 7195  -2.191  -1.644   8.888
    2LYS     SC 7196  -2.153  -1.869   9.141
    2LYS     SC 7197  -2.152  -2.138   9.330
    2ILE     BB 7198  -2.335  -1.374   8.806
    2ILE     SC 7199  -2.289  -1.170   9.035
    2ALA     BB 7200  -2.235  -1.365   8.496
    2GLY     BB 7201  -2.399  -1.665   8.441
    2GLU     BB 7202  -2.702  -1.585   8.481
    2GLU     SC 7203  -2.978  -1.628   8.763
    2ILE     BB 7204  -2.708  -1.350   8.276
    2ILE     SC 7205  -2.616  -1.096   8.435
    2THR     BB 7206  -2.612  -1.521   8.029
    2THR     SC 7207  -2.354  -1.518   8.059
    2ALA     BB 7208  -2.821  -1.767   8.085
    2THR     BB 7209  -3.080  -1.558   8.011
    2THR     SC 7210  -3.161  -1.447   8.238
    2ARG     BB 7211  -2.996  -1.474   7.721
    2ARG     SC 7212  -2.803  -1.246   7.646
    2ARG     SC 7213  -2.715  -0.984   7.399
    2VAL     BB 7214  -2.983  -1.777   7.604
    2VAL     SC 7215  -2.752  -1.878   7.655
    2ILE     BB 7216  -3.296  -1.843   7.628
    2ILE     SC 7217  -3.352  -1.883   7.927
    2PHE     BB 7218  -3.350  -1.612   7.410
    2PHE     SC 7219  -3.542  -1.443   7.581
    2PHE     SC 7220  -3.486  -1.387   7.799
    2PHE     SC 7221  -3.694  -1.377   7.798
    2ASN     BB 7222  -3.366  -1.705   7.072
    2ASN     SC 7223  -3.341  -1.971   6.981
    2ILE     BB 7224  -3.443  -1.384   6.980
    2ILE     SC 7225  -3.722  -1.423   7.015
    2ASP     BB 7226  -3.290  -1.171   7.170
    2ASP     SC 7227  -3.012  -1.091   7.086
    2PHE     BB 7228  -3.469  -1.036   7.423
    2PHE     SC 7229  -3.734  -1.069   7.465
    2PHE     SC 7230  -3.880  -0.952   7.327
    2PHE     SC 7231  -3.942  -0.899   7.519
    2ASP     BB 7232  -3.201  -1.033   7.584
    2ASP     SC 7233  -3.204  -1.063   7.900
    2ILE     BB 7234  -2.938  -0.810   7.638
    2ILE     SC 7235  -2.991  -0.632   7.390
    2GLU     BB 7236  -3.005  -0.670   7.933
    2GLU     SC 7237  -2.671  -0.657   8.068
    2VAL     BB 7238  -3.007  -0.666   8.317
    2VAL     SC 7239  -3.192  -0.834   8.317
    2SER     BB 7240  -3.239  -0.597   8.939
    2SER     SC 7241  -3.331  -0.839   8.971
    2ILE     BB 7242  -3.446  -0.468   9.196
    2ILE     SC 7243  -3.527  -0.241   9.053
    2ASP     BB 7244  -3.581  -0.754   9.257
    2ASP     SC 7245  -3.675  -0.702   9.573
    2ASP     BB 7246  -3.605  -1.115   9.366
    2ASP     SC 7247  -3.297  -1.068   9.259
    2GLU     BB 7248  -3.850  -1.129   9.567
    2GLU     SC 7249  -3.608  -1.116   9.925
    2PHE     BB 7250  -3.954  -0.905   9.408
    2PHE     SC 7251  -4.056  -0.741   9.643
    2PHE     SC 7252  -4.261  -0.672   9.727
    2PHE     SC 7253  -4.143  -0.705   9.899
    2ILE     BB 7254  -4.099  -0.901   9.104
    2ILE     SC 7255  -4.212  -1.180   9.059
    2SER     BB 7256  -3.826  -0.690   8.954
    2SER     SC 7257  -3.944  -0.493   9.059
    2SER     BB 7258  -3.735  -0.519   8.639
    2SER     SC 7259  -3.652  -0.745   8.585
    2THR     BB 7260  -3.478  -0.413   8.395
    2THR     SC 7261  -3.485  -0.154   8.446
    2LEU     BB 7262  -3.517  -0.443   8.032
    2LEU     SC 7263  -3.554  -0.768   7.995
    2GLU     BB 7264  -3.345  -0.534   7.720
    2GLU     SC 7265  -3.049  -0.274   7.630
    2VAL     BB 7266  -3.490  -0.523   7.383
    2VAL     SC 7267  -3.703  -0.621   7.521
    2LYS     BB 7268  -3.652  -0.679   7.089
    2LYS     SC 7269  -3.360  -0.754   6.974
    2LYS     SC 7270  -3.129  -0.836   6.805
    2ASN     BB 7271  -3.782  -0.724   6.736
    2ASN     SC 7272  -3.749  -1.017   6.947
    2PRO     BB 7273  -3.992  -0.751   6.418
    2PRO     SC 7274  -3.867  -0.943   6.396
    2ASP     BB 7275  -4.295  -0.724   6.522
    2ASP     SC 7276  -4.215  -0.902   6.749
    2LEU     BB 7277  -4.207  -0.406   6.596
    2LEU     SC 7278  -4.200  -0.495   6.911
    2PHE     BB 7279  -4.219  -0.303   6.309
    2PHE     SC 7280  -4.065  -0.323   6.077
    2PHE     SC 7281  -3.867  -0.212   6.031
    2PHE     SC 7282  -3.993  -0.150   5.877
    2ASN     BB 7283  -4.371  -0.014   6.285
    2ASN     SC 7284  -4.379   0.166   6.061
    2LYS     BB 7285  -4.449   0.082   6.590
    2LYS     SC 7286  -4.566  -0.213   6.572
    2LYS     SC 7287  -4.722  -0.405   6.373
    2ASN     BB 7288  -4.661   0.222   6.823
    2ASN     SC 7289  -4.730   0.449   6.586
    2ILE     BB 7290  -4.655   0.284   7.162
    2ILE     SC 7291  -4.444   0.445   7.287
    2GLN     BB 7292  -4.975   0.326   7.205
    2GLN     SC 7293  -5.136   0.561   7.357
    2GLN     BB 7294  -5.083   0.088   7.019
    2GLN     SC 7295  -5.040   0.098   6.627
    2VAL     BB 7296  -4.852  -0.071   7.172
    2VAL     SC 7297  -4.767  -0.251   7.014
    2GLY     BB 7298  -4.959  -0.081   7.483
    2LEU     BB 7299  -4.804  -0.151   7.805
    2LEU     SC 7300  -4.545  -0.234   7.600
    2SER     BB 7301  -4.940  -0.008   8.055
    2SER     SC 7302  -4.908   0.231   7.965
    2THR     BB 7303  -5.246  -0.140   8.010
    2THR     SC 7304  -5.381   0.063   7.936
    2ASN     BB 7305  -5.200  -0.461   7.904
    2ASN     SC 7306  -5.288  -0.368   7.610
    2LYS     BB 7307  -4.951  -0.544   8.155
    2LYS     SC 7308  -4.899  -0.719   7.913
    2LYS     SC 7309  -4.917  -0.994   7.750
    2ASP     BB 7310  -4.814  -0.347   8.378
    2ASP     SC 7311  -5.081  -0.438   8.529
    2PHE     BB 7312  -4.590  -0.159   8.190
    2PHE     SC 7313  -4.489  -0.416   8.144
    2PHE     SC 7314  -4.372  -0.384   7.946
    2PHE     SC 7315  -4.511  -0.535   7.902
    2ASN     BB 7316  -4.278   0.019   8.098
    2ASN     SC 7317  -4.485   0.210   8.285
    2ILE     BB 7318  -4.124   0.247   7.892
    2ILE     SC 7319  -4.155   0.129   7.599
    2ILE     BB 7320  -3.797   0.416   7.882
    2ILE     SC 7321  -3.722   0.304   8.156
    2GLN     BB 7322  -3.651   0.323   7.596
    2GLN     SC 7323  -3.437   0.618   7.620
    2ILE     BB 7324  -3.516   0.415   7.259
    2ILE     SC 7325  -3.799   0.367   7.150
    2ARG     BB 7326  -3.281   0.253   7.026
    2ARG     SC 7327  -2.995   0.239   7.147
    2ARG     SC 7328  -2.635   0.147   7.142
    2ARG     BB 7329  -3.193   0.403   6.699
    2ARG     SC 7330  -3.456   0.401   6.544
    2ARG     SC 7331  -3.677   0.622   6.402
    2LYS     BB 7332  -2.907   0.370   6.534
    2LYS     SC 7333  -3.042   0.360   6.245
    2LYS     SC 7334  -3.130   0.344   5.939
    2GLY     BB 7335  -2.789   0.496   6.828
    2LYS     BB 7336  -3.030   0.656   6.882
    2LYS     SC 7337  -3.022   0.880   6.626
    2LYS     SC 7338  -3.005   1.064   6.365
    2ILE     BB 7339  -3.244   0.854   7.068
    2ILE     SC 7340  -3.129   0.793   7.357
    2LEU     BB 7341  -3.587   0.823   7.161
    2LEU     SC 7342  -3.644   0.744   6.830
    2LEU     BB 7343  -3.858   0.961   7.259
    2LEU     SC 7344  -3.901   1.251   7.424
    2PRO     BB 7345  -4.133   0.826   7.483
    2PRO     SC 7346  -3.956   0.756   7.569
    2ASP     BB 7347  -4.363   0.994   7.335
    2ASP     SC 7348  -4.428   1.283   7.477
    2ASP     BB 7349  -4.687   0.971   7.239
    2ASP     SC 7350  -4.734   0.705   7.439
    2TYR     BB 7351  -4.565   0.885   6.929
    2TYR     SC 7352  -4.780   0.852   6.778
    2TYR     SC 7353  -4.672   0.889   6.575
    2TYR     SC 7354  -4.812   1.067   6.512
    2THR     BB 7355  -4.324   0.616   6.857
    2THR     SC 7356  -4.127   0.758   6.982
    2GLU     BB 7357  -4.098   0.465   6.641
    2GLU     SC 7358  -4.045   0.487   6.260
    2LEU     BB 7359  -4.026   0.121   6.587
    2LEU     SC 7360  -4.087   0.092   6.930
    2LYS     BB 7361  -3.762  -0.098   6.511
    2LYS     SC 7362  -3.693   0.121   6.240
    2LYS     SC 7363  -3.695   0.345   6.011
    2GLU     BB 7364  -3.563  -0.339   6.400
    2GLU     SC 7365  -3.595  -0.671   6.187
    2GLY     BB 7366  -3.323  -0.386   6.661
    2ASP     BB 7367  -3.410  -0.204   6.861
    2ASP     SC 7368  -3.500   0.064   6.654
    2ILE     BB 7369  -3.582  -0.186   7.447
    2ILE     SC 7370  -3.815  -0.209   7.253
    2VAL     BB 7371  -3.701  -0.044   7.755
    2VAL     SC 7372  -3.459   0.021   7.838
    2VAL     BB 7373  -3.824  -0.237   8.031
    2VAL     SC 7374  -3.968  -0.371   7.857
    2PHE     BB 7375  -4.069  -0.207   8.321
    2PHE     SC 7376  -3.957  -0.025   8.499
    2PHE     SC 7377  -3.844  -0.118   8.678
    2PHE     SC 7378  -3.980   0.014   8.767
    2ALA     BB 7379  -4.155  -0.443   8.588
    2ARG     BB 7380  -4.230  -0.764   8.603
    2ARG     SC 7381  -4.460  -0.761   8.853
    2ARG     SC 7382  -4.755  -0.673   9.064
    2THR     BB 7383  -4.088  -1.060   8.500
    2THR     SC 7384  -3.869  -1.111   8.640
    2THR     BB 7385  -4.355  -1.213   8.420
    2THR     SC 7386  -4.428  -1.364   8.623
    2ILE     BB 7387  -4.475  -0.972   8.256
    2ILE     SC 7388  -4.625  -0.791   8.456
    2ILE     BB 7389  -4.244  -0.947   8.043
    2ILE     SC 7390  -4.038  -0.752   8.169
    2ASN     BB 7391  -4.277  -1.238   7.933
    2ASN     SC 7392  -4.020  -1.360   8.105
    2SER     BB 7393  -4.583  -1.195   7.847
    2SER     SC 7394  -4.772  -1.201   8.003
    2LEU     BB 7395  -4.485  -1.014   7.614
    2LEU     SC 7396  -4.421  -0.716   7.578
    2ALA     BB 7397  -4.238  -1.212   7.492
    2GLU     BB 7398  -4.542  -1.403   7.390
    2GLU     SC 7399  -4.490  -1.632   7.722
    2LYS     BB 7400  -4.741  -1.094   7.283
    2LYS     SC 7401  -5.012  -1.182   7.389
    2LYS     SC 7402  -5.320  -1.091   7.385
    2LYS     BB 7403  -3.651  -2.733   7.237
    2LYS     SC 7404  -3.755  -2.872   7.537
    2LYS     SC 7405  -3.884  -3.027   7.789
    2GLN     BB 7406  -3.356  -2.606   7.340
    2GLN     SC 7407  -3.386  -2.343   7.059
    2ASN     BB 7408  -2.994  -2.671   7.295
    2ASN     SC 7409  -3.168  -2.946   7.222
    2PHE     BB 7410  -2.730  -2.707   7.537
    2PHE     SC 7411  -2.848  -2.422   7.589
    2PHE     SC 7412  -3.078  -2.405   7.627
    2PHE     SC 7413  -3.034  -2.239   7.507
    2ALA     BB 7414  -2.366  -2.686   7.515
    2ILE     BB 7415  -2.116  -2.712   7.794
    2ILE     SC 7416  -2.285  -2.494   7.908
    2ILE     BB 7417  -1.766  -2.598   7.816
    2ILE     SC 7418  -1.724  -2.736   7.540
    2GLY     BB 7419  -1.561  -2.591   8.076
    2VAL     BB 7420  -1.627  -2.599   8.430
    2VAL     SC 7421  -1.757  -2.802   8.389
    2SER     BB 7422  -1.610  -2.331   8.546
    2SER     SC 7423  -1.485  -2.153   8.418
    2ASN     BB 7424  -1.758  -2.094   8.749
    2ASN     SC 7425  -1.515  -2.112   8.978
    2PHE     BB 7426  -1.921  -1.980   8.506
    2PHE     SC 7427  -1.866  -1.757   8.347
    2PHE     SC 7428  -1.892  -1.786   8.118
    2PHE     SC 7429  -2.017  -1.624   8.162
    2THR     BB 7430  -2.011  -2.254   8.368
    2THR     SC 7431  -1.800  -2.313   8.221
    2LEU     BB 7432  -2.159  -2.357   8.621
    2LEU     SC 7433  -2.032  -2.412   8.907
    2SER     BB 7434  -2.376  -2.132   8.620
    2SER     SC 7435  -2.354  -1.915   8.734
    2VAL     BB 7436  -2.491  -2.196   8.338
    2VAL     SC 7437  -2.371  -2.063   8.148
    2ILE     BB 7438  -2.579  -2.486   8.406
    2ILE     SC 7439  -2.360  -2.654   8.424
    2GLU     BB 7440  -2.742  -2.430   8.674
    2GLU     SC 7441  -2.551  -2.380   9.032
    2THR     BB 7442  -2.937  -2.225   8.549
    2THR     SC 7443  -2.846  -1.981   8.571
    2LEU     BB 7444  -3.057  -2.377   8.295
    2LEU     SC 7445  -2.885  -2.247   8.031
    2VAL     BB 7446  -3.169  -2.626   8.458
    2VAL     SC 7447  -2.950  -2.768   8.476
    2GLN     BB 7448  -3.351  -2.452   8.659
    2GLN     SC 7449  -3.326  -2.418   8.978
    2LYS     BB 7450  -3.501  -2.356   8.370
    2LYS     SC 7451  -3.399  -2.068   8.411
    2LYS     SC 7452  -3.375  -1.792   8.580
    2ARG     BB 7453  -3.546  -2.644   8.205
    2ARG     SC 7454  -3.770  -2.669   8.433
    2ARG     SC 7455  -4.009  -2.676   8.718
    2GLN     BB 7456  -3.316  -2.717   8.011
    2GLN     SC 7457  -3.446  -2.402   7.866
    2SER     BB 7458  -3.109  -2.843   7.760
    2SER     SC 7459  -3.172  -3.041   7.616
    2VAL     BB 7460  -2.803  -2.972   7.929
    2VAL     SC 7461  -2.777  -2.735   8.023
    2THR     BB 7462  -2.472  -3.017   7.840
    2THR     SC 7463  -2.521  -3.164   7.637
    2VAL     BB 7464  -2.175  -3.155   8.010
    2VAL     SC 7465  -2.236  -3.017   8.226
    2PHE     BB 7466  -1.818  -3.051   7.964
    2PHE     SC 7467  -1.949  -3.187   7.726
    2PHE     SC 7468  -2.099  -3.096   7.574
    2PHE     SC 7469  -2.170  -3.292   7.603
    2ASP     BB 7470  -1.516  -3.224   8.054
    2ASP     SC 7471  -1.388  -2.985   8.272
    2ILE     BB 7472  -1.182  -3.356   8.137
    2ILE     SC 7473  -0.974  -3.267   7.966
    2ASP     BB 7474  -1.272  -3.367   8.425
    2ASP     SC 7475  -1.125  -3.260   8.685
    2GLU     BB 7476  -1.416  -3.604   8.630
    2GLU     SC 7477  -1.344  -3.985   8.670
    2ARG     BB 7478  -1.479  -3.444   8.893
    2ARG     SC 7479  -1.195  -3.498   9.068
    2ARG     SC 7480  -0.905  -3.615   9.270
    2ARG     BB 7481  -1.639  -3.220   8.752
    2ARG     SC 7482  -1.409  -2.997   8.661
    2ARG     SC 7483  -1.129  -2.781   8.573
    2LEU     BB 7484  -1.853  -3.404   8.637
    2LEU     SC 7485  -1.879  -3.597   8.403
    2ASN     BB 7486  -1.949  -3.575   8.891
    2ASN     SC 7487  -1.753  -3.836   8.829
    2LEU     BB 7488  -2.063  -3.332   9.035
    2LEU     SC 7489  -1.793  -3.206   9.215
    2TYR     BB 7490  -2.265  -3.213   8.807
    2TYR     SC 7491  -2.049  -2.997   8.765
    2TYR     SC 7492  -1.989  -2.790   8.678
    2TYR     SC 7493  -1.807  -2.760   8.828
    2LEU     BB 7494  -2.448  -3.464   8.735
    2LEU     SC 7495  -2.375  -3.709   8.557
    2SER     BB 7496  -2.561  -3.511   9.045
    2SER     SC 7497  -2.399  -3.680   9.128
    2GLU     BB 7498  -2.531  -3.192   9.204
    2GLU     SC 7499  -2.402  -3.448   9.418
    2PHE     BB 7500  -2.623  -2.979   8.927
    2PHE     SC 7501  -2.353  -2.893   9.021
    2PHE     SC 7502  -2.267  -2.690   9.097
    2PHE     SC 7503  -2.149  -2.833   9.195
    2ASP     BB 7504  -2.879  -3.082   8.742
    2ASP     SC 7505  -3.039  -3.021   9.012
    2THR     BB 7506  -2.805  -3.227   8.483
    2THR     SC 7507  -2.550  -3.164   8.445
    2VAL     BB 7508  -2.894  -3.370   8.181
    2VAL     SC 7509  -3.071  -3.228   8.056
    2GLU     BB 7510  -2.576  -3.397   8.126
    2GLU     SC 7511  -2.546  -3.719   7.960
    2GLY     BB 7512  -2.240  -3.585   8.167
    2ILE     BB 7513  -1.916  -3.569   7.988
    2ILE     SC 7514  -2.088  -3.731   7.777
    2VAL     BB 7515  -1.611  -3.708   7.922
    2VAL     SC 7516  -1.466  -3.780   8.133
    2ILE     BB 7517  -1.393  -3.465   7.754
    2ILE     SC 7518  -1.568  -3.531   7.549
    2ASP     BB 7519  -1.225  -3.374   7.475
    2ASP     SC 7520  -0.905  -3.329   7.461
    2THR     BB 7521  -1.253  -3.060   7.277
    2THR     SC 7522  -1.392  -2.957   7.452
    2THR     BB 7523  -1.006  -3.086   7.069
    2THR     SC 7524  -0.824  -3.012   7.229
    2ASN     BB 7525  -1.145  -3.349   6.983
    2ASN     SC 7526  -1.008  -3.627   6.984
    2LYS     BB 7527  -1.349  -3.448   6.720
    2LYS     SC 7528  -1.212  -3.275   6.471
    2LYS     SC 7529  -1.100  -3.064   6.258
    2VAL     BB 7530  -1.448  -3.741   6.794
    2VAL     SC 7531  -1.311  -3.921   6.665
    2ALA     BB 7532  -1.493  -3.656   7.100
    2LEU     BB 7533  -1.732  -3.437   6.988
    2LEU     SC 7534  -1.635  -3.123   6.985
    2ALA     BB 7535  -1.895  -3.642   6.778
    2LYS     BB 7536  -2.002  -3.844   7.048
    2LYS     SC 7537  -1.733  -4.033   7.080
    2LYS     SC 7538  -1.480  -4.230   7.085
    2LYS     BB 7539  -2.202  -3.607   7.170
    2LYS     SC 7540  -1.978  -3.465   7.344
    2LYS     SC 7541  -1.821  -3.218   7.366
    2GLY     BB 7542  -2.355  -3.462   6.928
    2ILE     BB 7543  -2.281  -3.144   6.876
    2ILE     SC 7544  -2.062  -3.070   6.983
    2GLN     BB 7545  -2.481  -3.097   6.612
    2GLN     SC 7546  -2.321  -3.377   6.508
    2SER     BB 7547  -2.757  -3.073   6.817
    2SER     SC 7548  -2.752  -3.271   6.931
    2TYR     BB 7549  -2.664  -2.782   6.915
    2TYR     SC 7550  -2.612  -2.930   7.182
    2TYR     SC 7551  -2.463  -3.108   7.180
    2TYR     SC 7552  -2.603  -3.250   7.304
    2ASP     BB 7553  -2.760  -2.455   6.903
    2ASP     SC 7554  -3.082  -2.566   6.905
    2TRP     BB 7555  -2.583  -2.399   7.174
    2TRP     SC 7556  -2.736  -2.105   7.198
    2TRP     SC 7557  -2.915  -2.026   7.118
    2TRP     SC 7558  -2.652  -1.827   7.210
    2TRP     SC 7559  -2.829  -1.742   7.129
    2VAL     BB 7560  -2.231  -2.320   7.241
    2VAL     SC 7561  -2.156  -2.566   7.162
    2ILE     BB 7562  -2.032  -2.313   7.545
    2ILE     SC 7563  -2.241  -2.138   7.640
    2VAL     BB 7564  -1.707  -2.168   7.611
    2VAL     SC 7565  -1.580  -2.304   7.429
    2GLY     BB 7566  -1.543  -2.152   7.947
    2ILE     BB 7567  -1.243  -2.128   7.855
    2ILE     SC 7568  -1.181  -2.425   7.811
    2GLU     BB 7569  -0.972  -1.919   7.990
    2GLU     SC 7570  -1.115  -1.653   8.250
    2ASN     BB 7571  -0.680  -2.005   8.085
    2ASN     SC 7572  -0.767  -2.022   8.404
    2GLU     BB 7573  -0.679  -2.176   7.815
    2GLU     SC 7574  -0.672  -2.538   7.984
    2LEU     BB 7575  -0.625  -2.113   7.487
    2LEU     SC 7576  -0.548  -1.831   7.373
    2GLU     BB 7577  -0.583  -2.375   7.321
    2GLU     SC 7578  -0.229  -2.563   7.251
    2SER     BB 7579  -0.853  -2.512   7.406
    2SER     SC 7580  -0.875  -2.648   7.619
    2SER     BB 7581  -1.050  -2.280   7.317
    2SER     SC 7582  -1.117  -2.090   7.471
    2LEU     BB 7583  -0.960  -2.250   7.008
    2LEU     SC 7584  -0.753  -1.989   7.037
    2VAL     BB 7585  -1.004  -2.547   6.919
    2VAL     SC 7586  -0.779  -2.678   6.922
    2THR     BB 7587  -1.301  -2.561   7.009
    2THR     SC 7588  -1.319  -2.637   7.260
    2VAL     BB 7589  -1.417  -2.326   6.830
    2VAL     SC 7590  -1.392  -2.093   6.906
    2LEU     BB 7591  -1.319  -2.439   6.557
    2LEU     SC 7592  -1.038  -2.426   6.421
    2ASN     BB 7593  -1.475  -2.712   6.570
    2ASN     SC 7594  -1.229  -2.903   6.700
    2LEU     BB 7595  -1.761  -2.575   6.591
    2LEU     SC 7596  -1.802  -2.575   6.928
    2LEU     BB 7597  -1.740  -2.428   6.314
    2LEU     SC 7598  -1.647  -2.132   6.259
    2ASP     BB 7599  -1.663  -2.677   6.127
    2ASP     SC 7600  -1.321  -2.665   6.118
    2LEU     BB 7601  -1.951  -2.818   6.244
    2LEU     SC 7602  -1.776  -3.050   6.401
    2LYS     BB 7603  -2.187  -2.589   6.240
    2LYS     SC 7604  -2.164  -2.643   5.927
    2LYS     SC 7605  -2.135  -2.721   5.621
    2CYS     BB 7606  -2.256  -2.395   6.478
    2CYS     SC 7607  -2.275  -2.457   6.762
    2THR     BB 7608  -2.493  -2.144   6.525
    2THR     SC 7609  -2.729  -2.235   6.460
    2ASN     BB 7610  -2.409  -2.090   6.848
    2ASN     SC 7611  -2.688  -1.913   6.807
    2ILE     BB 7612  -2.122  -1.927   6.973
    2ILE     SC 7613  -1.949  -2.138   6.822
    2THR     BB 7614  -1.985  -1.907   7.311
    2THR     SC 7615  -2.198  -1.758   7.378
    2VAL     BB 7616  -1.712  -1.718   7.465
    2VAL     SC 7617  -1.589  -1.820   7.260
    2LYS     BB 7618  -1.435  -1.719   7.682
    2LYS     SC 7619  -1.500  -1.741   8.000
    2LYS     SC 7620  -1.436  -1.725   8.316
    2ALA     BB 7621  -1.216  -1.430   7.743
    2LYS     BB 7622  -0.920  -1.332   7.927
    2LYS     SC 7623  -0.692  -1.541   8.001
    2LYS     SC 7624  -0.442  -1.704   8.105
    2ASP     BB 7625  -0.819  -1.142   7.679
    2ASP     SC 7626  -0.561  -0.977   7.819
    2ASP     BB 7627  -0.748  -0.941   7.403
    2ASP     SC 7628  -0.828  -0.657   7.549
    2ASN     BB 7629  -0.584  -1.149   7.231
    2ASN     SC 7630  -0.286  -1.000   7.268
    2TYR     BB 7631  -0.783  -1.385   7.281
    2TYR     SC 7632  -0.618  -1.465   7.538
    2TYR     SC 7633  -0.583  -1.644   7.678
    2TYR     SC 7634  -0.353  -1.611   7.704
    2ARG     BB 7635  -1.020  -1.238   7.143
    2ARG     SC 7636  -1.196  -1.010   7.272
    2ARG     SC 7637  -1.111  -0.729   7.366
    2ARG     BB 7638  -0.885  -1.209   6.854
    2ARG     SC 7639  -0.694  -0.937   6.886
    2ARG     SC 7640  -0.536  -0.613   6.966
    2VAL     BB 7641  -0.889  -1.515   6.786
    2VAL     SC 7642  -0.662  -1.627   6.842
    2LEU     BB 7643  -1.202  -1.553   6.824
    2LEU     SC 7644  -1.201  -1.662   7.153
    2LEU     BB 7645  -1.263  -1.341   6.600
    2LEU     SC 7646  -1.285  -1.042   6.778
    2ALA     BB 7647  -1.094  -1.487   6.362
    2LEU     BB 7648  -1.296  -1.770   6.460
    2LEU     SC 7649  -1.016  -1.935   6.516
    2GLY     BB 7650  -1.617  -1.692   6.363
    2LEU     BB 7651  -1.768  -1.404   6.431
    2LEU     SC 7652  -1.637  -1.147   6.500
    2THR     BB 7653  -2.024  -1.420   6.240
    2THR     SC 7654  -1.889  -1.488   6.030
    2GLU     BB 7655  -2.129  -1.670   6.478
    2GLU     SC 7656  -2.205  -1.856   6.118
    2ASN     BB 7657  -2.028  -1.505   6.748
    2ASN     SC 7658  -1.744  -1.619   6.764
    2GLN     BB 7659  -1.960  -1.471   7.116
    2GLN     SC 7660  -2.237  -1.229   7.025
    2ILE     BB 7661  -1.778  -1.252   7.355
    2ILE     SC 7662  -1.529  -1.310   7.182
    2ILE     BB 7663  -1.662  -1.299   7.696
    2ILE     SC 7664  -1.961  -1.364   7.765
    2VAL     BB 7665  -1.553  -1.090   8.003
    2VAL     SC 7666  -1.400  -0.981   7.848
    2PRO     BB 7667  -1.647  -1.141   8.318
    2PRO     SC 7668  -1.683  -1.371   8.199
    2ASN     BB 7669  -1.412  -1.023   8.490
    2ASN     SC 7670  -1.271  -1.318   8.586
    2LYS     BB 7671  -1.395  -0.741   8.345
    2LYS     SC 7672  -1.133  -0.759   8.127
    2LYS     SC 7673  -0.847  -0.727   7.971
    2ILE     BB 7674  -1.697  -0.650   8.374
    2ILE     SC 7675  -1.855  -0.766   8.133
    2ALA     BB 7676  -1.730  -0.715   8.692
    2GLY     BB 7677  -1.479  -0.485   8.754
    2GLU     BB 7678  -1.611  -0.213   8.665
    2GLU     SC 7679  -1.587   0.028   8.351
    2ILE     BB 7680  -1.868  -0.234   8.838
    2ILE     SC 7681  -2.076  -0.395   8.667
    2THR     BB 7682  -1.720  -0.260   9.115
    2THR     SC 7683  -1.666  -0.515   9.121
    2ALA     BB 7684  -1.514  -0.012   9.057
    2THR     BB 7685  -1.778   0.203   9.069
    2THR     SC 7686  -1.871   0.231   8.822
    2ARG     BB 7687  -1.886   0.136   9.357
    2ARG     SC 7688  -2.077  -0.098   9.422
    2ARG     SC 7689  -2.317  -0.278   9.641
    2VAL     BB 7690  -1.603   0.200   9.508
    2VAL     SC 7691  -1.456  -0.010   9.502
    2ILE     BB 7692  -1.594   0.516   9.449
    2ILE     SC 7693  -1.530   0.545   9.150
    2PHE     BB 7694  -1.858   0.548   9.631
    2PHE     SC 7695  -2.036   0.679   9.413
    2PHE     SC 7696  -2.052   0.584   9.203
    2PHE     SC 7697  -2.102   0.785   9.170
    2ASN     BB 7698  -1.818   0.641   9.972
    2ASN     SC 7699  -1.679   0.895   9.944
    2ILE     BB 7700  -2.162   0.648  10.017
    2ILE     SC 7701  -2.176   0.920   9.947
    2ASP     BB 7702  -2.308   0.441   9.821
    2ASP     SC 7703  -2.252   0.164   9.990
    2PHE     BB 7704  -2.434   0.552   9.528
    2PHE     SC 7705  -2.454   0.810   9.451
    2PHE     SC 7706  -2.618   0.935   9.557
    2PHE     SC 7707  -2.662   0.959   9.354
    2ASP     BB 7708  -2.370   0.262   9.425
    2ASP     SC 7709  -2.298   0.225   9.114
    2ILE     BB 7710  -2.524  -0.055   9.373
    2ILE     SC 7711  -2.746  -0.014   9.586
    2GLU     BB 7712  -2.633  -0.051   9.058
    2GLU     SC 7713  -2.563  -0.393   8.971
    2VAL     BB 7714  -2.587  -0.094   8.680
    2VAL     SC 7715  -2.460   0.122   8.672
    2SER     BB 7716  -2.612   0.045   8.027
    2SER     SC 7717  -2.390   0.184   8.008
    2ILE     BB 7718  -2.740   0.191   7.730
    2ILE     SC 7719  -2.997   0.235   7.834
    2ASP     BB 7720  -2.481   0.375   7.683
    2ASP     SC 7721  -2.508   0.422   7.355
    2ASP     BB 7722  -2.120   0.461   7.612
    2ASP     SC 7723  -2.121   0.165   7.755
    2GLU     BB 7724  -2.126   0.680   7.382
    2GLU     SC 7725  -2.050   0.401   7.060
    2PHE     BB 7726  -2.382   0.752   7.502
    2PHE     SC 7727  -2.533   0.795   7.242
    2PHE     SC 7728  -2.628   0.973   7.125
    2PHE     SC 7729  -2.552   0.847   6.975
    2ILE     BB 7730  -2.453   0.925   7.782
    2ILE     SC 7731  -2.211   1.101   7.841
    2SER     BB 7732  -2.628   0.633   7.941
    2SER     SC 7733  -2.827   0.695   7.800
    2SER     BB 7734  -2.826   0.545   8.244
    2SER     SC 7735  -2.598   0.517   8.337
    2THR     BB 7736  -2.913   0.302   8.507
    2THR     SC 7737  -3.158   0.248   8.427
    2LEU     BB 7738  -2.941   0.386   8.862
    2LEU     SC 7739  -2.638   0.495   8.931
    2GLU     BB 7740  -2.863   0.273   9.205
    2GLU     SC 7741  -3.073  -0.057   9.303
    2VAL     BB 7742  -2.945   0.448   9.515
    2VAL     SC 7743  -2.877   0.661   9.361
    2LYS     BB 7744  -2.866   0.667   9.800
    2LYS     SC 7745  -2.750   0.420   9.981
    2LYS     SC 7746  -2.614   0.156  10.032
    2ASN     BB 7747  -2.902   0.850  10.130
    2ASN     SC 7748  -2.584   0.862   9.957
    2PRO     BB 7749  -2.963   1.099  10.415
    2PRO     SC 7750  -2.755   1.020  10.476
    2ASP     BB 7751  -3.034   1.375  10.270
    2ASP     SC 7752  -2.814   1.310  10.077
    2LEU     BB 7753  -3.316   1.214  10.172
    2LEU     SC 7754  -3.184   1.190   9.874
    2PHE     BB 7755  -3.456   1.237  10.442
    2PHE     SC 7756  -3.442   1.116  10.692
    2PHE     SC 7757  -3.513   0.905  10.756
    2PHE     SC 7758  -3.625   1.032  10.878
    2ASN     BB 7759  -3.770   1.327  10.412
    2ASN     SC 7760  -3.979   1.319  10.611
    2LYS     BB 7761  -3.838   1.343  10.101
    2LYS     SC 7762  -3.576   1.527  10.126
    2LYS     SC 7763  -3.450   1.739  10.327
    2ASN     BB 7764  -3.974   1.481   9.792
    2ASN     SC 7765  -4.223   1.521  10.018
    2ILE     BB 7766  -3.998   1.447   9.454
    2ILE     SC 7767  -4.037   1.165   9.390
    2GLN     BB 7768  -4.092   1.757   9.361
    2GLN     SC 7769  -4.263   1.840   9.097
    2GLN     BB 7770  -3.912   1.908   9.571
    2GLN     SC 7771  -3.970   1.909   9.960
    2VAL     BB 7772  -3.683   1.707   9.470
    2VAL     SC 7773  -3.520   1.680   9.663
    2GLY     BB 7774  -3.646   1.774   9.157
    2LEU     BB 7775  -3.507   1.594   8.873
    2LEU     SC 7776  -3.410   1.375   9.119
    2SER     BB 7777  -3.625   1.671   8.594
    2SER     SC 7778  -3.869   1.608   8.648
    2THR     BB 7779  -3.581   1.996   8.598
    2THR     SC 7780  -3.811   2.101   8.642
    2ASN     BB 7781  -3.277   2.039   8.750
    2ASN     SC 7782  -3.425   2.133   9.017
    2LYS     BB 7783  -3.109   1.785   8.547
    2LYS     SC 7784  -2.962   1.802   8.812
    2LYS     SC 7785  -2.722   1.895   9.002
    2ASP     BB 7786  -3.244   1.582   8.325
    2ASP     SC 7787  -3.184   1.842   8.146
    2PHE     BB 7788  -3.407   1.347   8.524
    2PHE     SC 7789  -3.141   1.312   8.608
    2PHE     SC 7790  -3.174   1.219   8.817
    2PHE     SC 7791  -3.060   1.391   8.854
    2ASN     BB 7792  -3.533   1.018   8.638
    2ASN     SC 7793  -3.730   1.157   8.402
    2ILE     BB 7794  -3.754   0.844   8.836
    2ILE     SC 7795  -3.688   0.932   9.133
    2ILE     BB 7796  -3.854   0.493   8.873
    2ILE     SC 7797  -3.690   0.411   8.628
    2GLN     BB 7798  -3.773   0.402   9.185
    2GLN     SC 7799  -4.014   0.130   9.156
    2ILE     BB 7800  -3.879   0.287   9.524
    2ILE     SC 7801  -3.917   0.579   9.599
    2ARG     BB 7802  -3.709   0.125   9.807
    2ARG     SC 7803  -3.623  -0.164   9.730
    2ARG     SC 7804  -3.464  -0.495   9.794
    2ARG     BB 7805  -3.885   0.048  10.123
    2ARG     SC 7806  -3.957   0.324  10.231
    2ARG     SC 7807  -4.239   0.501  10.314
    2LYS     BB 7808  -3.823  -0.202  10.331
    2LYS     SC 7809  -3.879  -0.037  10.599
    2LYS     SC 7810  -3.919   0.086  10.889
    2GLY     BB 7811  -3.878  -0.377  10.043
    2LYS     BB 7812  -4.074  -0.186   9.938
    2LYS     SC 7813  -4.328  -0.213  10.165
    2LYS     SC 7814  -4.541  -0.240  10.401
    2ILE     BB 7815  -4.281  -0.044   9.701
    2ILE     SC 7816  -4.160  -0.176   9.440
    2LEU     BB 7817  -4.308   0.283   9.563
    2LEU     SC 7818  -4.288   0.394   9.888
    2LEU     BB 7819  -4.480   0.509   9.418
    2LEU     SC 7820  -4.744   0.470   9.210
    2PRO     BB 7821  -4.342   0.801   9.234
    2PRO     SC 7822  -4.256   0.620   9.120
    2ASP     BB 7823  -4.581   0.978   9.266
    2ASP     SC 7824  -4.853   0.962   9.086
    2ASP     BB 7825  -4.633   1.303   9.324
    2ASP     SC 7826  -4.370   1.382   9.134
    2TYR     BB 7827  -4.560   1.281   9.669
    2TYR     SC 7828  -4.558   1.582   9.653
    2TYR     SC 7829  -4.404   1.756   9.624
    2TYR     SC 7830  -4.560   1.902   9.525
    2THR     BB 7831  -4.288   1.085   9.782
    2THR     SC 7832  -4.384   0.848   9.681
    2GLU     BB 7833  -4.132   0.918  10.047
    2GLU     SC 7834  -4.198   0.901  10.427
    2LEU     BB 7835  -3.791   0.926  10.154
    2LEU     SC 7836  -3.719   0.978   9.819
    2LYS     BB 7837  -3.535   0.724  10.287
    2LYS     SC 7838  -3.776   0.636  10.533
    2LYS     SC 7839  -4.041   0.607  10.710
    2GLU     BB 7840  -3.278   0.595  10.451
    2GLU     SC 7841  -2.997   0.728  10.698
    2GLY     BB 7842  -3.149   0.344  10.229
    2ASP     BB 7843  -3.314   0.371   9.998
    2ASP     SC 7844  -3.623   0.428  10.154
    2ILE     BB 7845  -3.284   0.464   9.397
    2ILE     SC 7846  -3.340   0.716   9.558
    2VAL     BB 7847  -3.404   0.511   9.062
    2VAL     SC 7848  -3.409   0.253   9.009
    2VAL     BB 7849  -3.203   0.641   8.796
    2VAL     SC 7850  -3.127   0.829   8.961
    2PHE     BB 7851  -3.240   0.838   8.473
    2PHE     SC 7852  -3.369   0.671   8.293
    2PHE     SC 7853  -3.232   0.561   8.142
    2PHE     SC 7854  -3.374   0.655   8.021
    2ALA     BB 7855  -2.991   0.942   8.223
    2ARG     BB 7856  -2.691   1.081   8.237
    2ARG     SC 7857  -2.703   1.274   7.955
    2ARG     SC 7858  -2.812   1.517   7.695
    2THR     BB 7859  -2.391   1.017   8.391
    2THR     SC 7860  -2.280   0.798   8.292
    2THR     BB 7861  -2.303   1.317   8.448
    2THR     SC 7862  -2.142   1.396   8.256
    2ILE     BB 7863  -2.584   1.403   8.565
    2ILE     SC 7864  -2.758   1.487   8.325
    2ILE     BB 7865  -2.594   1.199   8.804
    2ILE     SC 7866  -2.725   0.942   8.689
    2ASN     BB 7867  -2.334   1.305   8.943
    2ASN     SC 7868  -2.139   1.062   8.823
    2SER     BB 7869  -2.446   1.602   8.979
    2SER     SC 7870  -2.455   1.769   8.799
    2LEU     BB 7871  -2.635   1.496   9.202
    2LEU     SC 7872  -2.919   1.379   9.210
    2ALA     BB 7873  -2.414   1.312   9.380
    2GLU     BB 7874  -2.300   1.659   9.458
    2GLU     SC 7875  -2.025   1.619   9.161
    2LYS     BB 7876  -2.655   1.799   9.500
    2LYS     SC 7877  -2.608   2.068   9.366
    2LYS     SC 7878  -2.757   2.348   9.316
    2GLN     BB 7879   1.659  -0.800   5.455
    2GLN     SC 7880   1.653  -0.476   5.353
    2ASN     BB 7881   1.542  -0.868   5.745
    2ASN     SC 7882   1.705  -0.585   5.824
    2PHE     BB 7883   1.563  -1.135   5.989
    2PHE     SC 7884   1.550  -1.279   5.712
    2PHE     SC 7885   1.704  -1.216   5.549
    2PHE     SC 7886   1.526  -1.243   5.443
    2ALA     BB 7887   1.310  -1.284   6.210
    2ILE     BB 7888   1.358  -1.573   6.448
    2ILE     SC 7889   1.452  -1.704   6.199
    2ILE     BB 7890   1.112  -1.794   6.603
    2ILE     SC 7891   0.956  -1.538   6.689
    2GLY     BB 7892   1.160  -2.070   6.779
    2VAL     BB 7893   1.428  -2.286   6.851
    2VAL     SC 7894   1.578  -2.082   6.875
    2SER     BB 7895   1.410  -2.527   6.645
    2SER     SC 7896   1.174  -2.598   6.599
    2ASN     BB 7897   1.544  -2.744   6.417
    2ASN     SC 7898   1.560  -3.002   6.631
    2PHE     BB 7899   1.431  -2.575   6.177
    2PHE     SC 7900   1.203  -2.613   6.024
    2PHE     SC 7901   1.073  -2.425   5.981
    2PHE     SC 7902   1.123  -2.495   5.790
    2THR     BB 7903   1.503  -2.283   6.285
    2THR     SC 7904   1.306  -2.232   6.451
    2LEU     BB 7905   1.811  -2.340   6.306
    2LEU     SC 7906   1.813  -2.478   6.617
    2SER     BB 7907   1.849  -2.371   6.001
    2SER     SC 7908   1.831  -2.580   5.878
    2VAL     BB 7909   1.753  -2.085   5.921
    2VAL     SC 7910   1.496  -2.080   5.870
    2ILE     BB 7911   1.967  -1.922   6.083
    2ILE     SC 7912   1.869  -1.934   6.376
    2GLU     BB 7913   2.223  -2.075   5.977
    2GLU     SC 7914   2.426  -2.267   6.151
    2THR     BB 7915   2.176  -2.032   5.672
    2THR     SC 7916   2.049  -2.235   5.568
    2LEU     BB 7917   2.146  -1.715   5.669
    2LEU     SC 7918   1.809  -1.673   5.642
    2VAL     BB 7919   2.437  -1.660   5.782
    2VAL     SC 7920   2.479  -1.690   6.022
    2GLN     BB 7921   2.599  -1.821   5.553
    2GLN     SC 7922   2.635  -2.202   5.712
    2LYS     BB 7923   2.448  -1.598   5.351
    2LYS     SC 7924   2.295  -1.823   5.225
    2LYS     SC 7925   2.302  -2.085   5.043
    2ARG     BB 7926   2.480  -1.304   5.497
    2ARG     SC 7927   2.785  -1.361   5.417
    2ARG     SC 7928   3.122  -1.479   5.310
    2GLN     BB 7929   2.243  -1.220   5.684
    2GLN     SC 7930   2.083  -1.242   5.347
    2SER     BB 7931   2.011  -1.051   5.869
    2SER     SC 7932   2.022  -0.811   5.948
    2VAL     BB 7933   1.981  -1.203   6.201
    2VAL     SC 7934   1.943  -1.434   6.070
    2THR     BB 7935   1.730  -1.298   6.441
    2THR     SC 7936   1.683  -1.048   6.485
    2VAL     BB 7937   1.725  -1.467   6.771
    2VAL     SC 7938   1.882  -1.658   6.691
    2PHE     BB 7939   1.426  -1.632   6.920
    2PHE     SC 7940   1.396  -1.336   6.875
    2PHE     SC 7941   1.341  -1.211   6.687
    2PHE     SC 7942   1.485  -1.094   6.783
    2ASP     BB 7943   1.368  -1.720   7.265
    2ASP     SC 7944   1.355  -2.063   7.222
    2ILE     BB 7945   1.297  -1.855   7.603
    2ILE     SC 7946   1.018  -1.868   7.654
    2ASP     BB 7947   1.560  -2.016   7.596
    2ASP     SC 7948   1.603  -2.318   7.674
    2GLU     BB 7949   1.881  -1.952   7.714
    2GLU     SC 7950   1.887  -1.705   8.047
    2ARG     BB 7951   2.037  -2.203   7.602
    2ARG     SC 7952   2.002  -2.415   7.859
    2ARG     SC 7953   2.006  -2.614   8.172
    2ARG     BB 7954   1.957  -2.198   7.297
    2ARG     SC 7955   1.656  -2.341   7.283
    2ARG     SC 7956   1.324  -2.499   7.300
    2LEU     BB 7957   2.079  -1.919   7.240
    2LEU     SC 7958   1.803  -1.734   7.288
    2ASN     BB 7959   2.381  -1.969   7.330
    2ASN     SC 7960   2.348  -1.862   7.646
    2LEU     BB 7961   2.427  -2.162   7.087
    2LEU     SC 7962   2.326  -2.456   7.231
    2TYR     BB 7963   2.305  -1.919   6.865
    2TYR     SC 7964   2.135  -2.148   6.789
    2TYR     SC 7965   2.204  -2.253   6.595
    2TYR     SC 7966   2.179  -2.470   6.684
    2LEU     BB 7967   2.531  -1.700   6.876
    2LEU     SC 7968   2.646  -1.586   7.144
    2SER     BB 7969   2.692  -1.817   6.640
    2SER     SC 7970   2.942  -1.892   6.672
    2GLU     BB 7971   2.755  -1.530   6.472
    2GLU     SC 7972   3.072  -1.631   6.220
    2PHE     BB 7973   2.710  -1.237   6.687
    2PHE     SC 7974   2.886  -1.364   6.870
    2PHE     SC 7975   3.043  -1.198   6.914
    2PHE     SC 7976   3.156  -1.374   6.896
    2ASP     BB 7977   2.739  -0.986   6.447
    2ASP     SC 7978   2.957  -0.924   6.675
    2THR     BB 7979   2.512  -1.112   6.250
    2THR     SC 7980   2.660  -1.188   6.047
    2VAL     BB 7981   2.380  -1.268   6.504
    2VAL     SC 7982   2.307  -1.479   6.381
    2GLU     BB 7983   2.113  -1.186   6.708
    2GLU     SC 7984   2.325  -0.874   6.779
    2GLY     BB 7985   2.049  -1.268   7.048
    2ILE     BB 7986   1.724  -1.323   7.227
    2ILE     SC 7987   1.707  -1.011   7.165
    2VAL     BB 7988   1.556  -1.324   7.532
    2VAL     SC 7989   1.674  -1.486   7.698
    2ILE     BB 7990   1.206  -1.430   7.470
    2ILE     SC 7991   1.191  -1.184   7.371
    2ASP     BB 7992   0.875  -1.354   7.480
    2ASP     SC 7993   0.656  -1.503   7.660
    2THR     BB 7994   0.632  -1.373   7.198
    2THR     SC 7995   0.796  -1.491   7.058
    2THR     BB 7996   0.346  -1.324   7.346
    2THR     SC 7997   0.321  -1.558   7.443
    2ASN     BB 7998   0.467  -1.056   7.425
    2ASN     SC 7999   0.505  -0.953   7.717
    2LYS     BB 8000   0.443  -0.728   7.316
    2LYS     SC 8001   0.201  -0.576   7.223
    2LYS     SC 8002   0.076  -0.313   7.091
    2VAL     BB 8003   0.672  -0.570   7.452
    2VAL     SC 8004   0.596  -0.440   7.669
    2ALA     BB 8005   0.879  -0.813   7.421
    2LEU     BB 8006   0.861  -0.754   7.084
    2LEU     SC 8007   0.684  -0.975   6.926
    2ALA     BB 8008   0.879  -0.417   7.067
    2LYS     BB 8009   1.197  -0.427   7.210
    2LYS     SC 8010   1.114  -0.399   7.504
    2LYS     SC 8011   1.072  -0.162   7.718
    2LYS     BB 8012   1.346  -0.569   6.949
    2LYS     SC 8013   1.279  -0.873   7.019
    2LYS     SC 8014   1.105  -1.101   6.945
    2GLY     BB 8015   1.233  -0.440   6.678
    2ILE     BB 8016   1.019  -0.609   6.492
    2ILE     SC 8017   0.923  -0.818   6.607
    2GLN     BB 8018   0.936  -0.365   6.283
    2GLN     SC 8019   0.882  -0.203   6.576
    2SER     BB 8020   1.230  -0.405   6.112
    2SER     SC 8021   1.389  -0.371   6.277
    2TYR     BB 8022   1.120  -0.677   5.983
    2TYR     SC 8023   1.332  -0.808   6.165
    2TYR     SC 8024   1.318  -0.773   6.393
    2TYR     SC 8025   1.547  -0.726   6.419
    2ASP     BB 8026   1.026  -0.819   5.686
    2ASP     SC 8027   1.276  -0.655   5.514
    2TRP     BB 8028   1.085  -1.117   5.809
    2TRP     SC 8029   1.076  -1.237   5.500
    2TRP     SC 8030   1.103  -1.154   5.308
    2TRP     SC 8031   0.916  -1.435   5.360
    2TRP     SC 8032   0.937  -1.354   5.164
    2VAL     BB 8033   0.889  -1.355   6.001
    2VAL     SC 8034   0.890  -1.192   6.215
    2ILE     BB 8035   0.976  -1.657   6.177
    2ILE     SC 8036   1.094  -1.736   5.926
    2VAL     BB 8037   0.767  -1.925   6.306
    2VAL     SC 8038   0.623  -1.771   6.460
    2GLY     BB 8039   0.890  -2.240   6.462
    2ILE     BB 8040   0.636  -2.314   6.631
    2ILE     SC 8041   0.685  -2.141   6.879
    2GLU     BB 8042   0.481  -2.643   6.689
    2GLU     SC 8043   0.641  -2.915   6.444
    2ASN     BB 8044   0.409  -2.785   6.964
    2ASN     SC 8045   0.687  -2.965   6.971
    2GLU     BB 8046   0.292  -2.499   7.041
    2GLU     SC 8047   0.552  -2.413   7.333
    2LEU     BB 8048   0.007  -2.324   6.981
    2LEU     SC 8049  -0.234  -2.440   6.818
    2GLU     BB 8050  -0.025  -2.072   7.165
    2GLU     SC 8051  -0.197  -2.049   7.532
    2SER     BB 8052   0.254  -1.945   7.095
    2SER     SC 8053   0.466  -2.010   7.216
    2SER     BB 8054   0.216  -1.930   6.779
    2SER     SC 8055   0.284  -2.118   6.625
    2LEU     BB 8056  -0.061  -1.767   6.767
    2LEU     SC 8057  -0.274  -2.021   6.728
    2VAL     BB 8058   0.025  -1.516   6.936
    2VAL     SC 8059  -0.054  -1.539   7.184
    2THR     BB 8060   0.273  -1.447   6.761
    2THR     SC 8061   0.487  -1.573   6.847
    2VAL     BB 8062   0.123  -1.405   6.483
    2VAL     SC 8063   0.066  -1.600   6.346
    2LEU     BB 8064  -0.075  -1.189   6.583
    2LEU     SC 8065  -0.342  -1.212   6.744
    2ASN     BB 8066   0.138  -0.979   6.676
    2ASN     SC 8067   0.163  -1.061   7.004
    2LEU     BB 8068   0.266  -0.952   6.386
    2LEU     SC 8069   0.523  -1.170   6.417
    2LEU     BB 8070   0.006  -0.846   6.249
    2LEU     SC 8071  -0.234  -1.003   6.113
    2ASP     BB 8072  -0.065  -0.602   6.451
    2ASP     SC 8073  -0.295  -0.759   6.640
    2LEU     BB 8074   0.247  -0.485   6.377
    2LEU     SC 8075   0.347  -0.544   6.686
    2LYS     BB 8076   0.285  -0.511   6.050
    2LYS     SC 8077   0.081  -0.268   6.057
    2LYS     SC 8078  -0.113  -0.016   6.080
    2CYS     BB 8079   0.410  -0.752   5.906
    2CYS     SC 8080   0.646  -0.917   5.983
    2THR     BB 8081   0.484  -0.839   5.578
    2THR     SC 8082   0.623  -0.646   5.467
    2ASN     BB 8083   0.629  -1.136   5.649
    2ASN     SC 8084   0.697  -1.092   5.327
    2ILE     BB 8085   0.467  -1.438   5.764
    2ILE     SC 8086   0.367  -1.272   5.999
    2THR     BB 8087   0.620  -1.739   5.881
    2THR     SC 8088   0.732  -1.783   5.640
    2VAL     BB 8089   0.488  -2.072   5.956
    2VAL     SC 8090   0.315  -1.922   6.078
    2LYS     BB 8091   0.470  -2.341   6.179
    2LYS     SC 8092   0.737  -2.525   6.205
    2LYS     SC 8093   0.908  -2.781   6.297
    2ALA     BB 8094   0.261  -2.641   6.131
    2LYS     BB 8095   0.168  -2.952   6.290
    2LYS     SC 8096   0.170  -2.984   6.606
    2LYS     SC 8097   0.161  -3.071   6.910
    2ASP     BB 8098  -0.142  -2.921   6.182
    2ASP     SC 8099  -0.278  -3.216   6.255
    2ASP     BB 8100  -0.456  -2.871   6.035
    2ASP     SC 8101  -0.418  -3.108   5.808
    2ASN     BB 8102  -0.585  -2.697   6.264
    2ASN     SC 8103  -0.778  -2.941   6.386
    2TYR     BB 8104  -0.337  -2.509   6.301
    2TYR     SC 8105  -0.225  -2.717   6.514
    2TYR     SC 8106  -0.076  -2.737   6.688
    2TYR     SC 8107  -0.204  -2.883   6.817
    2ARG     BB 8108  -0.352  -2.401   6.006
    2ARG     SC 8109  -0.247  -2.551   5.754
    2ARG     SC 8110  -0.342  -2.818   5.633
    2ARG     BB 8111  -0.639  -2.269   6.032
    2ARG     SC 8112  -0.846  -2.533   5.983
    2ARG     SC 8113  -1.036  -2.829   5.855
    2VAL     BB 8114  -0.558  -2.051   6.244
    2VAL     SC 8115  -0.611  -2.130   6.484
    2LEU     BB 8116  -0.314  -1.923   6.083
    2LEU     SC 8117  -0.052  -2.101   6.214
    2LEU     BB 8118  -0.498  -1.838   5.842
    2LEU     SC 8119  -0.593  -2.019   5.603
    2ALA     BB 8120  -0.733  -1.673   6.025
    2LEU     BB 8121  -0.420  -1.499   6.128
    2LEU     SC 8122  -0.485  -1.585   6.435
    2GLY     BB 8123  -0.381  -1.406   5.820
    2LEU     BB 8124  -0.233  -1.286   5.570
    2LEU     SC 8125  -0.200  -0.943   5.667
    2THR     BB 8126  -0.199  -1.356   5.232
    2THR     SC 8127  -0.359  -1.186   5.117
    2GLU     BB 8128   0.137  -1.362   5.254
    2GLU     SC 8129   0.077  -1.122   5.014
    2ASN     BB 8130   0.118  -1.583   5.449
    2ASN     SC 8131   0.094  -1.377   5.725
    2GLN     BB 8132   0.314  -1.877   5.551
    2GLN     SC 8133   0.479  -1.819   5.163
    2ILE     BB 8134   0.259  -2.237   5.566
    2ILE     SC 8135   0.011  -2.184   5.739
    2ILE     BB 8136   0.448  -2.494   5.729
    2ILE     SC 8137   0.702  -2.380   5.583
    2VAL     BB 8138   0.506  -2.873   5.702
    2VAL     SC 8139   0.263  -2.890   5.700
    2PRO     BB 8140   0.801  -3.025   5.723
    2PRO     SC 8141   0.835  -2.798   5.846
    2ASN     BB 8142   0.733  -3.313   5.826
    2ASN     SC 8143   0.836  -3.272   6.148
    2LYS     BB 8144   0.508  -3.375   5.611
    2LYS     SC 8145   0.209  -3.320   5.767
    2LYS     SC 8146  -0.081  -3.338   5.917
    2ILE     BB 8147   0.672  -3.319   5.348
    2ILE     SC 8148   0.645  -3.017   5.285
    2ALA     BB 8149   0.939  -3.493   5.428
    2GLY     BB 8150   0.736  -3.782   5.437
    2GLU     BB 8151   0.644  -3.811   5.138
    2GLU     SC 8152   0.332  -3.712   4.918
    2ILE     BB 8153   0.926  -3.813   5.010
    2ILE     SC 8154   0.994  -3.512   4.957
    2THR     BB 8155   1.041  -4.055   5.176
    2THR     SC 8156   1.120  -3.939   5.394
    2ALA     BB 8157   0.776  -4.245   5.130
    2THR     BB 8158   0.848  -4.259   4.799
    2THR     SC 8159   0.717  -4.062   4.679
    2ARG     BB 8160   1.135  -4.383   4.822
    2ARG     SC 8161   1.396  -4.228   4.866
    2ARG     SC 8162   1.761  -4.211   4.805
    2VAL     BB 8163   1.044  -4.645   4.991
    2VAL     SC 8164   1.036  -4.588   5.242
    2ILE     BB 8165   0.867  -4.783   4.761
    2ILE     SC 8166   0.614  -4.614   4.732
    2PHE     BB 8167   1.135  -4.816   4.594
    2PHE     SC 8168   1.050  -4.660   4.340
    2PHE     SC 8169   0.946  -4.454   4.364
    2PHE     SC 8170   0.877  -4.522   4.179
    2ASN     BB 8171   1.305  -5.121   4.624
    2ASN     SC 8172   1.105  -5.317   4.537
    2ILE     BB 8173   1.545  -5.022   4.403
    2ILE     SC 8174   1.410  -5.119   4.174
    2ASP     BB 8175   1.593  -4.698   4.422
    2ASP     SC 8176   1.806  -4.607   4.609
    2PHE     BB 8177   1.431  -4.509   4.191
    2PHE     SC 8178   1.299  -4.608   3.979
    2PHE     SC 8179   1.415  -4.693   3.796
    2PHE     SC 8180   1.290  -4.548   3.713
    2ASP     BB 8181   1.418  -4.292   4.417
    2ASP     SC 8182   1.173  -4.089   4.433
    2ILE     BB 8183   1.609  -4.017   4.526
    2ILE     SC 8184   1.871  -4.104   4.385
    2GLU     BB 8185   1.456  -3.749   4.399
    2GLU     SC 8186   1.499  -3.523   4.675
    2VAL     BB 8187   1.185  -3.480   4.402
    2VAL     SC 8188   1.015  -3.649   4.332
    2SER     BB 8189   0.695  -3.084   4.184
    2SER     SC 8190   0.495  -3.243   4.227
    2ILE     BB 8191   0.512  -2.894   3.953
    2ILE     SC 8192   0.710  -2.884   3.752
    2ASP     BB 8193   0.246  -3.075   3.975
    2ASP     SC 8194   0.016  -2.860   3.866
    2ASP     BB 8195  -0.056  -3.232   4.139
    2ASP     SC 8196   0.163  -3.162   4.375
    2GLU     BB 8197  -0.296  -3.192   3.936
    2GLU     SC 8198  -0.463  -2.848   4.137
    2PHE     BB 8199  -0.086  -3.203   3.730
    2PHE     SC 8200  -0.188  -2.976   3.559
    2PHE     SC 8201  -0.282  -2.948   3.348
    2PHE     SC 8202  -0.377  -2.803   3.466
    2ILE     BB 8203   0.075  -3.471   3.605
    2ILE     SC 8204  -0.105  -3.712   3.652
    2SER     BB 8205   0.408  -3.343   3.720
    2SER     SC 8206   0.401  -3.187   3.528
    2SER     BB 8207   0.770  -3.425   3.705
    2SER     SC 8208   0.704  -3.571   3.894
    2THR     BB 8209   1.102  -3.439   3.867
    2THR     SC 8210   1.217  -3.250   3.724
    2LEU     BB 8211   1.329  -3.728   3.848
    2LEU     SC 8212   1.149  -3.964   3.984
    2GLU     BB 8213   1.559  -3.935   4.039
    2GLU     SC 8214   1.896  -3.741   4.153
    2VAL     BB 8215   1.751  -4.214   3.908
    2VAL     SC 8216   1.516  -4.262   3.777
    2LYS     BB 8217   1.814  -4.569   3.844
    2LYS     SC 8218   1.953  -4.588   4.132
    2LYS     SC 8219   2.104  -4.698   4.364
    2ASN     BB 8220   1.991  -4.891   3.725
    2ASN     SC 8221   1.829  -4.957   3.993
    2PRO     BB 8222   2.112  -5.216   3.586
    2PRO     SC 8223   2.052  -5.290   3.801
    2ASP     BB 8224   1.940  -5.239   3.317
    2ASP     SC 8225   1.700  -5.162   3.485
    2LEU     BB 8226   2.112  -4.961   3.223
    2LEU     SC 8227   1.835  -4.793   3.280
    2PHE     BB 8228   2.369  -5.105   3.155
    2PHE     SC 8229   2.576  -5.236   3.291
    2PHE     SC 8230   2.768  -5.117   3.354
    2PHE     SC 8231   2.843  -5.272   3.235
    2ASN     BB 8232   2.506  -5.004   2.874
    2ASN     SC 8233   2.771  -5.056   2.771
    2LYS     BB 8234   2.318  -4.758   2.766
    2LYS     SC 8235   2.112  -4.995   2.816
    2LYS     SC 8236   2.084  -5.309   2.774
    2ASN     BB 8237   2.159  -4.584   2.516
    2ASN     SC 8238   2.436  -4.638   2.335
    2ILE     BB 8239   1.959  -4.306   2.490
    2ILE     SC 8240   2.033  -4.048   2.606
    2GLN     BB 8241   1.858  -4.360   2.189
    2GLN     SC 8242   1.888  -4.177   1.920
    2GLN     BB 8243   1.786  -4.673   2.221
    2GLN     SC 8244   2.076  -4.941   2.245
    2VAL     BB 8245   1.660  -4.589   2.500
    2VAL     SC 8246   1.700  -4.776   2.666
    2GLY     BB 8247   1.392  -4.406   2.416
    2LEU     BB 8248   1.215  -4.181   2.602
    2LEU     SC 8249   1.436  -4.197   2.871
    2SER     BB 8250   1.035  -3.987   2.425
    2SER     SC 8251   1.121  -3.760   2.339
    2THR     BB 8252   0.880  -4.182   2.213
    2THR     SC 8253   1.012  -4.177   1.993
    2ASN     BB 8254   0.775  -4.439   2.408
    2ASN     SC 8255   1.019  -4.619   2.303
    2LYS     BB 8256   0.644  -4.226   2.677
    2LYS     SC 8257   0.717  -4.496   2.801
    2LYS     SC 8258   0.672  -4.779   2.940
    2ASP     BB 8259   0.674  -3.899   2.713
    2ASP     SC 8260   0.405  -3.926   2.538
    2PHE     BB 8261   1.010  -3.841   2.794
    2PHE     SC 8262   0.917  -4.005   3.008
    2PHE     SC 8263   1.089  -4.161   3.005
    2PHE     SC 8264   0.915  -4.276   3.015
    2ASN     BB 8265   1.290  -3.666   2.955
    2ASN     SC 8266   1.188  -3.495   2.683
    2ILE     BB 8267   1.626  -3.613   2.969
    2ILE     SC 8268   1.764  -3.897   3.012
    2ILE     BB 8269   1.848  -3.401   3.167
    2ILE     SC 8270   1.614  -3.251   3.293
    2GLN     BB 8271   2.043  -3.618   3.330
    2GLN     SC 8272   2.297  -3.384   3.402
    2ILE     BB 8273   2.389  -3.753   3.392
    2ILE     SC 8274   2.334  -3.959   3.173
    2ARG     BB 8275   2.547  -3.924   3.673
    2ARG     SC 8276   2.556  -3.742   3.924
    2ARG     SC 8277   2.637  -3.664   4.279
    2ARG     BB 8278   2.902  -4.029   3.667
    2ARG     SC 8279   2.913  -4.234   3.441
    2ARG     SC 8280   3.064  -4.280   3.135
    2LYS     BB 8281   3.107  -4.063   3.926
    2LYS     SC 8282   3.256  -4.320   3.811
    2LYS     SC 8283   3.429  -4.577   3.741
    2GLY     BB 8284   3.023  -3.735   3.966
    2LYS     BB 8285   2.984  -3.685   3.680
    2LYS     SC 8286   3.304  -3.728   3.564
    2LYS     SC 8287   3.605  -3.790   3.478
    2ILE     BB 8288   2.897  -3.515   3.389
    2ILE     SC 8289   2.707  -3.298   3.516
    2LEU     BB 8290   2.680  -3.586   3.114
    2LEU     SC 8291   2.843  -3.891   3.106
    2LEU     BB 8292   2.591  -3.538   2.810
    2LEU     SC 8293   2.629  -3.260   2.625
    2PRO     BB 8294   2.248  -3.564   2.656
    2PRO     SC 8295   2.211  -3.481   2.842
    2ASP     BB 8296   2.362  -3.653   2.366
    2ASP     SC 8297   2.404  -3.400   2.162
    2ASP     BB 8298   2.278  -3.853   2.107
    2ASP     SC 8299   1.961  -3.901   2.226
    2TYR     BB 8300   2.501  -4.070   2.248
    2TYR     SC 8301   2.513  -4.278   2.084
    2TYR     SC 8302   2.722  -4.354   2.153
    2TYR     SC 8303   2.818  -4.339   1.938
    2THR     BB 8304   2.495  -4.204   2.592
    2THR     SC 8305   2.568  -3.955   2.684
    2GLU     BB 8306   2.645  -4.364   2.865
    2GLU     SC 8307   2.947  -4.599   2.892
    2LEU     BB 8308   2.502  -4.585   3.102
    2LEU     SC 8309   2.218  -4.383   3.070
    2LYS     BB 8310   2.527  -4.680   3.439
    2LYS     SC 8311   2.876  -4.708   3.380
    2LYS     SC 8312   3.172  -4.730   3.260
    2GLU     BB 8313   2.537  -4.835   3.729
    2GLU     SC 8314   2.483  -5.202   3.869
    2GLY     BB 8315   2.412  -4.594   3.964
    2ASP     BB 8316   2.345  -4.371   3.798
    2ASP     SC 8317   2.618  -4.383   3.581
    2ILE     BB 8318   1.875  -4.005   3.651
    2ILE     SC 8319   1.911  -4.239   3.462
    2VAL     BB 8320   1.697  -3.743   3.481
    2VAL     SC 8321   1.765  -3.560   3.658
    2VAL     BB 8322   1.343  -3.714   3.479
    2VAL     SC 8323   1.331  -3.969   3.423
    2PHE     BB 8324   1.062  -3.588   3.260
    2PHE     SC 8325   1.084  -3.312   3.252
    2PHE     SC 8326   0.924  -3.192   3.371
    2PHE     SC 8327   0.898  -3.130   3.173
    2ALA     BB 8328   0.698  -3.577   3.305
    2ARG     BB 8329   0.466  -3.782   3.413
    2ARG     SC 8330   0.202  -3.685   3.219
    2ARG     SC 8331  -0.010  -3.588   2.927
    2THR     BB 8332   0.414  -3.980   3.689
    2THR     SC 8333   0.368  -3.831   3.903
    2THR     BB 8334   0.278  -4.230   3.546
    2THR     SC 8335   0.017  -4.206   3.562
    2ILE     BB 8336   0.490  -4.243   3.313
    2ILE     SC 8337   0.392  -4.044   3.096
    2ILE     BB 8338   0.745  -4.290   3.494
    2ILE     SC 8339   0.852  -4.009   3.566
    2ASN     BB 8340   0.643  -4.559   3.616
    2ASN     SC 8341   0.539  -4.420   3.900
    2SER     BB 8342   0.619  -4.705   3.332
    2SER     SC 8343   0.432  -4.671   3.175
    2LEU     BB 8344   0.934  -4.719   3.322
    2LEU     SC 8345   1.147  -4.523   3.220
    2ALA     BB 8346   0.992  -4.841   3.631
    2GLU     BB 8347   0.835  -5.137   3.471
    2GLU     SC 8348   0.479  -5.018   3.629
    2LYS     BB 8349   1.016  -5.094   3.134
    2LYS     SC 8350   0.787  -5.172   2.950
    2LYS     SC 8351   0.728  -5.231   2.640
    2LYS     BB 8352   0.692  -5.615   4.736
    2LYS     SC 8353   0.390  -5.719   4.828
    2LYS     SC 8354   0.144  -5.824   5.008
    2GLN     BB 8355   0.666  -5.484   5.078
    2GLN     SC 8356   1.051  -5.474   4.965
    2ASN     BB 8357   0.766  -5.429   5.427
    2ASN     SC 8358   0.591  -5.713   5.419
    2PHE     BB 8359   0.675  -5.188   5.679
    2PHE     SC 8360   0.762  -5.017   5.428
    2PHE     SC 8361   0.658  -5.061   5.223
    2PHE     SC 8362   0.856  -5.022   5.172
    2ALA     BB 8363   0.827  -5.024   5.976
    2ILE     BB 8364   0.693  -4.759   6.211
    2ILE     SC 8365   0.642  -4.601   5.971
    2ILE     BB 8366   0.889  -4.560   6.443
    2ILE     SC 8367   1.025  -4.819   6.546
    2GLY     BB 8368   0.798  -4.297   6.624
    2VAL     BB 8369   0.512  -4.086   6.583
    2VAL     SC 8370   0.388  -4.297   6.579
    2SER     BB 8371   0.589  -3.834   6.458
    2SER     SC 8372   0.833  -3.762   6.471
    2ASN     BB 8373   0.526  -3.603   6.210
    2ASN     SC 8374   0.433  -3.366   6.428
    2PHE     BB 8375   0.712  -3.749   6.007
    2PHE     SC 8376   0.976  -3.699   5.932
    2PHE     SC 8377   1.110  -3.889   5.923
    2PHE     SC 8378   1.125  -3.808   5.731
    2THR     BB 8379   0.634  -4.051   6.066
    2THR     SC 8380   0.778  -4.112   6.278
    2LEU     BB 8381   0.328  -4.007   5.999
    2LEU     SC 8382   0.117  -3.894   6.180
    2SER     BB 8383   0.370  -3.939   5.696
    2SER     SC 8384   0.409  -3.713   5.609
    2VAL     BB 8385   0.504  -4.208   5.617
    2VAL     SC 8386   0.762  -4.208   5.656
    2ILE     BB 8387   0.263  -4.386   5.680
    2ILE     SC 8388   0.199  -4.496   5.907
    2GLU     BB 8389   0.035  -4.245   5.516
    2GLU     SC 8390  -0.101  -3.925   5.509
    2THR     BB 8391   0.167  -4.257   5.242
    2THR     SC 8392   0.317  -4.049   5.194
    2LEU     BB 8393   0.210  -4.570   5.228
    2LEU     SC 8394   0.536  -4.610   5.321
    2VAL     BB 8395  -0.099  -4.648   5.269
    2VAL     SC 8396  -0.103  -4.648   5.531
    2GLN     BB 8397  -0.215  -4.466   5.031
    2GLN     SC 8398  -0.416  -4.220   5.042
    2LYS     BB 8399  -0.008  -4.658   4.845
    2LYS     SC 8400   0.165  -4.409   4.775
    2LYS     SC 8401   0.224  -4.115   4.653
    2ARG     BB 8402  -0.069  -4.966   4.949
    2ARG     SC 8403  -0.336  -4.911   4.784
    2ARG     SC 8404  -0.632  -4.806   4.584
    2GLN     BB 8405   0.109  -5.070   5.185
    2GLN     SC 8406   0.354  -5.020   4.912
    2SER     BB 8407   0.287  -5.259   5.413
    2SER     SC 8408   0.241  -5.504   5.459
    2VAL     BB 8409   0.215  -5.115   5.748
    2VAL     SC 8410   0.330  -4.907   5.629
    2THR     BB 8411   0.363  -5.045   6.070
    2THR     SC 8412   0.409  -5.294   6.102
    2VAL     BB 8413   0.267  -4.915   6.401
    2VAL     SC 8414   0.143  -4.700   6.327
    2PHE     BB 8415   0.508  -4.766   6.647
    2PHE     SC 8416   0.545  -5.063   6.594
    2PHE     SC 8417   0.656  -5.180   6.428
    2PHE     SC 8418   0.483  -5.294   6.461
    2ASP     BB 8419   0.448  -4.695   6.994
    2ASP     SC 8420   0.486  -4.351   6.979
    2ILE     BB 8421   0.430  -4.588   7.347
    2ILE     SC 8422   0.683  -4.578   7.476
    2ASP     BB 8423   0.183  -4.428   7.276
    2ASP     SC 8424   0.113  -4.128   7.352
    2GLU     BB 8425  -0.159  -4.483   7.276
    2GLU     SC 8426  -0.384  -4.661   7.539
    2ARG     BB 8427  -0.273  -4.222   7.143
    2ARG     SC 8428  -0.322  -4.032   7.419
    2ARG     SC 8429  -0.427  -3.858   7.731
    2ARG     BB 8430  -0.100  -4.240   6.889
    2ARG     SC 8431   0.186  -4.084   6.970
    2ARG     SC 8432   0.482  -3.912   7.100
    2LEU     BB 8433  -0.204  -4.511   6.801
    2LEU     SC 8434  -0.155  -4.802   6.878
    2ASN     BB 8435  -0.522  -4.472   6.800
    2ASN     SC 8436  -0.568  -4.602   7.103
    2LEU     BB 8437  -0.520  -4.249   6.580
    2LEU     SC 8438  -0.488  -3.960   6.765
    2TYR     BB 8439  -0.345  -4.431   6.359
    2TYR     SC 8440  -0.134  -4.228   6.438
    2TYR     SC 8441   0.082  -4.153   6.456
    2TYR     SC 8442   0.032  -3.951   6.558
    2LEU     BB 8443  -0.529  -4.690   6.335
    2LEU     SC 8444  -0.526  -4.940   6.521
    2SER     BB 8445  -0.826  -4.545   6.258
    2SER     SC 8446  -0.925  -4.545   6.484
    2GLU     BB 8447  -0.747  -4.219   6.140
    2GLU     SC 8448  -1.006  -4.191   6.390
    2PHE     BB 8449  -0.462  -4.324   5.942
    2PHE     SC 8450  -0.304  -4.104   6.017
    2PHE     SC 8451  -0.369  -3.881   6.033
    2PHE     SC 8452  -0.182  -3.872   5.938
    2ASP     BB 8453  -0.466  -4.606   5.753
    2ASP     SC 8454  -0.676  -4.423   5.610
    2THR     BB 8455  -0.342  -4.846   5.880
    2THR     SC 8456  -0.150  -4.836   6.045
    2VAL     BB 8457  -0.269  -5.183   5.882
    2VAL     SC 8458  -0.151  -5.260   5.661
    2GLU     BB 8459  -0.103  -5.143   6.168
    2GLU     SC 8460   0.003  -5.534   6.249
    2GLY     BB 8461  -0.117  -5.119   6.549
    2ILE     BB 8462   0.131  -5.098   6.831
    2ILE     SC 8463   0.129  -5.408   6.764
    2VAL     BB 8464   0.212  -5.115   7.165
    2VAL     SC 8465   0.065  -4.958   7.321
    2ILE     BB 8466   0.558  -4.998   7.220
    2ILE     SC 8467   0.599  -5.248   7.104
    2ASP     BB 8468   0.874  -5.076   7.309
    2ASP     SC 8469   1.031  -4.939   7.560
    2THR     BB 8470   1.193  -5.031   7.121
    2THR     SC 8471   1.079  -4.890   6.954
    2THR     BB 8472   1.421  -5.103   7.343
    2THR     SC 8473   1.419  -4.878   7.462
    2ASN     BB 8474   1.275  -5.373   7.363
    2ASN     SC 8475   1.157  -5.496   7.620
    2LYS     BB 8476   1.332  -5.690   7.234
    2LYS     SC 8477   1.599  -5.834   7.205
    2LYS     SC 8478   1.774  -6.080   7.096
    2VAL     BB 8479   1.067  -5.855   7.299
    2VAL     SC 8480   1.102  -6.006   7.507
    2ALA     BB 8481   0.880  -5.606   7.221
    2LEU     BB 8482   1.004  -5.643   6.903
    2LEU     SC 8483   1.226  -5.415   6.824
    2ALA     BB 8484   0.969  -5.974   6.870
    2LYS     BB 8485   0.615  -5.952   6.889
    2LYS     SC 8486   0.583  -5.942   7.218
    2LYS     SC 8487   0.562  -5.965   7.537
    2LYS     BB 8488   0.595  -5.791   6.593
    2LYS     SC 8489   0.621  -5.504   6.721
    2LYS     SC 8490   0.818  -5.290   6.743
    2GLY     BB 8491   0.790  -5.920   6.380
    2ILE     BB 8492   1.051  -5.739   6.281
    2ILE     SC 8493   1.102  -5.541   6.434
    2GLN     BB 8494   1.195  -5.961   6.078
    2GLN     SC 8495   1.429  -6.145   6.360
    2SER     BB 8496   0.959  -5.917   5.844
    2SER     SC 8497   0.776  -6.047   5.975
    2TYR     BB 8498   1.101  -5.637   5.767
    2TYR     SC 8499   0.841  -5.527   5.888
    2TYR     SC 8500   0.786  -5.568   6.110
    2TYR     SC 8501   0.565  -5.638   6.059
    2ASP     BB 8502   1.266  -5.474   5.519
    2ASP     SC 8503   1.080  -5.646   5.287
    2TRP     BB 8504   1.166  -5.184   5.642
    2TRP     SC 8505   1.267  -5.047   5.358
    2TRP     SC 8506   1.306  -5.123   5.165
    2TRP     SC 8507   1.455  -4.840   5.282
    2TRP     SC 8508   1.503  -4.913   5.089
    2VAL     BB 8509   1.291  -4.958   5.899
    2VAL     SC 8510   1.228  -5.137   6.091
    2ILE     BB 8511   1.154  -4.670   6.073
    2ILE     SC 8512   1.107  -4.573   5.808
    2VAL     BB 8513   1.320  -4.420   6.277
    2VAL     SC 8514   1.416  -4.587   6.453
    2GLY     BB 8515   1.154  -4.114   6.410
    2ILE     BB 8516   1.341  -4.055   6.656
    2ILE     SC 8517   1.222  -4.247   6.863
    2GLU     BB 8518   1.468  -3.733   6.777
    2GLU     SC 8519   1.381  -3.438   6.523
    2ASN     BB 8520   1.460  -3.612   7.072
    2ASN     SC 8521   1.185  -3.435   7.011
    2GLU     BB 8522   1.557  -3.906   7.160
    2GLU     SC 8523   1.224  -4.006   7.357
    2LEU     BB 8524   1.849  -4.075   7.168
    2LEU     SC 8525   2.123  -3.955   7.077
    2GLU     BB 8526   1.829  -4.336   7.340
    2GLU     SC 8527   1.908  -4.369   7.736
    2SER     BB 8528   1.584  -4.459   7.185
    2SER     SC 8529   1.345  -4.406   7.239
    2SER     BB 8530   1.709  -4.454   6.892
    2SER     SC 8531   1.682  -4.255   6.737
    2LEU     BB 8532   1.980  -4.617   6.946
    2LEU     SC 8533   2.195  -4.362   6.980
    2VAL     BB 8534   1.853  -4.878   7.063
    2VAL     SC 8535   1.858  -4.874   7.325
    2THR     BB 8536   1.667  -4.932   6.820
    2THR     SC 8537   1.437  -4.807   6.849
    2VAL     BB 8538   1.890  -4.953   6.594
    2VAL     SC 8539   1.982  -4.750   6.493
    2LEU     BB 8540   2.055  -5.177   6.732
    2LEU     SC 8541   2.264  -5.161   6.963
    2ASN     BB 8542   1.827  -5.392   6.740
    2ASN     SC 8543   1.706  -5.337   7.050
    2LEU     BB 8544   1.792  -5.396   6.423
    2LEU     SC 8545   1.532  -5.180   6.393
    2LEU     BB 8546   2.082  -5.493   6.364
    2LEU     SC 8547   2.356  -5.332   6.354
    2ASP     BB 8548   2.093  -5.752   6.561
    2ASP     SC 8549   2.255  -5.609   6.820
    2LEU     BB 8550   1.821  -5.870   6.395
    2LEU     SC 8551   1.630  -5.824   6.660
    2LYS     BB 8552   1.865  -5.821   6.075
    2LYS     SC 8553   2.073  -6.058   6.114
    2LYS     SC 8554   2.260  -6.311   6.171
    2CYS     BB 8555   1.779  -5.578   5.920
    2CYS     SC 8556   1.537  -5.404   5.939
    2THR     BB 8557   1.801  -5.453   5.613
    2THR     SC 8558   1.712  -5.628   5.425
    2ASN     BB 8559   1.642  -5.157   5.631
    2ASN     SC 8560   1.690  -5.183   5.301
    2ILE     BB 8561   1.762  -4.860   5.814
    2ILE     SC 8562   1.801  -5.050   6.046
    2THR     BB 8563   1.577  -4.568   5.898
    2THR     SC 8564   1.536  -4.510   5.640
    2VAL     BB 8565   1.685  -4.247   6.033
    2VAL     SC 8566   1.818  -4.408   6.187
    2LYS     BB 8567   1.633  -3.995   6.272
    2LYS     SC 8568   1.370  -3.808   6.233
    2LYS     SC 8569   1.176  -3.555   6.285
    2ALA     BB 8570   1.842  -3.693   6.310
    2LYS     BB 8571   1.879  -3.397   6.514
    2LYS     SC 8572   1.788  -3.391   6.817
    2LYS     SC 8573   1.724  -3.329   7.121
    2ASP     BB 8574   2.207  -3.419   6.497
    2ASP     SC 8575   2.299  -3.123   6.633
    2ASP     BB 8576   2.550  -3.463   6.445
    2ASP     SC 8577   2.578  -3.208   6.237
    2ASN     BB 8578   2.614  -3.654   6.687
    2ASN     SC 8579   2.785  -3.426   6.866
    2TYR     BB 8580   2.366  -3.839   6.638
    2TYR     SC 8581   2.195  -3.646   6.825
    2TYR     SC 8582   2.002  -3.644   6.949
    2TYR     SC 8583   2.083  -3.504   7.119
    2ARG     BB 8584   2.457  -3.928   6.349
    2ARG     SC 8585   2.435  -3.757   6.091
    2ARG     SC 8586   2.561  -3.482   6.028
    2ARG     BB 8587   2.729  -4.066   6.439
    2ARG     SC 8588   2.942  -3.806   6.457
    2ARG     SC 8589   3.133  -3.494   6.444
    2VAL     BB 8590   2.600  -4.294   6.609
    2VAL     SC 8591   2.592  -4.234   6.863
    2LEU     BB 8592   2.414  -4.409   6.378
    2LEU     SC 8593   2.124  -4.240   6.440
    2LEU     BB 8594   2.661  -4.475   6.190
    2LEU     SC 8595   2.824  -4.278   6.011
    2ALA     BB 8596   2.831  -4.667   6.413
    2LEU     BB 8597   2.499  -4.837   6.408
    2LEU     SC 8598   2.482  -4.778   6.726
    2GLY     BB 8599   2.554  -4.912   6.101
    2LEU     BB 8600   2.489  -5.024   5.792
    2LEU     SC 8601   2.507  -5.361   5.925
    2THR     BB 8602   2.488  -5.005   5.444
    2THR     SC 8603   2.673  -5.148   5.335
    2GLU     BB 8604   2.144  -5.000   5.456
    2GLU     SC 8605   2.155  -5.261   5.229
    2ASN     BB 8606   2.165  -4.733   5.599
    2ASN     SC 8607   2.165  -4.904   5.901
    2GLN     BB 8608   1.980  -4.423   5.686
    2GLN     SC 8609   2.102  -4.385   5.324
    2ILE     BB 8610   2.014  -4.056   5.739
    2ILE     SC 8611   2.202  -4.126   5.972
    2ILE     BB 8612   1.785  -3.808   5.862
    2ILE     SC 8613   1.588  -3.908   5.638
    2VAL     BB 8614   1.733  -3.426   5.849
    2VAL     SC 8615   1.965  -3.413   5.921
    2PRO     BB 8616   1.442  -3.271   5.798
    2PRO     SC 8617   1.378  -3.508   5.884
    2ASN     BB 8618   1.477  -2.992   5.941
    2ASN     SC 8619   1.283  -3.058   6.211
    2LYS     BB 8620   1.748  -2.913   5.803
    2LYS     SC 8621   1.993  -2.987   6.030
    2LYS     SC 8622   2.226  -2.984   6.259
    2ILE     BB 8623   1.669  -2.948   5.498
    2ILE     SC 8624   1.718  -3.245   5.424
    2ALA     BB 8625   1.390  -2.780   5.514
    2GLY     BB 8626   1.577  -2.497   5.609
    2GLU     BB 8627   1.759  -2.459   5.354
    2GLU     SC 8628   2.104  -2.695   5.425
    2ILE     BB 8629   1.528  -2.434   5.147
    2ILE     SC 8630   1.476  -2.728   5.047
    2THR     BB 8631   1.368  -2.202   5.286
    2THR     SC 8632   1.227  -2.329   5.465
    2ALA     BB 8633   1.634  -2.016   5.334
    2THR     BB 8634   1.659  -1.975   4.998
    2THR     SC 8635   1.819  -2.164   4.902
    2ARG     BB 8636   1.374  -1.852   4.942
    2ARG     SC 8637   1.113  -2.007   4.895
    2ARG     SC 8638   0.802  -1.886   4.861
    2VAL     BB 8639   1.406  -1.602   5.148
    2VAL     SC 8640   1.344  -1.678   5.387
    2ILE     BB 8641   1.639  -1.443   4.993
    2ILE     SC 8642   1.890  -1.614   5.027
    2PHE     BB 8643   1.429  -1.388   4.754
    2PHE     SC 8644   1.588  -1.529   4.531
    2PHE     SC 8645   1.681  -1.737   4.568
    2PHE     SC 8646   1.800  -1.657   4.416
    2ASN     BB 8647   1.251  -1.084   4.762
    2ASN     SC 8648   1.462  -0.947   4.976
    2ILE     BB 8649   1.098  -1.170   4.459
    2ILE     SC 8650   1.310  -1.062   4.310
    2ASP     BB 8651   1.042  -1.479   4.411
    2ASP     SC 8652   0.803  -1.606   4.544
    2PHE     BB 8653   1.283  -1.684   4.255
    2PHE     SC 8654   1.474  -1.575   4.105
    2PHE     SC 8655   1.420  -1.489   3.896
    2PHE     SC 8656   1.573  -1.626   3.854
    2ASP     BB 8657   1.216  -1.913   4.465
    2ASP     SC 8658   1.455  -2.110   4.538
    2ILE     BB 8659   1.011  -2.194   4.494
    2ILE     SC 8660   0.810  -2.073   4.338
    2GLU     BB 8661   1.197  -2.450   4.395
    2GLU     SC 8662   1.090  -2.701   4.632
    2VAL     BB 8663   1.461  -2.718   4.455
    2VAL     SC 8664   1.642  -2.545   4.451
    2SER     BB 8665   1.997  -3.101   4.357
    2SER     SC 8666   2.176  -2.950   4.475
    2ILE     BB 8667   2.247  -3.268   4.172
    2ILE     SC 8668   2.112  -3.257   3.926
    2ASP     BB 8669   2.488  -3.096   4.295
    2ASP     SC 8670   2.740  -3.309   4.252
    2ASP     BB 8671   2.723  -2.956   4.557
    2ASP     SC 8672   2.441  -3.033   4.709
    2GLU     BB 8673   3.015  -2.984   4.435
    2GLU     SC 8674   3.116  -3.344   4.651
    2PHE     BB 8675   2.877  -2.953   4.178
    2PHE     SC 8676   3.029  -3.166   4.027
    2PHE     SC 8677   3.183  -3.177   3.853
    2PHE     SC 8678   3.240  -3.333   3.981
    2ILE     BB 8679   2.755  -2.674   4.031
    2ILE     SC 8680   2.909  -2.439   4.147
    2SER     BB 8681   2.403  -2.806   4.034
    2SER     SC 8682   2.467  -2.938   3.828
    2SER     BB 8683   2.061  -2.720   3.915
    2SER     SC 8684   2.063  -2.589   4.126
    2THR     BB 8685   1.696  -2.719   3.969
    2THR     SC 8686   1.631  -2.896   3.784
    2LEU     BB 8687   1.482  -2.427   3.905
    2LEU     SC 8688   1.609  -2.203   4.107
    2GLU     BB 8689   1.201  -2.230   4.033
    2GLU     SC 8690   0.849  -2.430   4.029
    2VAL     BB 8691   1.060  -1.935   3.873
    2VAL     SC 8692   1.321  -1.887   3.819
    2LYS     BB 8693   1.015  -1.570   3.839
    2LYS     SC 8694   0.716  -1.683   4.005
    2LYS     SC 8695   0.461  -1.825   4.129
    2ASN     BB 8696   0.867  -1.243   3.720
    2ASN     SC 8697   1.106  -1.236   3.991
    2PRO     BB 8698   0.788  -0.916   3.535
    2PRO     SC 8699   0.775  -0.842   3.752
    2ASP     BB 8700   1.029  -0.871   3.326
    2ASP     SC 8701   1.210  -0.967   3.546
    2LEU     BB 8702   0.899  -1.140   3.165
    2LEU     SC 8703   1.147  -1.315   3.289
    2PHE     BB 8704   0.668  -0.989   3.036
    2PHE     SC 8705   0.423  -0.883   3.114
    2PHE     SC 8706   0.226  -0.994   3.166
    2PHE     SC 8707   0.171  -0.872   3.006
    2ASN     BB 8708   0.632  -1.076   2.722
    2ASN     SC 8709   0.412  -1.013   2.546
    2LYS     BB 8710   0.844  -1.317   2.674
    2LYS     SC 8711   1.019  -1.067   2.782
    2LYS     SC 8712   1.036  -0.752   2.747
    2ASN     BB 8713   1.105  -1.504   2.497
    2ASN     SC 8714   0.848  -1.442   2.287
    2ILE     BB 8715   1.327  -1.766   2.468
    2ILE     SC 8716   1.175  -2.029   2.542
    2GLN     BB 8717   1.510  -1.652   2.208
    2GLN     SC 8718   1.583  -1.864   1.888
    2GLN     BB 8719   1.510  -1.352   2.295
    2GLN     SC 8720   1.203  -1.108   2.262
    2VAL     BB 8721   1.558  -1.461   2.590
    2VAL     SC 8722   1.471  -1.283   2.749
    2GLY     BB 8723   1.845  -1.613   2.590
    2LEU     BB 8724   2.003  -1.874   2.798
    2LEU     SC 8725   1.732  -1.795   2.991
    2SER     BB 8726   2.202  -2.069   2.658
    2SER     SC 8727   2.034  -2.172   2.493
    2THR     BB 8728   2.399  -1.853   2.517
    2THR     SC 8729   2.335  -1.840   2.267
    2ASN     BB 8730   2.424  -1.614   2.760
    2ASN     SC 8731   2.243  -1.419   2.583
    2LYS     BB 8732   2.472  -1.852   3.032
    2LYS     SC 8733   2.345  -1.605   3.151
    2LYS     SC 8734   2.360  -1.326   3.308
    2ASP     BB 8735   2.466  -2.180   3.019
    2ASP     SC 8736   2.772  -2.123   2.934
    2PHE     BB 8737   2.125  -2.242   3.006
    2PHE     SC 8738   2.134  -2.111   3.250
    2PHE     SC 8739   1.913  -2.048   3.284
    2PHE     SC 8740   2.020  -1.868   3.280
    2ASN     BB 8741   1.802  -2.411   3.069
    2ASN     SC 8742   1.980  -2.565   2.827
    2ILE     BB 8743   1.474  -2.454   2.973
    2ILE     SC 8744   1.345  -2.165   2.997
    2ILE     BB 8745   1.199  -2.680   3.066
    2ILE     SC 8746   1.383  -2.846   3.244
    2GLN     BB 8747   0.956  -2.482   3.181
    2GLN     SC 8748   0.717  -2.796   3.314
    2ILE     BB 8749   0.606  -2.357   3.161
    2ILE     SC 8750   0.713  -2.129   2.985
    2ARG     BB 8751   0.369  -2.206   3.397
    2ARG     SC 8752   0.289  -2.407   3.618
    2ARG     SC 8753   0.105  -2.508   3.927
    2ARG     BB 8754   0.031  -2.099   3.289
    2ARG     SC 8755   0.093  -1.880   3.085
    2ARG     SC 8756   0.034  -1.816   2.753
    2LYS     BB 8757  -0.245  -2.087   3.471
    2LYS     SC 8758  -0.361  -1.819   3.342
    2LYS     SC 8759  -0.512  -1.557   3.246
    2GLY     BB 8760  -0.163  -2.416   3.513
    2LYS     BB 8761  -0.042  -2.442   3.245
    2LYS     SC 8762  -0.316  -2.392   3.047
    2LYS     SC 8763  -0.582  -2.320   2.885
    2ILE     BB 8764   0.143  -2.604   2.995
    2ILE     SC 8765   0.276  -2.822   3.168
    2LEU     BB 8766   0.414  -2.509   2.804
    2LEU     SC 8767   0.260  -2.199   2.761
    2LEU     BB 8768   0.588  -2.532   2.536
    2LEU     SC 8769   0.611  -2.792   2.322
    2PRO     BB 8770   0.962  -2.502   2.485
    2PRO     SC 8771   0.944  -2.598   2.666
    2ASP     BB 8772   0.929  -2.388   2.182
    2ASP     SC 8773   0.957  -2.615   1.952
    2ASP     BB 8774   1.073  -2.157   2.000
    2ASP     SC 8775   1.340  -2.136   2.211
    2TYR     BB 8776   0.837  -1.909   2.072
    2TYR     SC 8777   1.026  -1.727   1.922
    2TYR     SC 8778   1.195  -1.571   1.960
    2TYR     SC 8779   1.309  -1.620   1.761
    2THR     BB 8780   0.739  -1.850   2.414
    2THR     SC 8781   0.643  -2.099   2.448
    2GLU     BB 8782   0.505  -1.704   2.627
    2GLU     SC 8783   0.204  -1.472   2.584
    2LEU     BB 8784   0.571  -1.509   2.912
    2LEU     SC 8785   0.856  -1.708   2.957
    2LYS     BB 8786   0.449  -1.443   3.236
    2LYS     SC 8787   0.130  -1.413   3.079
    2LYS     SC 8788  -0.114  -1.400   2.873
    2GLU     BB 8789   0.347  -1.311   3.522
    2GLU     SC 8790   0.351  -0.954   3.695
    2GLY     BB 8791   0.401  -1.570   3.764
    2ASP     BB 8792   0.522  -1.776   3.608
    2ASP     SC 8793   0.336  -1.747   3.314
    2ILE     BB 8794   1.018  -2.132   3.579
    2ILE     SC 8795   1.032  -1.883   3.407
    2VAL     BB 8796   1.240  -2.380   3.447
    2VAL     SC 8797   1.126  -2.579   3.575
    2VAL     BB 8798   1.583  -2.412   3.549
    2VAL     SC 8799   1.604  -2.154   3.521
    2PHE     BB 8800   1.917  -2.532   3.412
    2PHE     SC 8801   1.896  -2.807   3.387
    2PHE     SC 8802   2.000  -2.928   3.556
    2PHE     SC 8803   2.087  -3.000   3.379
    2ALA     BB 8804   2.249  -2.552   3.568
    2ARG     BB 8805   2.434  -2.348   3.749
    2ARG     SC 8806   2.745  -2.429   3.636
    2ARG     SC 8807   3.032  -2.502   3.409
    2THR     BB 8808   2.398  -2.170   4.041
    2THR     SC 8809   2.382  -2.332   4.249
    2THR     BB 8810   2.568  -1.913   3.958
    2THR     SC 8811   2.811  -1.940   4.051
    2ILE     BB 8812   2.428  -1.881   3.677
    2ILE     SC 8813   2.580  -2.061   3.478
    2ILE     BB 8814   2.132  -1.842   3.780
    2ILE     SC 8815   2.015  -2.129   3.800
    2ASN     BB 8816   2.196  -1.586   3.947
    2ASN     SC 8817   2.208  -1.747   4.238
    2SER     BB 8818   2.305  -1.422   3.695
    2SER     SC 8819   2.529  -1.449   3.599
    2LEU     BB 8820   2.014  -1.400   3.593
    2LEU     SC 8821   1.825  -1.571   3.419
    2ALA     BB 8822   1.859  -1.306   3.879
    2GLU     BB 8823   2.050  -0.997   3.798
    2GLU     SC 8824   2.342  -1.126   4.050
    2LYS     BB 8825   1.971  -1.008   3.422
    2LYS     SC 8826   2.244  -0.922   3.320
    2LYS     SC 8827   2.390  -0.840   3.047
    2GLN     BB 8828   5.036  -3.864   8.331
    2GLN     SC 8829   5.060  -4.167   8.099
    2ASN     BB 8830   4.708  -3.763   8.209
    2ASN     SC 8831   4.894  -3.482   8.196
    2PHE     BB 8832   4.390  -3.719   8.373
    2PHE     SC 8833   4.486  -4.009   8.451
    2PHE     SC 8834   4.696  -4.032   8.550
    2PHE     SC 8835   4.681  -4.198   8.421
    2ALA     BB 8836   4.034  -3.746   8.277
    2ILE     BB 8837   3.721  -3.704   8.491
    2ILE     SC 8838   3.841  -3.900   8.671
    2ILE     BB 8839   3.385  -3.814   8.402
    2ILE     SC 8840   3.419  -3.676   8.126
    2GLY     BB 8841   3.117  -3.821   8.597
    2VAL     BB 8842   3.089  -3.824   8.955
    2VAL     SC 8843   3.227  -3.624   8.958
    2SER     BB 8844   3.035  -4.092   9.054
    2SER     SC 8845   2.947  -4.266   8.892
    2ASN     BB 8846   3.120  -4.337   9.283
    2ASN     SC 8847   2.828  -4.312   9.442
    2PHE     BB 8848   3.337  -4.449   9.090
    2PHE     SC 8849   3.328  -4.670   8.920
    2PHE     SC 8850   3.417  -4.640   8.707
    2PHE     SC 8851   3.525  -4.802   8.784
    2THR     BB 8852   3.465  -4.179   8.978
    2THR     SC 8853   3.302  -4.112   8.783
    2LEU     BB 8854   3.549  -4.075   9.258
    2LEU     SC 8855   3.357  -4.027   9.509
    2SER     BB 8856   3.753  -4.304   9.313
    2SER     SC 8857   3.700  -4.519   9.421
    2VAL     BB 8858   3.937  -4.252   9.067
    2VAL     SC 8859   3.863  -4.383   8.854
    2ILE     BB 8860   4.020  -3.970   9.157
    2ILE     SC 8861   3.913  -3.743   9.099
    2GLU     BB 8862   4.096  -4.015   9.463
    2GLU     SC 8863   3.833  -4.048   9.770
    2THR     BB 8864   4.316  -4.225   9.404
    2THR     SC 8865   4.214  -4.466   9.406
    2LEU     BB 8866   4.500  -4.069   9.193
    2LEU     SC 8867   4.403  -4.189   8.890
    2VAL     BB 8868   4.564  -3.823   9.385
    2VAL     SC 8869   4.352  -3.680   9.339
    2GLN     BB 8870   4.688  -3.994   9.623
    2GLN     SC 8871   4.364  -4.106   9.859
    2LYS     BB 8872   4.906  -4.097   9.391
    2LYS     SC 8873   4.802  -4.378   9.378
    2LYS     SC 8874   4.774  -4.660   9.525
    2ARG     BB 8875   4.997  -3.816   9.243
    2ARG     SC 8876   5.154  -3.787   9.520
    2ARG     SC 8877   5.316  -3.790   9.855
    2GLN     BB 8878   4.829  -3.727   8.997
    2GLN     SC 8879   4.985  -4.035   8.868
    2SER     BB 8880   4.722  -3.592   8.695
    2SER     SC 8881   4.837  -3.405   8.574
    2VAL     BB 8882   4.383  -3.461   8.768
    2VAL     SC 8883   4.342  -3.718   8.816
    2THR     BB 8884   4.058  -3.416   8.628
    2THR     SC 8885   4.150  -3.264   8.444
    2VAL     BB 8886   3.730  -3.261   8.704
    2VAL     SC 8887   3.699  -3.364   8.940
    2PHE     BB 8888   3.399  -3.363   8.561
    2PHE     SC 8889   3.592  -3.240   8.365
    2PHE     SC 8890   3.774  -3.337   8.256
    2PHE     SC 8891   3.841  -3.146   8.305
    2ASP     BB 8892   3.087  -3.186   8.575
    2ASP     SC 8893   2.905  -3.427   8.748
    2ILE     BB 8894   2.745  -3.050   8.571
    2ILE     SC 8895   2.588  -3.132   8.349
    2ASP     BB 8896   2.756  -3.042   8.870
    2ASP     SC 8897   2.545  -3.145   9.084
    2GLU     BB 8898   2.847  -2.817   9.114
    2GLU     SC 8899   2.794  -2.438   9.169
    2ARG     BB 8900   2.840  -2.984   9.378
    2ARG     SC 8901   2.517  -2.930   9.472
    2ARG     SC 8902   2.183  -2.814   9.587
    2ARG     BB 8903   3.028  -3.204   9.273
    2ARG     SC 8904   2.823  -3.421   9.124
    2ARG     SC 8905   2.575  -3.633   8.961
    2LEU     BB 8906   3.267  -3.023   9.221
    2LEU     SC 8907   3.358  -2.827   9.007
    2ASN     BB 8908   3.304  -2.864   9.496
    2ASN     SC 8909   3.119  -2.603   9.410
    2LEU     BB 8910   3.368  -3.112   9.665
    2LEU     SC 8911   3.055  -3.228   9.766
    2TYR     BB 8912   3.622  -3.225   9.482
    2TYR     SC 8913   3.419  -3.437   9.392
    2TYR     SC 8914   3.385  -3.647   9.299
    2TYR     SC 8915   3.163  -3.666   9.384
    2LEU     BB 8916   3.807  -2.967   9.484
    2LEU     SC 8917   3.784  -2.717   9.301
    2SER     BB 8918   3.845  -2.940   9.804
    2SER     SC 8919   3.648  -2.777   9.846
    2GLU     BB 8920   3.770  -3.257   9.953
    2GLU     SC 8921   3.600  -3.024  10.173
    2PHE     BB 8922   3.925  -3.472   9.706
    2PHE     SC 8923   3.639  -3.553   9.723
    2PHE     SC 8924   3.535  -3.756   9.767
    2PHE     SC 8925   3.395  -3.615   9.833
    2ASP     BB 8926   4.228  -3.373   9.596
    2ASP     SC 8927   4.307  -3.462   9.893
    2THR     BB 8928   4.227  -3.224   9.334
    2THR     SC 8929   4.049  -3.259   9.156
    2VAL     BB 8930   4.396  -3.060   9.081
    2VAL     SC 8931   4.596  -3.203   8.990
    2GLU     BB 8932   4.111  -3.025   8.915
    2GLU     SC 8933   4.211  -2.778   8.598
    2GLY     BB 8934   3.787  -2.832   8.859
    2ILE     BB 8935   3.493  -2.848   8.624
    2ILE     SC 8936   3.712  -2.715   8.438
    2VAL     BB 8937   3.215  -2.700   8.485
    2VAL     SC 8938   3.024  -2.630   8.655
    2ILE     BB 8939   3.049  -2.940   8.262
    2ILE     SC 8940   3.270  -2.867   8.108
    2ASP     BB 8941   2.959  -3.022   7.947
    2ASP     SC 8942   2.655  -3.065   7.847
    2THR     BB 8943   3.035  -3.332   7.755
    2THR     SC 8944   3.125  -3.442   7.957
    2THR     BB 8945   2.850  -3.299   7.489
    2THR     SC 8946   2.631  -3.373   7.597
    2ASN     BB 8947   3.005  -3.037   7.445
    2ASN     SC 8948   2.878  -2.756   7.417
    2LYS     BB 8949   3.271  -2.941   7.246
    2LYS     SC 8950   3.327  -3.020   6.958
    2LYS     SC 8951   3.521  -3.021   6.702
    2VAL     BB 8952   3.354  -2.653   7.354
    2VAL     SC 8953   3.262  -2.464   7.199
    2ALA     BB 8954   3.314  -2.743   7.659
    2LEU     BB 8955   3.569  -2.969   7.607
    2LEU     SC 8956   3.475  -3.278   7.572
    2ALA     BB 8957   3.780  -2.765   7.456
    2LYS     BB 8958   3.803  -2.577   7.753
    2LYS     SC 8959   3.542  -2.376   7.724
    2LYS     SC 8960   3.315  -2.153   7.683
    2LYS     BB 8961   3.982  -2.824   7.905
    2LYS     SC 8962   3.723  -2.957   8.019
    2LYS     SC 8963   3.562  -3.200   7.988
    2GLY     BB 8964   4.196  -2.941   7.701
    2ILE     BB 8965   4.122  -3.263   7.613
    2ILE     SC 8966   3.895  -3.330   7.680
    2GLN     BB 8967   4.407  -3.303   7.427
    2GLN     SC 8968   4.216  -3.168   7.093
    2SER     BB 8969   4.616  -3.333   7.703
    2SER     SC 8970   4.581  -3.131   7.800
    2TYR     BB 8971   4.509  -3.623   7.761
    2TYR     SC 8972   4.363  -3.497   8.015
    2TYR     SC 8973   4.256  -3.303   7.953
    2TYR     SC 8974   4.310  -3.186   8.147
    2ASP     BB 8975   4.594  -3.951   7.778
    2ASP     SC 8976   4.921  -3.872   7.861
    2TRP     BB 8977   4.338  -4.005   7.980
    2TRP     SC 8978   4.463  -4.308   8.036
    2TRP     SC 8979   4.654  -4.393   8.008
    2TRP     SC 8980   4.372  -4.583   8.023
    2TRP     SC 8981   4.561  -4.674   7.992
    2VAL     BB 8982   3.979  -4.087   7.956
    2VAL     SC 8983   3.926  -3.838   7.868
    2ILE     BB 8984   3.707  -4.096   8.196
    2ILE     SC 8985   3.879  -4.271   8.343
    2VAL     BB 8986   3.373  -4.236   8.171
    2VAL     SC 8987   3.300  -4.093   7.967
    2GLY     BB 8988   3.126  -4.257   8.451
    2ILE     BB 8989   2.859  -4.272   8.286
    2ILE     SC 8990   2.816  -3.973   8.232
    2GLU     BB 8991   2.561  -4.479   8.341
    2GLU     SC 8992   2.629  -4.752   8.625
    2ASN     BB 8993   2.255  -4.391   8.358
    2ASN     SC 8994   2.257  -4.379   8.690
    2GLU     BB 8995   2.323  -4.217   8.098
    2GLU     SC 8996   2.282  -3.856   8.269
    2LEU     BB 8997   2.352  -4.272   7.768
    2LEU     SC 8998   2.296  -4.547   7.629
    2GLU     BB 8999   2.357  -4.004   7.605
    2GLU     SC 9000   2.031  -3.800   7.475
    2SER     BB 9001   2.601  -3.875   7.757
    2SER     SC 9002   2.573  -3.742   7.969
    2SER     BB 9003   2.815  -4.107   7.719
    2SER     SC 9004   2.839  -4.300   7.883
    2LEU     BB 9005   2.811  -4.133   7.399
    2LEU     SC 9006   2.602  -4.392   7.372
    2VAL     BB 9007   2.878  -3.835   7.329
    2VAL     SC 9008   2.661  -3.700   7.276
    2THR     BB 9009   3.142  -3.826   7.496
    2THR     SC 9010   3.091  -3.755   7.744
    2VAL     BB 9011   3.300  -4.063   7.352
    2VAL     SC 9012   3.252  -4.296   7.412
    2LEU     BB 9013   3.282  -3.946   7.067
    2LEU     SC 9014   3.042  -3.945   6.866
    2ASN     BB 9015   3.429  -3.675   7.124
    2ASN     SC 9016   3.165  -3.474   7.189
    2LEU     BB 9017   3.699  -3.816   7.215
    2LEU     SC 9018   3.649  -3.821   7.551
    2LEU     BB 9019   3.752  -3.959   6.941
    2LEU     SC 9020   3.666  -4.251   6.855
    2ASP     BB 9021   3.727  -3.704   6.744
    2ASP     SC 9022   3.402  -3.746   6.662
    2LEU     BB 9023   3.976  -3.563   6.928
    2LEU     SC 9024   3.766  -3.340   7.048
    2LYS     BB 9025   4.202  -3.796   6.987
    2LYS     SC 9026   4.263  -3.744   6.677
    2LYS     SC 9027   4.317  -3.670   6.373
    2CYS     BB 9028   4.201  -3.998   7.230
    2CYS     SC 9029   4.149  -3.938   7.510
    2THR     BB 9030   4.413  -4.256   7.327
    2THR     SC 9031   4.659  -4.170   7.326
    2ASN     BB 9032   4.250  -4.315   7.616
    2ASN     SC 9033   4.531  -4.493   7.648
    2ILE     BB 9034   3.938  -4.476   7.662
    2ILE     SC 9035   3.814  -4.260   7.474
    2THR     BB 9036   3.717  -4.495   7.952
    2THR     SC 9037   3.904  -4.646   8.073
    2VAL     BB 9038   3.412  -4.683   8.023
    2VAL     SC 9039   3.348  -4.576   7.796
    2LYS     BB 9040   3.087  -4.681   8.159
    2LYS     SC 9041   3.066  -4.666   8.483
    2LYS     SC 9042   2.922  -4.685   8.770
    2ALA     BB 9043   2.855  -4.967   8.155
    2LYS     BB 9044   2.519  -5.062   8.253
    2LYS     SC 9045   2.283  -4.851   8.269
    2LYS     SC 9046   2.013  -4.687   8.298
    2ASP     BB 9047   2.484  -5.247   7.982
    2ASP     SC 9048   2.198  -5.412   8.047
    2ASP     BB 9049   2.487  -5.442   7.693
    2ASP     SC 9050   2.521  -5.730   7.848
    2ASN     BB 9051   2.376  -5.227   7.489
    2ASN     SC 9052   2.079  -5.374   7.441
    2TYR     BB 9053   2.560  -4.996   7.594
    2TYR     SC 9054   2.334  -4.920   7.801
    2TYR     SC 9055   2.263  -4.742   7.929
    2TYR     SC 9056   2.034  -4.788   7.911
    2ARG     BB 9057   2.822  -5.146   7.520
    2ARG     SC 9058   2.954  -5.378   7.686
    2ARG     SC 9059   2.844  -5.659   7.749
    2ARG     BB 9060   2.767  -5.167   7.206
    2ARG     SC 9061   2.569  -5.436   7.177
    2ARG     SC 9062   2.387  -5.754   7.206
    2VAL     BB 9063   2.791  -4.860   7.151
    2VAL     SC 9064   2.558  -4.749   7.149
    2LEU     BB 9065   3.084  -4.827   7.270
    2LEU     SC 9066   2.999  -4.725   7.589
    2LEU     BB 9067   3.198  -5.035   7.064
    2LEU     SC 9068   3.170  -5.339   7.233
    2ALA     BB 9069   3.097  -4.881   6.792
    2LEU     BB 9070   3.271  -4.604   6.945
    2LEU     SC 9071   2.990  -4.433   6.957
    2GLY     BB 9072   3.602  -4.688   6.929
    2LEU     BB 9073   3.728  -4.980   7.033
    2LEU     SC 9074   3.582  -5.237   7.060
    2THR     BB 9075   4.026  -4.970   6.916
    2THR     SC 9076   3.952  -4.901   6.678
    2GLU     BB 9077   4.069  -4.726   7.177
    2GLU     SC 9078   4.239  -4.537   6.853
    2ASN     BB 9079   3.898  -4.893   7.412
    2ASN     SC 9080   3.623  -4.774   7.353
    2GLN     BB 9081   3.741  -4.929   7.753
    2GLN     SC 9082   4.130  -5.103   7.829
    2ILE     BB 9083   3.496  -5.146   7.925
    2ILE     SC 9084   3.303  -5.082   7.693
    2ILE     BB 9085   3.296  -5.105   8.224
    2ILE     SC 9086   3.568  -5.049   8.372
    2VAL     BB 9087   3.110  -5.318   8.484
    2VAL     SC 9088   2.999  -5.420   8.293
    2PRO     BB 9089   3.121  -5.275   8.815
    2PRO     SC 9090   3.189  -5.044   8.716
    2ASN     BB 9091   2.850  -5.392   8.916
    2ASN     SC 9092   2.690  -5.097   8.981
    2LYS     BB 9093   2.866  -5.670   8.763
    2LYS     SC 9094   2.670  -5.643   8.485
    2LYS     SC 9095   2.434  -5.669   8.260
    2ILE     BB 9096   3.147  -5.767   8.867
    2ILE     SC 9097   3.364  -5.650   8.679
    2ALA     BB 9098   3.096  -5.710   9.185
    2GLY     BB 9099   2.832  -5.939   9.176
    2GLU     BB 9100   2.983  -6.211   9.116
    2GLU     SC 9101   3.046  -6.435   8.798
    2ILE     BB 9102   3.183  -6.198   9.353
    2ILE     SC 9103   3.430  -6.038   9.244
    2THR     BB 9104   2.968  -6.172   9.581
    2THR     SC 9105   2.921  -5.917   9.581
    2ALA     BB 9106   2.782  -6.417   9.465
    2THR     BB 9107   3.029  -6.636   9.541
    2THR     SC 9108   3.183  -6.661   9.327
    2ARG     BB 9109   3.055  -6.577   9.849
    2ARG     SC 9110   3.225  -6.356   9.977
    2ARG     SC 9111   3.412  -6.235  10.274
    2VAL     BB 9112   2.744  -6.638   9.916
    2VAL     SC 9113   2.604  -6.425   9.877
    2ILE     BB 9114   2.749  -6.951   9.846
    2ILE     SC 9115   2.762  -6.974   9.542
    2PHE     BB 9116   2.949  -6.989  10.092
    2PHE     SC 9117   3.183  -7.118   9.935
    2PHE     SC 9118   3.251  -7.022   9.736
    2PHE     SC 9119   3.311  -7.222   9.717
    2ASN     BB 9120   2.811  -7.074  10.403
    2ASN     SC 9121   2.536  -7.131  10.451
    2ILE     BB 9122   3.125  -7.090  10.541
    2ILE     SC 9123   3.170  -7.362  10.481
    2ASP     BB 9124   3.327  -6.868  10.404
    2ASP     SC 9125   3.334  -6.596  10.539
    2PHE     BB 9126   3.535  -6.990  10.164
    2PHE     SC 9127   3.569  -7.251  10.110
    2PHE     SC 9128   3.690  -7.387  10.254
    2PHE     SC 9129   3.784  -7.414  10.069
    2ASP     BB 9130   3.505  -6.707  10.031
    2ASP     SC 9131   3.519  -6.677   9.716
    2ILE     BB 9132   3.671  -6.397  10.038
    2ILE     SC 9133   3.822  -6.447  10.304
    2GLU     BB 9134   3.859  -6.398   9.762
    2GLU     SC 9135   3.824  -6.053   9.668
    2VAL     BB 9136   3.913  -6.347   9.386
    2VAL     SC 9137   3.790  -6.560   9.338
    2SER     BB 9138   4.109  -6.474   8.758
    2SER     SC 9139   3.897  -6.605   8.677
    2ILE     BB 9140   4.310  -6.615   8.503
    2ILE     SC 9141   4.531  -6.670   8.668
    2ASP     BB 9142   4.070  -6.790   8.382
    2ASP     SC 9143   4.175  -6.828   8.068
    2ASP     BB 9144   3.738  -6.871   8.220
    2ASP     SC 9145   3.708  -6.572   8.355
    2GLU     BB 9146   3.800  -7.088   7.995
    2GLU     SC 9147   3.788  -6.812   7.664
    2PHE     BB 9148   4.019  -7.164   8.171
    2PHE     SC 9149   4.250  -7.274   7.984
    2PHE     SC 9150   4.285  -7.155   7.789
    2PHE     SC 9151   4.345  -7.349   7.741
    2ILE     BB 9152   4.016  -7.345   8.457
    2ILE     SC 9153   3.766  -7.519   8.446
    2SER     BB 9154   4.144  -7.059   8.663
    2SER     SC 9155   4.375  -7.120   8.581
    2SER     BB 9156   4.253  -6.982   9.011
    2SER     SC 9157   4.009  -6.955   9.039
    2THR     BB 9158   4.270  -6.746   9.293
    2THR     SC 9159   4.530  -6.698   9.282
    2LEU     BB 9160   4.202  -6.836   9.641
    2LEU     SC 9161   3.892  -6.941   9.625
    2GLU     BB 9162   4.039  -6.726   9.951
    2GLU     SC 9163   4.214  -6.403  10.116
    2VAL     BB 9164   4.037  -6.908  10.265
    2VAL     SC 9165   4.005  -7.120  10.094
    2LYS     BB 9166   3.890  -7.133  10.515
    2LYS     SC 9167   3.740  -6.880  10.639
    2LYS     SC 9168   3.581  -6.717  10.826
    2ASN     BB 9169   3.852  -7.328  10.846
    2ASN     SC 9170   3.559  -7.239  10.758
    2PRO     BB 9171   3.803  -7.577  11.127
    2PRO     SC 9172   3.587  -7.486  11.119
    2ASP     BB 9173   3.899  -7.847  10.994
    2ASP     SC 9174   3.701  -7.741  10.775
    2LEU     BB 9175   4.201  -7.692  10.981
    2LEU     SC 9176   4.162  -7.664  10.657
    2PHE     BB 9177   4.269  -7.724  11.277
    2PHE     SC 9178   4.195  -7.610  11.520
    2PHE     SC 9179   4.249  -7.401  11.607
    2PHE     SC 9180   4.324  -7.534  11.750
    2ASN     BB 9181   4.579  -7.819  11.331
    2ASN     SC 9182   4.731  -7.822  11.577
    2LYS     BB 9183   4.726  -7.833  11.037
    2LYS     SC 9184   4.463  -8.007  11.000
    2LYS     SC 9185   4.288  -8.225  11.151
    2ASN     BB 9186   4.933  -7.968  10.807
    2ASN     SC 9187   5.147  -8.048  11.054
    2ILE     BB 9188   5.029  -7.882  10.487
    2ILE     SC 9189   5.164  -7.631  10.425
    2GLN     BB 9190   5.139  -8.179  10.411
    2GLN     SC 9191   5.510  -8.292  10.423
    2GLN     BB 9192   4.919  -8.373  10.541
    2GLN     SC 9193   4.877  -8.409  10.931
    2VAL     BB 9194   4.732  -8.172  10.396
    2VAL     SC 9195   4.519  -8.137  10.529
    2GLY     BB 9196   4.789  -8.244  10.069
    2LEU     BB 9197   4.711  -8.043   9.805
    2LEU     SC 9198   4.576  -7.798  10.016
    2SER     BB 9199   4.894  -8.120   9.553
    2SER     SC 9200   5.105  -7.958   9.627
    2THR     BB 9201   4.855  -8.449   9.527
    2THR     SC 9202   5.068  -8.553   9.625
    2ASN     BB 9203   4.526  -8.499   9.583
    2ASN     SC 9204   4.595  -8.593   9.880
    2LYS     BB 9205   4.423  -8.237   9.350
    2LYS     SC 9206   4.211  -8.258   9.565
    2LYS     SC 9207   3.927  -8.343   9.686
    2ASP     BB 9208   4.615  -8.023   9.182
    2ASP     SC 9209   4.606  -8.275   8.982
    2PHE     BB 9210   4.725  -7.794   9.424
    2PHE     SC 9211   4.449  -7.765   9.429
    2PHE     SC 9212   4.426  -7.710   9.651
    2PHE     SC 9213   4.291  -7.867   9.623
    2ASN     BB 9214   4.833  -7.471   9.563
    2ASN     SC 9215   5.087  -7.609   9.393
    2ILE     BB 9216   4.988  -7.308   9.818
    2ILE     SC 9217   4.848  -7.400  10.086
    2ILE     BB 9218   5.079  -6.959   9.889
    2ILE     SC 9219   4.986  -6.867   9.612
    2GLN     BB 9220   4.913  -6.877  10.167
    2GLN     SC 9221   5.106  -6.594  10.248
    2ILE     BB 9222   4.922  -6.774  10.528
    2ILE     SC 9223   4.912  -7.071  10.592
    2ARG     BB 9224   4.696  -6.604  10.759
    2ARG     SC 9225   4.642  -6.313  10.669
    2ARG     SC 9226   4.476  -5.981  10.696
    2ARG     BB 9227   4.786  -6.538  11.112
    2ARG     SC 9228   4.825  -6.819  11.226
    2ARG     SC 9229   5.074  -7.007  11.362
    2LYS     BB 9230   4.676  -6.291  11.302
    2LYS     SC 9231   4.659  -6.460  11.571
    2LYS     SC 9232   4.626  -6.589  11.859
    2GLY     BB 9233   4.808  -6.114  11.042
    2LYS     BB 9234   5.024  -6.310  10.985
    2LYS     SC 9235   5.206  -6.289  11.273
    2LYS     SC 9236   5.353  -6.268  11.555
    2ILE     BB 9237   5.285  -6.444  10.803
    2ILE     SC 9238   5.272  -6.273  10.542
    2LEU     BB 9239   5.353  -6.751  10.649
    2LEU     SC 9240   5.190  -6.890  10.931
    2LEU     BB 9241   5.543  -6.990  10.542
    2LEU     SC 9242   5.867  -6.873  10.626
    2PRO     BB 9243   5.600  -7.198  10.232
    2PRO     SC 9244   5.582  -7.009  10.152
    2ASP     BB 9245   5.686  -7.458  10.434
    2ASP     SC 9246   6.011  -7.465  10.392
    2ASP     BB 9247   5.728  -7.793  10.503
    2ASP     SC 9248   5.492  -7.878  10.268
    2TYR     BB 9249   5.574  -7.736  10.803
    2TYR     SC 9250   5.570  -7.975  10.927
    2TYR     SC 9251   5.558  -7.891  11.143
    2TYR     SC 9252   5.753  -8.001  11.216
    2THR     BB 9253   5.253  -7.585  10.890
    2THR     SC 9254   5.317  -7.382  10.747
    2GLU     BB 9255   5.023  -7.402  11.105
    2GLU     SC 9256   4.994  -7.402  11.480
    2LEU     BB 9257   4.678  -7.415  11.093
    2LEU     SC 9258   4.707  -7.438  10.744
    2LYS     BB 9259   4.399  -7.211  11.162
    2LYS     SC 9260   4.565  -7.138  11.466
    2LYS     SC 9261   4.754  -7.130  11.724
    2GLU     BB 9262   4.111  -7.084  11.259
    2GLU     SC 9263   3.773  -7.217  11.420
    2GLY     BB 9264   4.043  -6.821  11.024
    2ASP     BB 9265   4.261  -6.846  10.839
    2ASP     SC 9266   4.518  -6.910  11.066
    2ILE     BB 9267   4.390  -6.928  10.247
    2ILE     SC 9268   4.396  -7.184  10.412
    2VAL     BB 9269   4.594  -6.975   9.952
    2VAL     SC 9270   4.612  -6.716   9.909
    2VAL     BB 9271   4.471  -7.094   9.638
    2VAL     SC 9272   4.352  -7.283   9.772
    2PHE     BB 9273   4.588  -7.284   9.330
    2PHE     SC 9274   4.762  -7.119   9.191
    2PHE     SC 9275   4.677  -7.017   9.001
    2PHE     SC 9276   4.846  -7.121   8.931
    2ALA     BB 9277   4.407  -7.383   9.027
    2ARG     BB 9278   4.114  -7.514   8.956
    2ARG     SC 9279   4.196  -7.702   8.684
    2ARG     SC 9280   4.368  -7.945   8.458
    2THR     BB 9281   3.783  -7.447   9.027
    2THR     SC 9282   3.705  -7.226   8.904
    2THR     BB 9283   3.678  -7.747   9.053
    2THR     SC 9284   3.575  -7.820   8.823
    2ILE     BB 9285   3.917  -7.841   9.237
    2ILE     SC 9286   4.147  -7.922   9.047
    2ILE     BB 9287   3.868  -7.640   9.475
    2ILE     SC 9288   4.030  -7.386   9.405
    2ASN     BB 9289   3.579  -7.743   9.539
    2ASN     SC 9290   3.427  -7.494   9.379
    2SER     BB 9291   3.673  -8.044   9.599
    2SER     SC 9292   3.729  -8.208   9.424
    2LEU     BB 9293   3.797  -7.941   9.868
    2LEU     SC 9294   4.070  -7.831   9.945
    2ALA     BB 9295   3.538  -7.757   9.984
    2GLU     BB 9296   3.407  -8.104  10.023
    2GLU     SC 9297   3.220  -8.056   9.665
    2LYS     BB 9298   3.737  -8.249  10.154
    2LYS     SC 9299   3.726  -8.516  10.004
    2LYS     SC 9300   3.876  -8.799   9.986
    2LYS     BB 9301   1.842  -7.538  10.102
    2LYS     SC 9302   1.575  -7.548   9.959
    2LYS     SC 9303   1.355  -7.362   9.894
    2GLN     BB 9304   1.957  -7.246  10.031
    2GLN     SC 9305   2.344  -7.245  10.023
    2ASN     BB 9306   1.855  -6.892  10.090
    2ASN     SC 9307   1.606  -7.110  10.122
    2PHE     BB 9308   1.792  -6.608   9.880
    2PHE     SC 9309   2.103  -6.654   9.855
    2PHE     SC 9310   2.182  -6.862   9.789
    2PHE     SC 9311   2.316  -6.800   9.939
    2ALA     BB 9312   1.747  -6.241   9.920
    2ILE     BB 9313   1.692  -5.971   9.661
    2ILE     SC 9314   1.931  -6.073   9.531
    2ILE     BB 9315   1.727  -5.612   9.714
    2ILE     SC 9316   1.551  -5.641   9.971
    2GLY     BB 9317   1.722  -5.370   9.489
    2VAL     BB 9318   1.775  -5.380   9.134
    2VAL     SC 9319   1.608  -5.556   9.124
    2SER     BB 9320   2.045  -5.294   9.066
    2SER     SC 9321   2.176  -5.157   9.233
    2ASN     BB 9322   2.330  -5.363   8.884
    2ASN     SC 9323   2.283  -5.104   8.679
    2PHE     BB 9324   2.447  -5.529   9.121
    2PHE     SC 9325   2.629  -5.453   9.318
    2PHE     SC 9326   2.574  -5.515   9.536
    2PHE     SC 9327   2.764  -5.599   9.507
    2THR     BB 9328   2.188  -5.692   9.212
    2THR     SC 9329   2.064  -5.521   9.369
    2LEU     BB 9330   2.146  -5.825   8.935
    2LEU     SC 9331   2.104  -5.675   8.656
    2SER     BB 9332   2.414  -5.990   8.942
    2SER     SC 9333   2.627  -5.913   8.853
    2VAL     BB 9334   2.354  -6.149   9.200
    2VAL     SC 9335   2.430  -6.026   9.418
    2ILE     BB 9336   2.109  -6.292   9.084
    2ILE     SC 9337   1.859  -6.220   9.103
    2GLU     BB 9338   2.216  -6.394   8.801
    2GLU     SC 9339   2.266  -6.148   8.478
    2THR     BB 9340   2.440  -6.562   8.929
    2THR     SC 9341   2.659  -6.425   8.956
    2LEU     BB 9342   2.286  -6.743   9.143
    2LEU     SC 9343   2.333  -6.586   9.441
    2VAL     BB 9344   2.089  -6.878   8.932
    2VAL     SC 9345   1.908  -6.688   8.924
    2GLN     BB 9346   2.320  -6.992   8.740
    2GLN     SC 9347   2.387  -6.913   8.435
    2LYS     BB 9348   2.413  -7.156   9.021
    2LYS     SC 9349   2.675  -6.996   9.033
    2LYS     SC 9350   2.959  -6.900   8.911
    2ARG     BB 9351   2.132  -7.286   9.135
    2ARG     SC 9352   2.178  -7.476   8.882
    2ARG     SC 9353   2.263  -7.670   8.576
    2GLN     BB 9354   1.972  -7.107   9.341
    2GLN     SC 9355   2.300  -7.171   9.513
    2SER     BB 9356   1.754  -6.991   9.603
    2SER     SC 9357   1.576  -7.131   9.694
    2VAL     BB 9358   1.607  -6.693   9.455
    2VAL     SC 9359   1.858  -6.613   9.440
    2THR     BB 9360   1.486  -6.365   9.540
    2THR     SC 9361   1.329  -6.457   9.716
    2VAL     BB 9362   1.297  -6.091   9.394
    2VAL     SC 9363   1.423  -6.055   9.169
    2PHE     BB 9364   1.315  -5.732   9.502
    2PHE     SC 9365   1.183  -5.918   9.701
    2PHE     SC 9366   1.282  -6.067   9.849
    2PHE     SC 9367   1.113  -6.171   9.779
    2ASP     BB 9368   1.095  -5.461   9.416
    2ASP     SC 9369   1.327  -5.257   9.254
    2ILE     BB 9370   0.907  -5.151   9.349
    2ILE     SC 9371   0.924  -4.956   9.556
    2ASP     BB 9372   0.953  -5.199   9.056
    2ASP     SC 9373   1.055  -4.998   8.833
    2GLU     BB 9374   0.783  -5.359   8.802
    2GLU     SC 9375   0.404  -5.360   8.709
    2ARG     BB 9376   0.985  -5.350   8.561
    2ARG     SC 9377   0.892  -5.060   8.415
    2ARG     SC 9378   0.742  -4.772   8.233
    2ARG     BB 9379   1.219  -5.479   8.716
    2ARG     SC 9380   1.372  -5.223   8.865
    2ARG     SC 9381   1.506  -4.921   9.023
    2LEU     BB 9382   1.075  -5.738   8.778
    2LEU     SC 9383   0.865  -5.831   8.977
    2ASN     BB 9384   0.965  -5.833   8.491
    2ASN     SC 9385   0.661  -5.703   8.529
    2LEU     BB 9386   1.244  -5.874   8.378
    2LEU     SC 9387   1.330  -5.562   8.250
    2TYR     BB 9388   1.367  -6.080   8.608
    2TYR     SC 9389   1.529  -5.835   8.698
    2TYR     SC 9390   1.707  -5.752   8.820
    2TYR     SC 9391   1.711  -5.544   8.703
    2LEU     BB 9392   1.149  -6.309   8.601
    2LEU     SC 9393   0.871  -6.311   8.741
    2SER     BB 9394   1.183  -6.388   8.275
    2SER     SC 9395   0.996  -6.257   8.182
    2GLU     BB 9396   1.506  -6.271   8.177
    2GLU     SC 9397   1.261  -6.161   7.940
    2PHE     BB 9398   1.692  -6.357   8.474
    2PHE     SC 9399   1.729  -6.065   8.425
    2PHE     SC 9400   1.917  -5.931   8.391
    2PHE     SC 9401   1.766  -5.830   8.287
    2ASP     BB 9402   1.632  -6.658   8.609
    2ASP     SC 9403   1.754  -6.751   8.331
    2THR     BB 9404   1.445  -6.655   8.847
    2THR     SC 9405   1.423  -6.450   8.995
    2VAL     BB 9406   1.272  -6.811   9.107
    2VAL     SC 9407   1.427  -6.975   9.236
    2GLU     BB 9408   1.171  -6.508   9.200
    2GLU     SC 9409   0.849  -6.572   9.348
    2GLY     BB 9410   0.913  -6.218   9.169
    2ILE     BB 9411   0.835  -5.928   9.383
    2ILE     SC 9412   0.693  -6.156   9.549
    2VAL     BB 9413   0.627  -5.665   9.458
    2VAL     SC 9414   0.556  -5.518   9.249
    2ILE     BB 9415   0.799  -5.429   9.682
    2ILE     SC 9416   0.747  -5.643   9.854
    2ASP     BB 9417   0.813  -5.289   9.990
    2ASP     SC 9418   0.785  -4.972  10.047
    2THR     BB 9419   1.096  -5.283  10.232
    2THR     SC 9420   1.251  -5.375  10.063
    2THR     BB 9421   0.990  -5.077  10.459
    2THR     SC 9422   1.041  -4.863  10.331
    2ASN     BB 9423   0.755  -5.275  10.486
    2ASN     SC 9424   0.457  -5.199  10.456
    2LYS     BB 9425   0.669  -5.531  10.706
    2LYS     SC 9426   0.770  -5.404  10.995
    2LYS     SC 9427   0.915  -5.287  11.253
    2VAL     BB 9428   0.418  -5.677  10.574
    2VAL     SC 9429   0.199  -5.595  10.686
    2ALA     BB 9430   0.551  -5.659  10.283
    2LEU     BB 9431   0.800  -5.862  10.405
    2LEU     SC 9432   1.081  -5.706  10.467
    2ALA     BB 9433   0.610  -6.089  10.559
    2LYS     BB 9434   0.472  -6.198  10.251
    2LYS     SC 9435   0.233  -5.971  10.220
    2LYS     SC 9436  -0.012  -5.767  10.213
    2LYS     BB 9437   0.763  -6.324  10.145
    2LYS     SC 9438   0.868  -6.053  10.022
    2LYS     SC 9439   1.076  -5.849  10.058
    2GLY     BB 9440   0.908  -6.483  10.381
    2ILE     BB 9441   1.188  -6.353  10.499
    2ILE     SC 9442   1.225  -6.109  10.430
    2GLN     BB 9443   1.248  -6.577  10.741
    2GLN     SC 9444   1.025  -6.392  11.027
    2SER     BB 9445   1.351  -6.803  10.502
    2SER     SC 9446   1.165  -6.823  10.372
    2TYR     BB 9447   1.626  -6.640  10.476
    2TYR     SC 9448   1.514  -6.575  10.195
    2TYR     SC 9449   1.308  -6.472  10.183
    2TYR     SC 9450   1.222  -6.621  10.023
    2ASP     BB 9451   1.963  -6.663  10.530
    2ASP     SC 9452   1.936  -7.000  10.476
    2TRP     BB 9453   2.016  -6.446  10.289
    2TRP     SC 9454   2.336  -6.533  10.297
    2TRP     SC 9455   2.440  -6.703  10.366
    2TRP     SC 9456   2.589  -6.398  10.339
    2TRP     SC 9457   2.699  -6.565  10.411
    2VAL     BB 9458   2.022  -6.081  10.274
    2VAL     SC 9459   1.756  -6.072  10.320
    2ILE     BB 9460   2.024  -5.846  10.000
    2ILE     SC 9461   2.245  -6.000   9.907
    2VAL     BB 9462   2.099  -5.492   9.996
    2VAL     SC 9463   1.915  -5.423  10.166
    2GLY     BB 9464   2.125  -5.282   9.690
    2ILE     BB 9465   2.067  -5.002   9.817
    2ILE     SC 9466   1.759  -5.008   9.822
    2GLU     BB 9467   2.227  -4.675   9.749
    2GLU     SC 9468   2.540  -4.716   9.515
    2ASN     BB 9469   2.093  -4.397   9.671
    2ASN     SC 9470   2.137  -4.432   9.345
    2GLU     BB 9471   1.892  -4.470   9.912
    2GLU     SC 9472   1.565  -4.512   9.689
    2LEU     BB 9473   1.899  -4.453  10.251
    2LEU     SC 9474   2.143  -4.345  10.413
    2GLU     BB 9475   1.614  -4.487  10.376
    2GLU     SC 9476   1.349  -4.195  10.469
    2SER     BB 9477   1.553  -4.763  10.239
    2SER     SC 9478   1.454  -4.780  10.007
    2SER     BB 9479   1.808  -4.920  10.344
    2SER     SC 9480   2.027  -4.925  10.215
    2LEU     BB 9481   1.772  -4.874  10.660
    2LEU     SC 9482   1.984  -4.619  10.706
    2VAL     BB 9483   1.484  -4.991  10.693
    2VAL     SC 9484   1.307  -4.800  10.693
    2THR     BB 9485   1.551  -5.267  10.567
    2THR     SC 9486   1.516  -5.261  10.307
    2VAL     BB 9487   1.783  -5.357  10.766
    2VAL     SC 9488   2.012  -5.274  10.732
    2LEU     BB 9489   1.618  -5.326  11.027
    2LEU     SC 9490   1.550  -5.072  11.194
    2ASN     BB 9491   1.389  -5.528  10.954
    2ASN     SC 9492   1.165  -5.310  10.826
    2LEU     BB 9493   1.588  -5.774  10.925
    2LEU     SC 9494   1.640  -5.767  10.590
    2LEU     BB 9495   1.692  -5.763  11.222
    2LEU     SC 9496   1.952  -5.622  11.329
    2ASP     BB 9497   1.411  -5.764  11.375
    2ASP     SC 9498   1.346  -5.434  11.417
    2LEU     BB 9499   1.343  -6.054  11.210
    2LEU     SC 9500   1.105  -5.908  11.036
    2LYS     BB 9501   1.615  -6.241  11.219
    2LYS     SC 9502   1.525  -6.271  11.523
    2LYS     SC 9503   1.415  -6.300  11.820
    2CYS     BB 9504   1.852  -6.232  11.010
    2CYS     SC 9505   1.833  -6.224  10.718
    2THR     BB 9506   2.156  -6.402  10.977
    2THR     SC 9507   2.113  -6.658  11.001
    2ASN     BB 9508   2.232  -6.263  10.680
    2ASN     SC 9509   2.459  -6.505  10.716
    2ILE     BB 9510   2.343  -5.932  10.612
    2ILE     SC 9511   2.081  -5.833  10.747
    2THR     BB 9512   2.375  -5.752  10.297
    2THR     SC 9513   2.569  -5.923  10.228
    2VAL     BB 9514   2.519  -5.428  10.207
    2VAL     SC 9515   2.367  -5.359  10.405
    2LYS     BB 9516   2.485  -5.129  10.025
    2LYS     SC 9517   2.520  -5.149   9.703
    2LYS     SC 9518   2.561  -5.033   9.404
    2ALA     BB 9519   2.725  -4.850  10.037
    2LYS     BB 9520   2.778  -4.517   9.904
    2LYS     SC 9521   2.535  -4.328   9.826
    2LYS     SC 9522   2.336  -4.104   9.723
    2ASP     BB 9523   2.910  -4.416  10.188
    2ASP     SC 9524   3.028  -4.112  10.107
    2ASP     BB 9525   3.053  -4.346  10.499
    2ASP     SC 9526   3.363  -4.343  10.390
    2ASN     BB 9527   2.793  -4.255  10.654
    2ASN     SC 9528   2.874  -3.930  10.675
    2TYR     BB 9529   2.620  -4.494  10.538
    2TYR     SC 9530   2.535  -4.307  10.299
    2TYR     SC 9531   2.368  -4.287  10.141
    2TYR     SC 9532   2.353  -4.054  10.149
    2ARG     BB 9533   2.795  -4.709  10.678
    2ARG     SC 9534   3.072  -4.814  10.570
    2ARG     SC 9535   3.333  -4.660  10.530
    2ARG     BB 9536   2.752  -4.618  10.984
    2ARG     SC 9537   2.978  -4.372  11.018
    2ARG     SC 9538   3.264  -4.140  11.013
    2VAL     BB 9539   2.443  -4.681  11.000
    2VAL     SC 9540   2.346  -4.454  10.897
    2LEU     BB 9541   2.473  -4.988  10.915
    2LEU     SC 9542   2.416  -4.964  10.577
    2LEU     BB 9543   2.651  -5.055  11.159
    2LEU     SC 9544   2.975  -4.999  11.038
    2ALA     BB 9545   2.456  -4.944  11.401
    2LEU     BB 9546   2.244  -5.182  11.232
    2LEU     SC 9547   2.031  -4.941  11.173
    2GLY     BB 9548   2.399  -5.482  11.298
    2LEU     BB 9549   2.715  -5.560  11.256
    2LEU     SC 9550   2.966  -5.383  11.312
    2THR     BB 9551   2.731  -5.845  11.411
    2THR     SC 9552   2.608  -5.755  11.623
    2GLU     BB 9553   2.533  -5.963  11.134
    2GLU     SC 9554   2.331  -6.131  11.452
    2ASN     BB 9555   2.701  -5.793  10.906
    2ASN     SC 9556   2.539  -5.531  10.910
    2GLN     BB 9557   2.767  -5.667  10.560
    2GLN     SC 9558   3.050  -5.907  10.657
    2ILE     BB 9559   2.969  -5.413  10.381
    2ILE     SC 9560   2.834  -5.210  10.570
    2ILE     BB 9561   2.944  -5.262  10.053
    2ILE     SC 9562   2.956  -5.554   9.942
    2VAL     BB 9563   3.162  -5.070   9.799
    2VAL     SC 9564   3.213  -4.921   9.985
    2PRO     BB 9565   3.173  -5.125   9.470
    2PRO     SC 9566   2.943  -5.222   9.546
    2ASN     BB 9567   3.258  -4.847   9.346
    2ASN     SC 9568   2.954  -4.756   9.224
    2LYS     BB 9569   3.509  -4.796   9.530
    2LYS     SC 9570   3.408  -4.579   9.774
    2LYS     SC 9571   3.352  -4.318   9.964
    2ILE     BB 9572   3.668  -5.067   9.484
    2ILE     SC 9573   3.561  -5.274   9.688
    2ALA     BB 9574   3.645  -5.068   9.158
    2GLY     BB 9575   3.819  -4.770   9.158
    2GLU     BB 9576   4.093  -4.855   9.291
    2GLU     SC 9577   4.050  -4.823   9.709
    2ILE     BB 9578   4.158  -5.077   9.081
    2ILE     SC 9579   4.034  -5.340   9.200
    2THR     BB 9580   4.133  -4.900   8.820
    2THR     SC 9581   3.878  -4.905   8.774
    2ALA     BB 9582   4.312  -4.649   8.942
    2THR     BB 9583   4.564  -4.868   8.952
    2THR     SC 9584   4.562  -4.986   9.191
    2ARG     BB 9585   4.577  -4.953   8.654
    2ARG     SC 9586   4.415  -5.186   8.525
    2ARG     SC 9587   4.349  -5.269   8.202
    2VAL     BB 9588   4.601  -4.647   8.528
    2VAL     SC 9589   4.367  -4.547   8.505
    2ILE     BB 9590   4.888  -4.554   8.656
    2ILE     SC 9591   4.911  -4.487   8.929
    2PHE     BB 9592   5.070  -4.749   8.508
    2PHE     SC 9593   5.071  -4.972   8.727
    2PHE     SC 9594   4.897  -5.086   8.822
    2PHE     SC 9595   5.037  -5.075   8.977
    2ASN     BB 9596   5.351  -4.849   8.356
    2ASN     SC 9597   5.610  -4.652   8.335
    2ILE     BB 9598   5.245  -4.986   8.053
    2ILE     SC 9599   5.529  -4.966   7.950
    2ASP     BB 9600   5.016  -5.155   8.174
    2ASP     SC 9601   4.797  -4.982   8.009
    2PHE     BB 9602   5.120  -5.388   8.365
    2PHE     SC 9603   5.323  -5.336   8.547
    2PHE     SC 9604   5.371  -5.157   8.689
    2PHE     SC 9605   5.333  -5.316   8.820
    2ASP     BB 9606   4.862  -5.440   8.487
    2ASP     SC 9607   4.724  -5.404   8.777
    2ILE     BB 9608   4.552  -5.637   8.500
    2ILE     SC 9609   4.661  -5.801   8.259
    2GLU     BB 9610   4.540  -5.773   8.803
    2GLU     SC 9611   4.181  -5.778   8.859
    2VAL     BB 9612   4.440  -5.778   9.174
    2VAL     SC 9613   4.619  -5.612   9.231
    2SER     BB 9614   4.493  -5.863   9.836
    2SER     SC 9615   4.576  -5.623   9.903
    2ILE     BB 9616   4.620  -5.996  10.137
    2ILE     SC 9617   4.739  -6.221  10.016
    2ASP     BB 9618   4.740  -5.718  10.243
    2ASP     SC 9619   4.748  -5.780  10.570
    2ASP     BB 9620   4.737  -5.360  10.367
    2ASP     SC 9621   4.474  -5.399  10.173
    2GLU     BB 9622   4.920  -5.357  10.626
    2GLU     SC 9623   4.591  -5.386  10.904
    2PHE     BB 9624   5.061  -5.576  10.490
    2PHE     SC 9625   5.101  -5.750  10.735
    2PHE     SC 9626   5.279  -5.822  10.866
    2PHE     SC 9627   5.121  -5.797  11.002
    2ILE     BB 9628   5.280  -5.568  10.234
    2ILE     SC 9629   5.404  -5.290  10.233
    2SER     BB 9630   5.056  -5.772  10.013
    2SER     SC 9631   5.141  -5.974  10.140
    2SER     BB 9632   5.053  -5.944   9.682
    2SER     SC 9633   4.991  -5.717   9.608
    2THR     BB 9634   4.869  -6.048   9.383
    2THR     SC 9635   4.859  -6.309   9.429
    2LEU     BB 9636   5.007  -6.010   9.040
    2LEU     SC 9637   5.047  -5.690   9.045
    2GLU     BB 9638   4.922  -5.916   8.704
    2GLU     SC 9639   4.664  -6.167   8.519
    2VAL     BB 9640   5.148  -5.909   8.416
    2VAL     SC 9641   5.315  -5.805   8.605
    2LYS     BB 9642   5.372  -5.735   8.184
    2LYS     SC 9643   5.117  -5.644   8.003
    2LYS     SC 9644   4.998  -5.531   7.757
    2ASN     BB 9645   5.599  -5.678   7.890
    2ASN     SC 9646   5.513  -5.385   8.101
    2PRO     BB 9647   5.887  -5.650   7.639
    2PRO     SC 9648   5.776  -5.452   7.597
    2ASP     BB 9649   6.162  -5.687   7.805
    2ASP     SC 9650   6.033  -5.515   8.013
    2LEU     BB 9651   6.062  -6.009   7.839
    2LEU     SC 9652   5.970  -5.930   8.144
    2PHE     BB 9653   6.150  -6.102   7.563
    2PHE     SC 9654   6.064  -6.077   7.301
    2PHE     SC 9655   5.881  -6.175   7.194
    2PHE     SC 9656   6.045  -6.245   7.085
    2ASN     BB 9657   6.302  -6.392   7.578
    2ASN     SC 9658   6.371  -6.568   7.358
    2LYS     BB 9659   6.282  -6.491   7.887
    2LYS     SC 9660   6.417  -6.200   7.904
    2LYS     SC 9661   6.634  -6.025   7.752
    2ASN     BB 9662   6.405  -6.638   8.196
    2ASN     SC 9663   6.517  -6.843   7.951
    2ILE     BB 9664   6.344  -6.725   8.523
    2ILE     SC 9665   6.078  -6.838   8.536
    2GLN     BB 9666   6.662  -6.766   8.632
    2GLN     SC 9667   6.794  -7.085   8.813
    2GLN     BB 9668   6.787  -6.527   8.468
    2GLN     SC 9669   6.840  -6.535   8.080
    2VAL     BB 9670   6.532  -6.364   8.561
    2VAL     SC 9671   6.490  -6.179   8.392
    2GLY     BB 9672   6.548  -6.349   8.884
    2LEU     BB 9673   6.319  -6.307   9.165
    2LEU     SC 9674   6.099  -6.258   8.905
    2SER     BB 9675   6.373  -6.431   9.450
    2SER     SC 9676   6.243  -6.674   9.408
    2THR     BB 9677   6.680  -6.327   9.486
    2THR     SC 9678   6.827  -6.527   9.420
    2ASN     BB 9679   6.673  -6.005   9.378
    2ASN     SC 9680   6.823  -6.091   9.108
    2LYS     BB 9681   6.358  -5.922   9.546
    2LYS     SC 9682   6.387  -5.731   9.310
    2LYS     SC 9683   6.437  -5.454   9.161
    2ASP     BB 9684   6.146  -6.125   9.700
    2ASP     SC 9685   6.352  -6.047   9.936
    2PHE     BB 9686   5.990  -6.312   9.447
    2PHE     SC 9687   5.915  -6.042   9.391
    2PHE     SC 9688   5.931  -6.043   9.161
    2PHE     SC 9689   6.042  -5.875   9.221
    2ASN     BB 9690   5.713  -6.487   9.276
    2ASN     SC 9691   5.750  -6.795   9.380
    2ILE     BB 9692   5.617  -6.714   9.023
    2ILE     SC 9693   5.710  -6.579   8.757
    2ILE     BB 9694   5.301  -6.871   8.937
    2ILE     SC 9695   5.161  -6.761   9.187
    2GLN     BB 9696   5.238  -6.759   8.633
    2GLN     SC 9697   5.003  -7.006   8.525
    2ILE     BB 9698   5.201  -6.818   8.266
    2ILE     SC 9699   5.497  -6.769   8.246
    2ARG     BB 9700   5.041  -6.654   7.978
    2ARG     SC 9701   4.736  -6.645   8.022
    2ARG     SC 9702   4.389  -6.551   7.932
    2ARG     BB 9703   5.053  -6.799   7.640
    2ARG     SC 9704   5.352  -6.796   7.574
    2ARG     SC 9705   5.593  -7.027   7.508
    2LYS     BB 9706   4.823  -6.765   7.404
    2LYS     SC 9707   5.030  -6.750   7.162
    2LYS     SC 9708   5.199  -6.727   6.894
    2GLY     BB 9709   4.631  -6.894   7.656
    2LYS     BB 9710   4.852  -7.060   7.772
    2LYS     SC 9711   4.905  -7.278   7.518
    2LYS     SC 9712   4.955  -7.456   7.258
    2ILE     BB 9713   4.995  -7.244   8.004
    2ILE     SC 9714   4.807  -7.323   8.214
    2LEU     BB 9715   5.288  -7.251   8.213
    2LEU     SC 9716   5.422  -7.088   7.929
    2LEU     BB 9717   5.544  -7.382   8.364
    2LEU     SC 9718   5.498  -7.726   8.295
    2PRO     BB 9719   5.690  -7.363   8.712
    2PRO     SC 9720   5.487  -7.379   8.751
    2ASP     BB 9721   5.987  -7.411   8.564
    2ASP     SC 9722   6.058  -7.722   8.648
    2ASP     BB 9723   6.326  -7.378   8.548
    2ASP     SC 9724   6.308  -7.119   8.769
    2TYR     BB 9725   6.328  -7.265   8.212
    2TYR     SC 9726   6.618  -7.206   8.273
    2TYR     SC 9727   6.754  -7.027   8.334
    2TYR     SC 9728   6.913  -7.160   8.444
    2THR     BB 9729   6.092  -7.023   8.100
    2THR     SC 9730   5.868  -7.169   8.154
    2GLU     BB 9731   5.942  -6.873   7.823
    2GLU     SC 9732   5.986  -6.891   7.443
    2LEU     BB 9733   5.886  -6.530   7.757
    2LEU     SC 9734   5.848  -6.496   8.101
    2LYS     BB 9735   5.652  -6.305   7.624
    2LYS     SC 9736   5.653  -6.519   7.341
    2LYS     SC 9737   5.723  -6.738   7.119
    2GLU     BB 9738   5.492  -6.058   7.473
    2GLU     SC 9739   5.584  -5.716   7.293
    2GLY     BB 9740   5.193  -6.015   7.666
    2ASP     BB 9741   5.222  -6.200   7.881
    2ASP     SC 9742   5.370  -6.464   7.706
    2ILE     BB 9743   5.231  -6.242   8.490
    2ILE     SC 9744   5.501  -6.215   8.361
    2VAL     BB 9745   5.252  -6.400   8.810
    2VAL     SC 9746   4.996  -6.459   8.822
    2VAL     BB 9747   5.302  -6.217   9.108
    2VAL     SC 9748   5.490  -6.079   8.988
    2PHE     BB 9749   5.460  -6.249   9.451
    2PHE     SC 9750   5.305  -6.436   9.590
    2PHE     SC 9751   5.151  -6.348   9.741
    2PHE     SC 9752   5.265  -6.483   9.855
    2ALA     BB 9753   5.477  -6.022   9.739
    2ARG     BB 9754   5.543  -5.702   9.786
    2ARG     SC 9755   5.695  -5.716  10.091
    2ARG     SC 9756   5.921  -5.812  10.372
    2THR     BB 9757   5.433  -5.402   9.659
    2THR     SC 9758   5.185  -5.355   9.734
    2THR     BB 9759   5.712  -5.246   9.659
    2THR     SC 9760   5.729  -5.103   9.880
    2ILE     BB 9761   5.872  -5.483   9.529
    2ILE     SC 9762   5.961  -5.669   9.760
    2ILE     BB 9763   5.706  -5.502   9.261
    2ILE     SC 9764   5.479  -5.704   9.319
    2ASN     BB 9765   5.766  -5.212   9.166
    2ASN     SC 9766   5.475  -5.083   9.268
    2SER     BB 9767   6.086  -5.255   9.163
    2SER     SC 9768   6.225  -5.253   9.365
    2LEU     BB 9769   6.052  -5.431   8.906
    2LEU     SC 9770   5.988  -5.726   8.860
    2ALA     BB 9771   5.851  -5.228   8.723
    2GLU     BB 9772   6.171  -5.036   8.723
    2GLU     SC 9773   6.029  -4.818   9.035
    2LYS     BB 9774   6.394  -5.344   8.664
    2LYS     SC 9775   6.623  -5.264   8.845
    2LYS     SC 9776   6.919  -5.361   8.923
    2LYS     BB 9777   0.853   1.236   8.937
    2LYS     SC 9778   0.599   1.347   8.769
    2LYS     SC 9779   0.428   1.539   8.575
    2THR     BB 9780   0.984   1.165   9.220
    2THR     SC 9781   0.882   0.938   9.310
    2SER     BB 9782   1.273   1.284   9.155
    2SER     SC 9783   1.380   1.042   9.088
    2GLU     BB 9784   1.177   1.559   9.021
    2GLU     SC 9785   1.049   1.363   8.680
    2LYS     BB 9786   1.037   1.674   9.277
    2LYS     SC 9787   0.726   1.542   9.264
    2LYS     SC 9788   0.426   1.432   9.233
    2ILE     BB 9789   1.287   1.689   9.450
    2ILE     SC 9790   1.346   1.402   9.568
    2PHE     BB 9791   1.446   1.891   9.262
    2PHE     SC 9792   1.568   1.851   9.020
    2PHE     SC 9793   1.793   1.875   8.965
    2PHE     SC 9794   1.696   2.011   8.837
    2LEU     BB 9795   1.234   2.126   9.198
    2LEU     SC 9796   1.142   2.035   8.880
    2ILE     BB 9797   1.193   2.202   9.494
    2ILE     SC 9798   0.945   2.033   9.588
    2TYR     BB 9799   1.497   2.244   9.564
    2TYR     SC 9800   1.689   2.049   9.649
    2TYR     SC 9801   1.698   1.990   9.872
    2TYR     SC 9802   1.925   2.037   9.893
    2VAL     BB 9803   1.580   2.461   9.344
    2VAL     SC 9804   1.641   2.378   9.122
    2ALA     BB 9805   1.325   2.650   9.423
    2ILE     BB 9806   1.480   2.721   9.725
    2ILE     SC 9807   1.329   2.547   9.928
    2ILE     BB 9808   1.743   2.842   9.618
    2ILE     SC 9809   1.950   2.618   9.564
    2LEU     BB 9810   1.608   3.072   9.458
    2LEU     SC 9811   1.525   3.082   9.159
    2LEU     BB 9812   1.444   3.187   9.700
    2LEU     SC 9813   1.167   3.094   9.810
    2GLY     BB 9814   1.705   3.224   9.885
    2GLY     BB 9815   1.862   3.412   9.675
    2LEU     BB 9816   1.643   3.631   9.667
    2LEU     SC 9817   1.492   3.566   9.368
    2LEU     BB 9818   1.637   3.676   9.972
    2LEU     SC 9819   1.369   3.499  10.093
    2LEU     BB 9820   1.962   3.736  10.006
    2LEU     SC 9821   2.050   3.465  10.172
    2SER     BB 9822   1.937   3.999   9.795
    2SER     SC 9823   1.912   3.896   9.586
    2ILE     BB 9824   1.779   4.157   9.991
    2ILE     SC 9825   1.474   4.076   9.965
    2PRO     BB 9826   1.841   4.457  10.156
    2PRO     SC 9827   1.721   4.546   9.940
    2ASN     BB 9828   1.773   4.369  10.467
    2ASN     SC 9829   1.451   4.447  10.433
    2PHE     BB 9830   2.001   4.118  10.469
    2PHE     SC 9831   1.745   3.969  10.451
    2PHE     SC 9832   1.609   3.810  10.359
    2PHE     SC 9833   1.477   3.918  10.479
    2SER     BB 9834   2.247   4.329  10.347
    2SER     SC 9835   2.230   4.169  10.149
    2LEU     BB 9836   2.395   4.409  10.635
    2LEU     SC 9837   2.125   4.637  10.588
    2THR     BB 9838   2.498   4.538  10.898
    2THR     SC 9839   2.712   4.693  10.879
    2LYS     BB 9840   2.445   4.550  11.249
    2LYS     SC 9841   2.606   4.286  11.353
    2LYS     SC 9842   2.761   4.016  11.408
    2SER     BB 9843   2.406   4.886  11.191
    2SER     SC 9844   2.627   4.942  11.221
    2GLY     BB 9845   2.267   4.908  10.877
    2SER     BB 9846   2.483   4.895  10.666
    2SER     SC 9847   2.674   5.079  10.656
    2LYS     BB 9848   2.558   4.863  10.343
    2LYS     SC 9849   2.298   5.002  10.178
    2LYS     SC 9850   2.063   5.169  10.042
    2TYR     BB 9851   2.583   4.548  10.154
    2TYR     SC 9852   2.812   4.397  10.258
    2TYR     SC 9853   3.036   4.457  10.234
    2TYR     SC 9854   3.101   4.241  10.166
    2ASN     BB 9855   2.667   4.434   9.852
    2ASN     SC 9856   2.484   4.579   9.612
    2TRP     BB 9857   2.552   4.164   9.614
    2TRP     SC 9858   2.554   3.987   9.894
    2TRP     SC 9859   2.579   4.023  10.099
    2TRP     SC 9860   2.655   3.726   9.953
    2TRP     SC 9861   2.681   3.752  10.162
    2ASP     BB 9862   2.598   3.929   9.404
    2ASP     SC 9863   2.937   3.917   9.360
    2PHE     BB 9864   2.447   3.704   9.204
    2PHE     SC 9865   2.377   3.692   8.932
    2PHE     SC 9866   2.149   3.662   8.897
    2PHE     SC 9867   2.237   3.500   8.797
    2LEU     BB 9868   2.634   3.445   9.259
    2LEU     SC 9869   2.800   3.424   8.969
    2THR     BB 9870   2.658   3.469   9.577
    2THR     SC 9871   2.837   3.656   9.583
    2GLY     BB 9872   2.358   3.444   9.657
    2ILE     BB 9873   2.343   3.159   9.531
    2ILE     SC 9874   2.260   3.196   9.232
    2PHE     BB 9875   2.581   3.022   9.687
    2PHE     SC 9876   2.849   3.019   9.664
    2PHE     SC 9877   3.000   2.886   9.547
    2PHE     SC 9878   3.042   2.842   9.748
    2ILE     BB 9879   2.476   3.064   9.983
    2ILE     SC 9880   2.650   3.259  10.091
    2ALA     BB 9881   2.171   2.966   9.923
    2SER     BB 9882   2.302   2.664   9.845
    2SER     SC 9883   2.366   2.603   9.612
    2SER     BB 9884   2.482   2.610  10.098
    2SER     SC 9885   2.714   2.689  10.122
    2GLY     BB 9886   2.240   2.633  10.308
    2PHE     BB 9887   2.043   2.407  10.148
    2PHE     SC 9888   1.803   2.467  10.083
    2PHE     SC 9889   1.713   2.356   9.903
    2PHE     SC 9890   1.591   2.295  10.061
    2SER     BB 9891   2.297   2.186  10.118
    2SER     SC 9892   2.304   2.219   9.860
    2ASP     BB 9893   2.472   2.184  10.383
    2ASP     SC 9894   2.191   2.167  10.545
    2THR     BB 9895   2.786   2.277  10.323
    2THR     SC 9896   2.774   2.273  10.064
    2GLY     BB 9897   2.958   2.562  10.441
    2LEU     BB 9898   3.035   2.725  10.200
    2LEU     SC 9899   3.218   2.480  10.051
    2THR     BB 9900   3.200   3.045  10.154
    2THR     SC 9901   3.075   3.112  10.369
    2VAL     BB 9902   3.253   3.348   9.986
    2VAL     SC 9903   3.200   3.310   9.733
    2LEU     BB 9904   3.079   3.513  10.181
    2LEU     SC 9905   3.049   3.783   9.964
    2ASP     BB 9906   3.010   3.616  10.468
    2ASP     SC 9907   3.171   3.691  10.719
    2VAL     BB 9908   2.798   3.610  10.773
    2VAL     SC 9909   2.758   3.350  10.777
    2SER     BB 9910   2.839   3.828  11.012
    2SER     SC 9911   2.969   3.791  11.224
    2SER     BB 9912   2.704   4.046  10.547
    2SER     SC 9913   2.935   4.003  10.435
    2TYR     BB 9914   2.461   3.969  10.746
    2TYR     SC 9915   2.370   3.763  10.527
    2TYR     SC 9916   2.494   3.605  10.411
    2TYR     SC 9917   2.376   3.633  10.210
    2THR     BB 9918   2.173   4.018  10.867
    2THR     SC 9919   2.060   4.262  10.814
    2PHE     BB 9920   1.974   3.875  11.101
    2PHE     SC 9921   2.078   4.014  11.348
    2PHE     SC 9922   2.100   4.224  11.445
    2PHE     SC 9923   2.284   4.131  11.486
    2TRP     BB 9924   1.755   3.806  10.879
    2TRP     SC 9925   1.551   4.035  10.919
    2TRP     SC 9926   1.479   4.206  11.021
    2TRP     SC 9927   1.304   3.914  11.001
    2TRP     SC 9928   1.222   4.081  11.105
    2GLY     BB 9929   1.963   3.642  10.695
    2GLN     BB 9930   2.038   3.444  10.921
    2GLN     SC 9931   2.334   3.687  11.115
    2LEU     BB 9932   1.746   3.329  10.932
    2LEU     SC 9933   1.612   3.506  11.192
    2ILE     BB 9934   1.752   3.224  10.637
    2ILE     SC 9935   1.628   3.408  10.462
    2LEU     BB 9936   1.987   3.030  10.680
    2LEU     SC 9937   2.260   3.221  10.595
    2LEU     BB 9938   1.827   2.861  10.888
    2LEU     SC 9939   1.916   2.988  11.184
    2LEU     BB 9940   1.589   2.779  10.699
    2LEU     SC 9941   1.354   3.016  10.771
    2LEU     BB 9942   1.767   2.637  10.490
    2LEU     SC 9943   1.795   2.885  10.254
    2ILE     BB 9944   1.905   2.436  10.690
    2ILE     SC 9945   2.159   2.579  10.798
    2GLU     BB 9946   1.636   2.318  10.794
    2GLU     SC 9947   1.513   2.337  11.102
    2PHE     BB 9948   1.531   2.217  10.511
    2PHE     SC 9949   1.334   2.443  10.485
    2PHE     SC 9950   1.267   2.650  10.408
    2PHE     SC 9951   1.135   2.612  10.566
    2GLY     BB 9952   1.788   2.043  10.419
    2GLY     BB 9953   1.868   1.845  10.685
    2ILE     BB 9954   1.554   1.714  10.672
    2ILE     SC 9955   1.470   1.868  10.920
    2GLY     BB 9956   1.426   1.766  10.418
    2VAL     BB 9957   1.196   1.897  10.196
    2VAL     SC 9958   1.280   1.980   9.981
    2LEU     BB 9959   0.954   1.683  10.228
    2LEU     SC 9960   0.965   1.561   9.917
    2THR     BB 9961   0.918   1.704  10.533
    2THR     SC 9962   1.117   1.578  10.659
    2PHE     BB 9963   0.789   1.992  10.527
    2PHE     SC 9964   1.047   2.134  10.611
    2PHE     SC 9965   1.011   2.249  10.810
    2PHE     SC 9966   1.198   2.160  10.835
    2LYS     BB 9967   0.554   1.921  10.332
    2LYS     SC 9968   0.583   1.883  10.027
    2LYS     SC 9969   0.481   1.773   9.748
    2ILE     BB 9970   0.425   1.706  10.521
    2ILE     SC 9971   0.494   1.448  10.425
    2VAL     BB 9972   0.393   1.896  10.768
    2VAL     SC 9973   0.602   1.902  10.923
    2LEU     BB 9974   0.208   2.100  10.625
    2LEU     SC 9975   0.280   2.340  10.435
    2PHE     BB 9976  -0.020   1.888  10.542
    2PHE     SC 9977   0.074   1.893  10.258
    2PHE     SC 9978   0.131   1.803  10.054
    2PHE     SC 9979   0.146   2.010  10.020
    2LEU     BB 9980  -0.072   1.792  10.838
    2LEU     SC 9981   0.097   1.572  10.991
    2ILE     BB 9982  -0.150   2.082  10.957
    2ILE     SC 9983   0.110   2.200  11.075
    2ILE     BB 9984  -0.394   2.116  10.747
    2ILE     SC 9985  -0.267   2.233  10.497
    2ASN     BB 9986  -0.557   1.812  10.772
    2ASN     SC 9987  -0.616   1.987  11.040
    2LYS     BB 9988  -0.461   1.585  10.583
    2LYS     SC 9989  -0.469   1.790  10.306
    2LYS     SC 9990  -0.468   2.014  10.079
    2LYS     BB 9991  -0.465   1.312  10.409
    2LYS     SC 9992  -0.752   1.140  10.466
    2LYS     SC 9993  -0.900   0.888  10.419
    2ILE     BB 9994  -0.232   1.083  10.331
    2ILE     SC 9995  -0.005   1.187  10.489
    2SER     BB 9996  -0.089   1.003  10.044
    2SER     SC 9997  -0.133   1.144   9.844
    2ILE     BB 9998   0.066   0.780   9.843
    2ILE     SC 9999  -0.069   0.536   9.871
    2SER     BB10000   0.219   0.993   9.664
    2SER     SC10001   0.020   1.023   9.480
    2ASP     BB10002   0.356   1.115   9.927
    2ASP     SC10003   0.162   1.384   9.898
    2THR     BB10004   0.478   0.847  10.044
    2THR     SC10005   0.303   0.725  10.198
    2ILE     BB10006   0.666   0.803   9.796
    2ILE     SC10007   0.492   0.671   9.571
    2VAL     BB10008   0.823   1.072   9.830
    2VAL     SC10009   0.727   1.280   9.721
    2ALA     BB10010   0.882   1.025  10.154
    2GLN     BB10011   1.076   0.752  10.075
    2GLN     SC10012   0.940   0.434   9.906
    2SER     BB10013   1.295   0.866   9.869
    2SER     SC10014   1.246   0.886   9.624
    2GLU     BB10015   1.419   1.096  10.052
    2GLU     SC10016   1.331   1.436  10.045
    2ARG     BB10017   1.478   0.861  10.294
    2ARG     SC10018   1.277   1.010  10.498
    2ARG     SC10019   1.277   1.223  10.761
    2GLY     BB10020   1.598   0.596  10.135
    2SER     BB10021   1.363   0.384  10.105
    2SER     SC10022   1.225   0.349  10.325
    2ALA     BB10023   1.279   0.030  10.039
    2THR     BB10024   0.988   0.140  10.208
    2THR     SC10025   0.941  -0.066  10.347
    2THR     BB10026   0.636   0.249  10.289
    2THR     SC10027   0.557   0.240  10.054
    2SER     BB10028   0.656   0.185  10.587
    2SER     SC10029   0.653  -0.042  10.681
    2LEU     BB10030   0.569   0.434  10.799
    2LEU     SC10031   0.379   0.231  10.981
    2THR     BB10032   0.724   0.713  10.689
    2THR     SC10033   0.765   0.618  10.459
    2ILE     BB10034   0.564   0.930  10.851
    2ILE     SC10035   0.368   0.993  10.661
    2ASP     BB10036   0.669   0.848  11.133
    2ASP     SC10037   0.387   0.673  11.174
    2LEU     BB10038   0.966   0.918  11.063
    2LEU     SC10039   1.186   0.737  10.944
    2ILE     BB10040   0.888   1.220  11.024
    2ILE     SC10041   0.796   1.265  10.734
    2LYS     BB10042   0.775   1.279  11.308
    2LYS     SC10043   0.452   1.165  11.287
    2LYS     SC10044   0.173   1.028  11.231
    2ASP     BB10045   1.016   1.185  11.484
    2ASP     SC10046   0.895   0.911  11.630
    2GLY     BB10047   1.228   1.343  11.335
    2PHE     BB10048   1.113   1.637  11.387
    2PHE     SC10049   0.973   1.807  11.220
    2PHE     SC10050   0.821   1.923  11.352
    2PHE     SC10051   0.937   2.075  11.266
    2ILE     BB10052   1.075   1.612  11.699
    2ILE     SC10053   0.787   1.504  11.744
    2TRP     BB10054   1.376   1.541  11.765
    2TRP     SC10055   1.340   1.246  11.835
    2TRP     SC10056   1.225   1.071  11.848
    2TRP     SC10057   1.284   1.270  12.119
    2TRP     SC10058   1.149   1.107  12.133
    2LEU     BB10059   1.511   1.786  11.638
    2LEU     SC10060   1.571   1.684  11.314
    2THR     BB10061   1.362   2.026  11.789
    2THR     SC10062   1.156   2.072  11.638
    2SER     BB10063   1.415   1.918  12.070
    2SER     SC10064   1.282   1.733  12.184
    2VAL     BB10065   1.729   1.904  12.058
    2VAL     SC10066   1.825   1.665  12.021
    2GLN     BB10067   1.776   2.194  11.959
    2GLN     SC10068   1.699   2.173  11.545
    2VAL     BB10069   1.642   2.334  12.204
    2VAL     SC10070   1.397   2.402  12.163
    2ILE     BB10071   1.787   2.187  12.453
    2ILE     SC10072   1.649   1.936  12.511
    2SER     BB10073   2.085   2.212  12.356
    2SER     SC10074   2.199   2.018  12.232
    2ALA     BB10075   2.097   2.510  12.215
    2PHE     BB10076   1.965   2.709  12.434
    2PHE     SC10077   1.702   2.812  12.441
    2PHE     SC10078   1.689   3.041  12.400
    2PHE     SC10079   1.604   3.019  12.590
    2ILE     BB10080   2.056   2.598  12.710
    2ILE     SC10081   1.800   2.460  12.825
    2LEU     BB10082   2.378   2.509  12.659
    2LEU     SC10083   2.319   2.184  12.748
    2PHE     BB10084   2.441   2.802  12.491
    2PHE     SC10085   2.559   2.637  12.286
    2PHE     SC10086   2.488   2.477  12.136
    2PHE     SC10087   2.678   2.410  12.195
    2PHE     BB10088   2.354   3.000  12.712
    2PHE     SC10089   2.100   3.014  12.807
    2PHE     SC10090   1.886   2.922  12.823
    2PHE     SC10091   1.961   2.905  13.017
    2LEU     BB10092   2.537   2.879  12.965
    2LEU     SC10093   2.328   2.689  13.130
    2PHE     BB10094   2.753   2.954  12.734
    2PHE     SC10095   2.912   2.749  12.948
    2PHE     SC10096   2.809   2.553  13.019
    2PHE     SC10097   2.940   2.599  13.176
    2PHE     BB10098   3.045   3.097  12.555
    2PHE     SC10099   3.051   3.260  12.786
    2PHE     SC10100   2.899   3.395  12.890
    2PHE     SC10101   2.990   3.294  13.047
    2PHE     BB10102   3.163   3.138  12.195
    2PHE     SC10103   2.898   3.047  12.139
    2PHE     SC10104   2.849   3.202  11.975
    2PHE     SC10105   2.687   3.214  12.108
    2ASN     BB10106   3.306   3.437  12.133
    2ASN     SC10107   3.188   3.663  11.985
    2GLN     BB10108   3.391   3.385  12.426
    2GLN     SC10109   3.506   3.744  12.371
    2PRO     BB10110   3.480   3.218  12.695
    2PRO     SC10111   3.717   3.288  12.624
    2SER     BB10112   3.570   3.269  13.024
    2SER     SC10113   3.430   3.052  13.147
    2ASN     BB10114   3.701   3.274  13.367
    2ASN     SC10115   3.925   3.255  13.108
    2ASN     BB10116   3.480   3.529  13.373
    2ASN     SC10117   3.524   3.737  13.589
    2PRO     BB10118   3.132   3.484  13.453
    2PRO     SC10119   3.213   3.294  13.440
    2ASN     BB10120   2.810   3.665  13.415
    2ASN     SC10121   2.991   3.927  13.431
    2LEU     BB10122   2.636   3.378  13.471
    2LEU     SC10123   2.583   3.216  13.211
    2GLU     BB10124   2.363   3.344  13.660
    2GLU     SC10125   2.360   3.748  13.792
    2VAL     BB10126   2.162   3.226  13.417
    2VAL     SC10127   1.944   3.234  13.592
    2VAL     BB10128   2.065   3.414  13.135
    2VAL     SC10129   1.875   3.278  13.048
    2SER     BB10130   2.399   3.542  13.077
    2SER     SC10131   2.373   3.744  13.204
    2PRO     BB10132   2.578   3.653  12.831
    2PRO     SC10133   2.434   3.474  12.732
    2TYR     BB10134   2.888   3.804  12.670
    2TYR     SC10135   3.135   3.762  12.771
    2TYR     SC10136   3.217   3.755  12.987
    2TYR     SC10137   3.416   3.866  12.933
    2ASP     BB10138   2.451   3.925  12.557
    2ASP     SC10139   2.324   4.242  12.571
    2PHE     BB10140   2.109   3.864  12.450
    2PHE     SC10141   2.042   3.969  12.738
    2PHE     SC10142   1.995   3.838  12.924
    2PHE     SC10143   2.114   3.993  13.001
    2TRP     BB10144   2.074   3.926  12.141
    2TRP     SC10145   2.142   4.202  12.107
    2TRP     SC10146   2.286   4.329  12.193
    2TRP     SC10147   2.328   4.194  11.884
    2TRP     SC10148   2.483   4.312  11.971
    2LYS     BB10149   2.323   3.764  12.027
    2LYS     SC10150   2.605   3.903  11.982
    2LYS     SC10151   2.923   3.907  11.974
    2SER     BB10152   2.321   3.487  12.191
    2SER     SC10153   2.336   3.566  12.427
    2LEU     BB10154   2.038   3.342  12.153
    2LEU     SC10155   1.891   3.441  12.451
    2TRP     BB10156   2.059   3.346  11.844
    2TRP     SC10157   1.901   3.645  11.795
    2TRP     SC10158   1.716   3.698  11.884
    2TRP     SC10159   1.874   3.896  11.657
    2TRP     SC10160   1.688   3.955  11.738
    2PHE     BB10161   2.343   3.206  11.808
    2PHE     SC10162   2.475   3.468  11.726
    2PHE     SC10163   2.660   3.602  11.694
    2PHE     SC10164   2.520   3.684  11.562
    2ALA     BB10165   2.294   2.962  12.020
    2VAL     BB10166   2.068   2.858  11.789
    2VAL     SC10167   1.835   2.944  11.865
    2PHE     BB10168   2.216   2.873  11.511
    2PHE     SC10169   2.269   3.109  11.342
    2PHE     SC10170   2.451   3.018  11.230
    2PHE     SC10171   2.335   3.098  11.076
    2SER     BB10172   2.242   2.406  11.583
    2SER     SC10173   2.143   2.343  11.793
    2THR     BB10174   2.101   2.411  11.313
    2THR     SC10175   1.886   2.567  11.314
    2SER     BB10176   2.374   2.375  11.187
    2SER     SC10177   2.532   2.564  11.135
    2ALA     BB10178   2.490   2.129  11.370
    2VAL     BB10179   2.242   1.897  11.320
    2VAL     SC10180   2.067   1.914  11.510
    2ASN     BB10181   2.256   1.946  10.984
    2ASN     SC10182   1.963   2.072  11.042
    2ASN     BB10183   2.571   1.984  10.884
    2ASN     SC10184   2.622   1.676  10.960
    2ALA     BB10185   2.601   2.312  10.778
    2GLY     BB10186   2.908   2.482  10.879
    2PHE     BB10187   2.776   2.736  10.999
    2PHE     SC10188   2.636   2.865  10.745
    2PHE     SC10189   2.608   2.722  10.564
    2PHE     SC10190   2.611   2.912  10.476
    2ASP     BB10191   2.913   2.989  11.120
    2ASP     SC10192   3.109   2.967  11.391
    2ILE     BB10193   2.844   3.315  11.252
    2ILE     SC10194   2.605   3.362  11.308
    2ILE     BB10195   3.156   3.347  11.309
    2ILE     SC10196   3.147   3.392  11.614
    2SER     BB10197   3.394   3.499  11.113
    2SER     SC10198   3.301   3.716  11.042
    2PRO     BB10199   3.710   3.517  11.240
    2PRO     SC10200   3.575   3.693  11.366
    2ASN     BB10201   3.620   3.200  11.310
    2ASN     SC10202   3.893   3.281  11.479
    2SER     BB10203   3.502   2.862  11.239
    2SER     SC10204   3.481   2.909  10.992
    2LEU     BB10205   3.558   2.789  11.588
    2LEU     SC10206   3.355   2.568  11.656
    2GLN     BB10207   3.862   2.870  11.690
    2GLN     SC10208   4.069   2.875  11.337
    2PRO     BB10209   3.828   3.017  11.989
    2PRO     SC10210   3.678   3.145  11.852
    2TYR     BB10211   3.752   2.709  12.098
    2TYR     SC10212   3.511   2.672  12.147
    2TYR     SC10213   3.375   2.781  12.298
    2TYR     SC10214   3.347   2.582  12.426
    2ASN     BB10215   4.009   2.521  12.103
    2ASN     SC10216   4.186   2.569  11.877
    2VAL     BB10217   4.184   2.646  12.379
    2VAL     SC10218   4.338   2.777  12.248
    2ASP     BB10219   3.977   2.737  12.618
    2ASP     SC10220   4.017   3.053  12.556
    2ASN     BB10221   3.962   2.507  12.866
    2ASN     SC10222   4.161   2.309  12.949
    2ARG     BB10223   3.521   2.600  12.796
    2ARG     SC10224   3.373   2.812  12.730
    2ARG     SC10225   3.046   2.765  12.550
    2VAL     BB10226   3.600   2.367  12.562
    2VAL     SC10227   3.833   2.329  12.534
    2TYR     BB10228   3.382   2.144  12.621
    2TYR     SC10229   3.330   2.023  12.869
    2TYR     SC10230   3.365   1.794  12.861
    2TYR     SC10231   3.148   1.740  12.938
    2ALA     BB10232   3.077   2.276  12.559
    2ILE     BB10233   3.107   2.285  12.214
    2ILE     SC10234   3.174   2.551  12.074
    2GLN     BB10235   3.234   2.004  12.165
    2GLN     SC10236   3.477   1.831  12.262
    2VAL     BB10237   3.009   1.824  12.289
    2VAL     SC10238   3.063   1.744  12.528
    2ILE     BB10239   2.742   1.955  12.185
    2ILE     SC10240   2.654   2.141  12.423
    2PHE     BB10241   2.794   1.965  11.879
    2PHE     SC10242   2.791   2.253  11.819
    2PHE     SC10243   2.867   2.469  11.851
    2PHE     SC10244   2.660   2.491  11.854
    2MET     BB10245   2.879   1.667  11.843
    2MET     SC10246   3.288   1.623  11.879
    2LEU     BB10247   2.612   1.554  11.942
    2LEU     SC10248   2.504   1.526  12.237
    2GLU     BB10249   2.437   1.687  11.721
    2GLU     SC10250   2.352   2.066  11.892
    2TRP     BB10251   2.604   1.609  11.445
    2TRP     SC10252   2.829   1.797  11.434
    2TRP     SC10253   2.975   1.925  11.515
    2TRP     SC10254   3.042   1.612  11.403
    2TRP     SC10255   3.197   1.738  11.477
    2ILE     BB10256   2.630   1.301  11.483
    2ILE     SC10257   2.899   1.248  11.626
    2ILE     BB10258   2.324   1.234  11.527
    2ILE     SC10259   2.274   1.214  11.831
    2GLY     BB10260   2.225   1.381  11.263
    2GLY     BB10261   2.402   1.218  11.077
    2LEU     BB10262   2.276   0.981  11.159
    2LEU     SC10263   2.522   0.791  11.343
    2GLY     BB10264   2.010   0.787  11.176
    2TYR     BB10265   1.678   0.795  11.163
    2TYR     SC10266   1.630   1.083  11.063
    2TYR     SC10267   1.692   1.225  10.887
    2TYR     SC10268   1.725   1.412  11.028
    2PRO     BB10269   1.669   0.495  11.197
    2PRO     SC10270   1.673   0.518  10.931
    2THR     BB10271   1.878   0.488  11.436
    2THR     SC10272   2.133   0.494  11.350
    2PHE     BB10273   1.711   0.674  11.627
    2PHE     SC10274   1.749   0.927  11.706
    2PHE     SC10275   1.745   1.155  11.730
    2PHE     SC10276   1.705   1.087  11.924
    2ASP     BB10277   1.570   0.232  11.702
    2ASP     SC10278   1.644  -0.002  11.502
    2ILE     BB10279   1.696   0.352  11.961
    2ILE     SC10280   1.992   0.429  11.900
    2LYS     BB10281   1.418   0.467  12.074
    2LYS     SC10282   1.345   0.721  12.092
    2LYS     SC10283   1.282   0.851  12.378
    2ARG     BB10284   1.253   0.184  12.055
    2ARG     SC10285   1.046   0.140  11.826
    2ARG     SC10286   0.767  -0.054  11.672
    2LYS     BB10287   1.445  -0.074  12.121
    2LYS     SC10288   1.437  -0.206  11.842
    2LYS     SC10289   1.267  -0.400  11.653
    2LEU     BB10290   1.591   0.041  12.383
    2LEU     SC10291   1.804   0.268  12.401
    2LYS     BB10292   1.351   0.145  12.580
    2LYS     SC10293   1.146   0.359  12.496
    2LYS     SC10294   0.864   0.510  12.507
    2ALA     BB10295   1.251  -0.180  12.639
    2ARG     BB10296   1.617  -0.259  12.749
    2ARG     SC10297   1.546  -0.490  12.534
    2ARG     SC10298   1.443  -0.782  12.312
    2LYS     BB10299   1.743  -0.081  12.956
    2LYS     SC10300   1.802   0.232  12.924
    2LYS     SC10301   1.890   0.531  12.999
    2THR     BB10302   2.101  -0.180  12.982
    2THR     SC10303   2.160  -0.038  13.165
    2LYS     BB10304   2.051  -0.430  12.718
    2LYS     SC10305   2.011  -0.610  12.978
    2LYS     SC10306   1.999  -0.798  13.233
    2GLU     BB10307   2.043  -0.253  12.413
    2GLU     SC10308   2.094  -0.019  12.623
    2LYS     BB10309   2.239  -0.430  12.172
    2LYS     SC10310   2.450  -0.335  12.405
    2LYS     SC10311   2.586  -0.233  12.675
    2ILE     BB10312   2.076  -0.642  11.999
    2ILE     SC10313   2.060  -0.848  12.238
    2ASN     BB10314   1.770  -0.533  11.844
    2ASN     SC10315   1.647  -0.514  12.101
    2PHE     BB10316   1.899  -0.407  11.611
    2PHE     SC10317   1.971  -0.152  11.776
    2PHE     SC10318   2.130  -0.083  11.931
    2PHE     SC10319   1.953   0.006  11.998
    2SER     BB10320   1.953  -0.329  11.303
    2SER     SC10321   1.813  -0.179  11.176
    2LEU     BB10322   2.192  -0.350  11.067
    2LEU     SC10323   2.320  -0.553  10.871
    2PHE     BB10324   2.214  -0.047  11.019
    2PHE     SC10325   2.050   0.130  10.889
    2PHE     SC10326   2.160   0.246  10.721
    2PHE     SC10327   2.100   0.396  10.855
    2THR     BB10328   2.243   0.032  11.324
    2THR     SC10329   2.008   0.082  11.426
    2LYS     BB10330   2.490  -0.157  11.386
    2LYS     SC10331   2.329  -0.442  11.475
    2LYS     SC10332   2.342  -0.634  11.669
    2ILE     BB10333   2.679  -0.047  11.171
    2ILE     SC10334   2.685  -0.214  10.931
    2ASN     BB10335   2.664   0.259  11.241
    2ASN     SC10336   2.458   0.363  11.010
    2PHE     BB10337   2.762   0.235  11.542
    2PHE     SC10338   2.639   0.136  11.769
    2PHE     SC10339   2.657   0.300  11.935
    2PHE     SC10340   2.758   0.135  12.016
    2TRP     BB10341   3.040   0.089  11.490
    2TRP     SC10342   2.983  -0.173  11.643
    2TRP     SC10343   2.851  -0.282  11.768
    2TRP     SC10344   3.149  -0.161  11.879
    2TRP     SC10345   3.023  -0.271  12.010
    2VAL     BB10346   3.156   0.260  11.246
    2VAL     SC10347   3.090   0.156  11.019
    2TYR     BB10348   3.166   0.547  11.367
    2TYR     SC10349   2.918   0.625  11.470
    2TYR     SC10350   2.950   0.788  11.635
    2TYR     SC10351   2.847   0.661  11.804
    2LEU     BB10352   3.348   0.476  11.612
    2LEU     SC10353   3.260   0.329  11.880
    2VAL     BB10354   3.597   0.351  11.460
    2VAL     SC10355   3.590   0.091  11.466
    2LEU     BB10356   3.642   0.595  11.258
    2LEU     SC10357   3.572   0.596  10.955
    2PHE     BB10358   3.645   0.779  11.546
    2PHE     SC10359   3.427   0.940  11.442
    2PHE     SC10360   3.215   1.022  11.472
    2PHE     SC10361   3.271   1.106  11.289
    2ILE     BB10362   3.937   0.636  11.619
    2ILE     SC10363   3.813   0.459  11.842
    2PHE     BB10364   4.115   0.651  11.372
    2PHE     SC10365   4.121   0.518  11.132
    2PHE     SC10366   4.326   0.412  11.107
    2PHE     SC10367   4.318   0.544  10.945
    2GLY     BB10368   4.103   0.958  11.333
    2PRO     BB10369   4.242   1.067  11.607
    2PRO     SC10370   3.994   1.038  11.675
    2LEU     BB10371   4.496   0.901  11.548
    2LEU     SC10372   4.541   0.617  11.694
    2ALA     BB10373   4.541   1.018  11.235
    2VAL     BB10374   4.554   1.341  11.353
    2VAL     SC10375   4.332   1.460  11.301
    2PHE     BB10376   4.759   1.304  11.553
    2PHE     SC10377   4.713   1.272  11.863
    2PHE     SC10378   4.891   1.168  11.971
    2PHE     SC10379   4.821   1.307  12.112
    2ALA     BB10380   4.974   1.083  11.383
    2THR     BB10381   5.010   1.400  11.190
    2THR     SC10382   4.904   1.311  10.973
    2GLU     BB10383   4.928   1.671  11.392
    2GLU     SC10384   4.597   1.758  11.172
    2TYR     BB10385   5.173   1.659  11.623
    2TYR     SC10386   5.226   1.380  11.598
    2TYR     SC10387   5.453   1.388  11.639
    2TYR     SC10388   5.502   1.226  11.477
    2SER     BB10389   5.425   1.833  11.429
    2SER     SC10390   5.561   1.663  11.477
    2ASN     BB10391   5.280   2.137  11.374
    2ASN     SC10392   5.167   2.145  11.094
    2TYR     BB10393   5.297   2.470  11.435
    2TYR     SC10394   5.482   2.657  11.454
    2TYR     SC10395   5.557   2.714  11.667
    2TYR     SC10396   5.450   2.923  11.668
    2ASN     BB10397   5.002   2.572  11.336
    2ASN     SC10398   5.162   2.602  11.048
    2ASN     BB10399   4.867   2.323  11.517
    2ASN     SC10400   4.629   2.427  11.283
    2SER     BB10401   4.797   2.218  11.819
    2SER     SC10402   4.645   2.005  11.680
    2LEU     BB10403   4.969   1.958  12.026
    2LEU     SC10404   5.143   2.156  12.279
    2ILE     BB10405   5.260   1.806  12.221
    2ILE     SC10406   5.205   1.572  12.061
    2PHE     BB10407   5.292   1.623  12.548
    2PHE     SC10408   5.285   1.809  12.748
    2PHE     SC10409   5.373   2.021  12.779
    2PHE     SC10410   5.435   1.914  12.949
    2TYR     BB10411   5.750   1.447  12.303
    2TYR     SC10412   5.672   1.291  12.035
    2TYR     SC10413   5.741   1.233  11.822
    2TYR     SC10414   5.595   1.049  11.805
    2TYR     BB10415   6.095   1.573  12.289
    2TYR     SC10416   6.207   1.343  12.430
    2TYR     SC10417   6.186   1.114  12.396
    2TYR     SC10418   6.183   1.063  12.626
    2ASP     BB10419   5.998   1.853  12.145
    2ASP     SC10420   5.837   1.719  11.927
    2GLU     BB10421   5.890   2.004  12.397
    2GLU     SC10422   5.744   1.971  12.662
    2ASN     BB10423   6.190   2.044  12.471
    2ASN     SC10424   6.290   2.061  12.762
    2PHE     BB10425   6.195   2.378  12.333
    2PHE     SC10426   6.444   2.324  12.142
    2PHE     SC10427   6.573   2.518  12.150
    2PHE     SC10428   6.560   2.474  11.945
    2THR     BB10429   6.029   2.314  12.035
    2THR     SC10430   6.116   2.489  11.871
    2VAL     BB10431   5.726   2.330  12.015
    2VAL     SC10432   5.596   2.221  12.227
    2LEU     BB10433   5.530   2.312  11.772
    2LEU     SC10434   5.730   2.125  11.547
    2ASN     BB10435   5.267   2.277  11.843
    2ASN     SC10436   5.110   2.011  11.677
    2ALA     BB10437   5.036   2.550  12.021
    2LYS     BB10438   4.912   2.393  12.361
    2LYS     SC10439   4.656   2.406  12.146
    2LYS     SC10440   4.627   2.588  11.929
    2SER     BB10441   4.745   2.155  12.556
    2SER     SC10442   4.659   2.240  12.764
    2ASN     BB10443   4.699   1.816  12.600
    2ASN     SC10444   4.888   1.592  12.645
    2THR     BB10445   4.386   1.838  12.637
    2THR     SC10446   4.337   1.850  12.894
    2VAL     BB10447   4.345   2.020  12.381
    2VAL     SC10448   4.364   2.267  12.442
    2VAL     BB10449   4.449   1.817  12.172
    2VAL     SC10450   4.704   1.791  12.181
    2PHE     BB10451   4.207   1.624  12.205
    2PHE     SC10452   4.129   1.451  12.398
    2PHE     SC10453   4.122   1.241  12.298
    2PHE     SC10454   3.925   1.275  12.359
    2MET     BB10455   4.003   1.837  12.098
    2MET     SC10456   3.844   1.860  12.434
    2ASP     BB10457   4.133   1.889  11.817
    2ASP     SC10458   4.312   2.169  11.893
    2ILE     BB10459   4.138   1.589  11.713
    2ILE     SC10460   4.356   1.450  11.855
    2LEU     BB10461   3.836   1.513  11.762
    2LEU     SC10462   3.710   1.384  12.013
    2PHE     BB10463   3.705   1.733  11.577
    2PHE     SC10464   3.605   1.967  11.639
    2PHE     SC10465   3.410   2.038  11.743
    2PHE     SC10466   3.390   2.106  11.546
    2ASN     BB10467   3.850   1.706  11.285
    2ASN     SC10468   4.088   1.844  11.173
    2THR     BB10469   3.752   1.393  11.235
    2THR     SC10470   3.909   1.301  11.404
    2THR     BB10471   3.441   1.444  11.270
    2THR     SC10472   3.455   1.410  11.540
    2ALA     BB10473   3.389   1.747  11.113
    2SER     BB10474   3.419   1.589  10.796
    2SER     SC10475   3.621   1.467  10.842
    2ARG     BB10476   3.140   1.409  10.875
    2ARG     SC10477   3.252   1.144  10.827
    2ARG     SC10478   3.241   0.880  11.039
    2ASN     BB10479   2.966   1.698  10.768
    2ASN     SC10480   2.933   1.457  10.555
    2ALA     BB10481   2.995   1.948  11.002
    2GLY     BB10482   3.243   2.212  10.899
    2PHE     BB10483   3.407   2.284  11.144
    2PHE     SC10484   3.132   2.314  11.307
    2PHE     SC10485   2.988   2.488  11.257
    2PHE     SC10486   2.860   2.328  11.299
    2SER     BB10487   3.678   2.501  11.280
    2SER     SC10488   3.821   2.584  11.096
    2THR     BB10489   3.937   2.420  11.508
    2THR     SC10490   3.805   2.249  11.652
    2ILE     BB10491   4.144   2.407  11.273
    2ILE     SC10492   4.293   2.200  11.437
    2ASP     BB10493   4.353   2.472  11.023
    2ASP     SC10494   4.458   2.717  10.876
    2ILE     BB10495   4.345   2.351  10.681
    2ILE     SC10496   4.094   2.226  10.727
    2SER     BB10497   4.595   2.473  10.538
    2SER     SC10498   4.604   2.713  10.459
    2THR     BB10499   4.865   2.411  10.751
    2THR     SC10500   4.833   2.638  10.839
    2PHE     BB10501   4.891   2.126  10.689
    2PHE     SC10502   4.662   2.044  10.886
    2PHE     SC10503   4.432   2.052  10.901
    2PHE     SC10504   4.497   2.086  11.097
    2ASN     BB10505   4.967   1.826  10.630
    2ASN     SC10506   5.210   1.620  10.697
    2SER     BB10507   4.914   1.643  10.338
    2SER     SC10508   5.118   1.723  10.204
    2GLY     BB10509   4.828   1.376  10.477
    2SER     BB10510   4.573   1.483  10.635
    2SER     SC10511   4.644   1.629  10.828
    2LYS     BB10512   4.426   1.594  10.382
    2LYS     SC10513   4.544   1.912  10.394
    2LYS     SC10514   4.722   2.138  10.309
    2ALA     BB10515   4.442   1.301  10.235
    2ILE     BB10516   4.243   1.169  10.489
    2ILE     SC10517   4.354   1.005  10.658
    2LEU     BB10518   4.008   1.379  10.482
    2LEU     SC10519   4.099   1.599  10.727
    2SER     BB10520   3.911   1.312  10.189
    2SER     SC10521   4.026   1.400   9.981
    2ILE     BB10522   3.808   1.019  10.248
    2ILE     SC10523   3.941   0.803  10.206
    2LEU     BB10524   3.644   1.107  10.523
    2LEU     SC10525   3.770   1.088  10.801
    2MET     BB10526   3.447   1.310  10.321
    2MET     SC10527   3.651   1.644  10.321
    2PHE     BB10528   3.343   1.116  10.115
    2PHE     SC10529   3.448   1.045   9.870
    2PHE     SC10530   3.459   0.830   9.780
    2PHE     SC10531   3.330   0.932   9.650
    2ILE     BB10532   3.266   0.975  10.367
    2ILE     SC10533   3.398   0.709  10.391
    2GLY     BB10534   2.989   0.995  10.511
    2SER     BB10535   2.715   1.037  10.747
    2SER     SC10536   2.817   1.055  10.986
    2ALA     BB10537   2.474   0.839  10.695
    2PRO     BB10538   2.165   0.775  10.469
    2PRO     SC10539   2.296   0.569  10.462
    2SER     BB10540   1.911   0.951  10.591
    2SER     SC10541   2.003   0.931  10.827
    2SER     BB10542   2.011   1.268  10.602
    2SER     SC10543   2.240   1.154  10.563
    2THR     BB10544   2.181   1.554  10.645
    2THR     SC10545   2.227   1.571  10.901
    2ALA     BB10546   2.468   1.473  10.497
    2GLY     BB10547   2.625   1.347  10.182
    2GLY     BB10548   2.776   1.177   9.894
    2ILE     BB10549   2.876   0.922  10.037
    2ILE     SC10550   2.991   0.715   9.852
    2ARG     BB10551   2.812   0.660  10.250
    2ARG     SC10552   2.552   0.863  10.244
    2ARG     SC10553   2.364   1.121  10.055
    2THR     BB10554   2.912   0.454  10.512
    2THR     SC10555   2.932   0.600  10.729
    2THR     BB10556   2.770   0.182  10.420
    2THR     SC10557   2.542   0.224  10.523
    2THR     BB10558   2.867   0.192  10.122
    2THR     SC10559   2.712   0.376  10.007
    2PHE     BB10560   3.159   0.150  10.193
    2PHE     SC10561   3.354   0.322  10.313
    2PHE     SC10562   3.541   0.304  10.175
    2PHE     SC10563   3.616   0.269  10.368
    2GLY     BB10564   3.114  -0.114  10.358
    2VAL     BB10565   2.976  -0.281  10.125
    2VAL     SC10566   2.720  -0.244  10.110
    2LEU     BB10567   3.215  -0.255   9.926
    2LEU     SC10568   3.293  -0.028   9.728
    2LEU     BB10569   3.451  -0.355  10.113
    2LEU     SC10570   3.637  -0.144  10.272
    2LEU     BB10571   3.303  -0.631  10.199
    2LEU     SC10572   3.242  -0.546  10.519
    2SER     BB10573   3.275  -0.727   9.910
    2SER     SC10574   3.085  -0.662   9.753
    2THR     BB10575   3.578  -0.735   9.829
    2THR     SC10576   3.649  -0.535   9.682
    2PHE     BB10577   3.663  -0.900  10.084
    2PHE     SC10578   3.690  -0.839  10.348
    2PHE     SC10579   3.906  -0.892  10.418
    2PHE     SC10580   3.783  -1.004  10.546
    2THR     BB10581   3.486  -1.134   9.990
    2THR     SC10582   3.246  -1.117  10.092
    2ILE     BB10583   3.602  -1.188   9.687
    2ILE     SC10584   3.443  -0.995   9.512
    2ILE     BB10585   3.905  -1.268   9.776
    2ILE     SC10586   4.008  -1.003   9.863
    2LYS     BB10587   3.881  -1.541   9.959
    2LYS     SC10588   3.751  -1.401  10.239
    2LYS     SC10589   3.497  -1.302  10.351
    2ASN     BB10590   3.607  -1.684   9.879
    2ASN     SC10591   3.484  -1.509   9.630
    2GLN     BB10592   3.271  -1.580   9.943
    2GLN     SC10593   3.147  -1.560  10.314
    2LYS     BB10594   2.972  -1.597   9.771
    2LYS     SC10595   2.975  -1.901   9.655
    2LYS     SC10596   2.962  -2.166   9.487
    2PHE     BB10597   2.852  -1.413  10.012
    2PHE     SC10598   2.568  -1.504   9.890
    2PHE     SC10599   2.567  -1.719   9.798
    2PHE     SC10600   2.438  -1.608   9.673
    2THR     BB10601   2.779  -1.110  10.156
    2THR     SC10602   2.849  -0.940   9.981
    2SER     BB10603   2.892  -1.047  10.504
    2SER     SC10604   2.765  -1.263  10.590
    2ALA     BB10605   2.764  -0.874  10.802
    2PHE     BB10606   2.719  -1.012  11.147
    2PHE     SC10607   2.712  -0.765  11.286
    2PHE     SC10608   2.761  -0.540  11.245
    2PHE     SC10609   2.838  -0.575  11.437
    2ARG     BB10610   2.586  -1.286  11.017
    2ARG     SC10611   2.767  -1.465  11.212
    2ARG     SC10612   3.064  -1.561  11.337
    2LYS     BB10613   2.462  -1.126  10.770
    2LYS     SC10614   2.275  -1.096  11.040
    2LYS     SC10615   2.199  -1.204  11.297
    2THR     BB10616   2.320  -1.089  10.452
    2THR     SC10617   2.419  -1.321  10.333
    2ILE     BB10618   2.381  -0.919  10.148
    2ILE     SC10619   2.520  -0.671  10.273
    2PRO     BB10620   2.219  -0.819   9.889
    2PRO     SC10621   2.018  -0.858  10.033
    2SER     BB10622   2.277  -0.758   9.546
    2SER     SC10623   2.320  -0.926   9.372
    2GLU     BB10624   2.125  -0.484   9.515
    2GLU     SC10625   1.756  -0.539   9.635
    2THR     BB10626   2.299  -0.326   9.727
    2THR     SC10627   2.200  -0.364   9.965
    2VAL     BB10628   2.568  -0.365   9.582
    2VAL     SC10629   2.674  -0.601   9.645
    2ASN     BB10630   2.488  -0.224   9.308
    2ASN     SC10631   2.481  -0.488   9.112
    2ARG     BB10632   2.392   0.047   9.437
    2ARG     SC10633   2.064   0.008   9.497
    2ARG     SC10634   1.860  -0.172   9.682
    2SER     BB10635   2.670   0.109   9.573
    2SER     SC10636   2.749  -0.001   9.782
    2TYR     BB10637   2.835   0.118   9.307
    2TYR     SC10638   2.965  -0.149   9.318
    2TYR     SC10639   2.945  -0.379   9.349
    2TYR     SC10640   3.151  -0.400   9.461
    2ALA     BB10641   2.640   0.330   9.164
    2ALA     BB10642   2.705   0.550   9.433
    2PHE     BB10643   3.045   0.542   9.372
    2PHE     SC10644   3.231   0.379   9.471
    2PHE     SC10645   3.355   0.403   9.666
    2PHE     SC10646   3.497   0.425   9.514
    2PHE     BB10647   3.079   0.618   9.073
    2PHE     SC10648   3.036   0.490   8.838
    2PHE     SC10649   3.231   0.560   8.734
    2PHE     SC10650   3.078   0.651   8.623
    2ILE     BB10651   2.922   0.892   9.053
    2ILE     SC10652   2.630   0.814   8.982
    2SER     BB10653   3.076   1.041   9.282
    2SER     SC10654   3.011   0.908   9.487
    2THR     BB10655   3.368   1.006   9.168
    2THR     SC10656   3.480   0.785   9.255
    2PHE     BB10657   3.314   1.130   8.884
    2PHE     SC10658   3.274   0.967   8.653
    2PHE     SC10659   3.189   1.106   8.487
    2PHE     SC10660   3.347   1.006   8.392
    2LEU     BB10661   3.214   1.414   8.978
    2LEU     SC10662   2.877   1.380   8.964
    2ILE     BB10663   3.479   1.477   9.125
    2ILE     SC10664   3.460   1.387   9.420
    2PHE     BB10665   3.663   1.447   8.875
    2PHE     SC10666   3.806   1.235   8.780
    2PHE     SC10667   3.792   1.275   8.552
    2PHE     SC10668   3.997   1.291   8.595
    2ILE     BB10669   3.521   1.658   8.691
    2ILE     SC10670   3.354   1.526   8.506
    2ALA     BB10671   3.527   1.883   8.922
    2LEU     BB10672   3.863   1.887   8.897
    2LEU     SC10673   3.935   1.690   9.166
    2PHE     BB10674   3.904   1.927   8.591
    2PHE     SC10675   3.853   1.764   8.375
    2PHE     SC10676   4.041   1.761   8.237
    2PHE     SC10677   3.890   1.841   8.115
    2ILE     BB10678   3.748   2.196   8.577
    2ILE     SC10679   3.443   2.135   8.543
    2ILE     BB10680   3.910   2.374   8.792
    2ILE     SC10681   3.746   2.400   9.006
    2TYR     BB10682   4.190   2.359   8.624
    2TYR     SC10683   4.309   2.160   8.796
    2TYR     SC10684   4.272   1.945   8.876
    2TYR     SC10685   4.325   2.005   9.096
    2VAL     BB10686   4.046   2.546   8.409
    2VAL     SC10687   3.997   2.374   8.213
    2ASP     BB10688   3.883   2.777   8.567
    2ASP     SC10689   3.583   2.621   8.587
    2SER     BB10690   4.128   2.908   8.728
    2SER     SC10691   4.229   2.716   8.857
    2ASN     BB10692   4.269   2.953   8.434
    2ASN     SC10693   4.517   2.762   8.518
    2SER     BB10694   4.156   3.232   8.298
    2SER     SC10695   4.135   3.371   8.504
    2VAL     BB10696   4.474   3.307   8.185
    2VAL     SC10697   4.427   3.555   8.188
    2PHE     BB10698   4.631   3.055   8.046
    2PHE     SC10699   4.559   2.801   8.054
    2PHE     SC10700   4.530   2.658   7.878
    2PHE     SC10701   4.699   2.581   7.974
    2THR     BB10702   4.955   3.390   7.970
    2THR     SC10703   4.801   3.573   7.946
    2LEU     BB10704   5.043   3.250   8.247
    2LEU     SC10705   5.229   3.050   8.062
    2LYS     BB10706   4.880   3.318   8.498
    2LYS     SC10707   4.733   3.588   8.493
    2LYS     SC10708   4.762   3.888   8.597
    2ASN     BB10709   4.875   3.386   8.868
    2ASN     SC10710   4.998   3.625   8.899
    2ASN     BB10711   4.673   2.937   8.985
    2ASN     SC10712   4.763   2.702   8.791
    2SER     BB10713   4.569   2.675   9.167
    2SER     SC10714   4.330   2.667   9.200
    2ALA     BB10715   4.664   2.485   9.442
    2SER     BB10716   4.576   2.138   9.394
    2SER     SC10717   4.670   1.985   9.225
    2ILE     BB10718   4.506   2.047   9.691
    2ILE     SC10719   4.666   1.947   9.851
    2ASN     BB10720   4.287   2.252   9.729
    2ASN     SC10721   4.500   2.484   9.859
    2THR     BB10722   4.094   2.159   9.498
    2THR     SC10723   4.151   2.272   9.268
    2ILE     BB10724   4.054   1.872   9.617
    2ILE     SC10725   4.295   1.702   9.529
    2LEU     BB10726   3.917   1.963   9.886
    2LEU     SC10727   4.194   1.947  10.084
    2LEU     BB10728   3.693   2.144   9.760
    2LEU     SC10729   3.861   2.440   9.763
    2ILE     BB10730   3.537   1.923   9.600
    2ILE     SC10731   3.605   1.948   9.335
    2THR     BB10732   3.493   1.709   9.827
    2THR     SC10733   3.693   1.535   9.825
    2SER     BB10734   3.347   1.914  10.014
    2SER     SC10735   3.463   2.073  10.161
    2ALA     BB10736   3.132   2.028   9.796
    2PHE     BB10737   3.008   1.709   9.761
    2PHE     SC10738   3.085   1.529   9.592
    2PHE     SC10739   2.944   1.488   9.413
    2PHE     SC10740   2.930   1.316   9.531
    2GLY     BB10741   3.000   1.599  10.080
    2THR     BB10742   2.887   1.838  10.250
    2THR     SC10743   2.670   1.811  10.127
    2VAL     BB10744   3.114   1.986  10.457
    2VAL     SC10745   3.289   1.800  10.408
    2GLY     BB10746   3.299   2.300  10.457
    2LEU     BB10747   3.577   2.258  10.423
    2LEU     SC10748   3.634   2.113  10.724
    2SER     BB10749   3.875   2.450  10.390
    2SER     SC10750   3.744   2.624  10.282
    2PRO     BB10751   4.178   2.581  10.385
    2PRO     SC10752   4.202   2.460  10.160
    2LEU     BB10753   4.070   2.878  10.398
    2LEU     SC10754   4.170   2.986  10.097
    2ALA     BB10755   4.087   3.045  10.685
    2PHE     BB10756   3.723   3.305  10.384
    2PHE     SC10757   3.877   3.542  10.335
    2PHE     SC10758   4.064   3.644  10.429
    2PHE     SC10759   3.929   3.802  10.397
    2GLN     BB10760   3.732   3.056  10.234
    2GLN     SC10761   3.420   2.887  10.509
    2MET     BB10762   3.581   3.060   9.903
    2MET     SC10763   3.519   2.670   9.851
    2TYR     BB10764   3.665   3.357   9.785
    2TYR     SC10765   3.646   3.575   9.926
    2TYR     SC10766   3.789   3.756   9.948
    2TYR     SC10767   3.650   3.903   9.828
    2GLN     BB10768   3.895   3.281   9.537
    2GLN     SC10769   4.123   3.455   9.734
    2LEU     BB10770   3.682   3.233   9.329
    2LEU     SC10771   3.563   2.942   9.469
    2GLY     BB10772   3.566   3.226   9.036
    2VAL     BB10773   3.281   3.262   8.853
    2VAL     SC10774   3.295   3.504   8.743
    2VAL     BB10775   3.278   2.966   8.734
    2VAL     SC10776   3.347   2.977   8.482
    2THR     BB10777   3.376   2.817   8.999
    2THR     SC10778   3.634   2.868   9.017
    2LYS     BB10779   3.110   2.875   9.152
    2LYS     SC10780   3.172   3.180   9.291
    2LYS     SC10781   3.243   3.479   9.279
    2ILE     BB10782   2.909   2.721   8.957
    2ILE     SC10783   2.844   2.914   8.724
    2SER     BB10784   3.029   2.432   8.972
    2SER     SC10785   3.256   2.475   8.847
    2LEU     BB10786   2.997   2.410   9.286
    2LEU     SC10787   3.305   2.487   9.387
    2ILE     BB10788   2.687   2.445   9.300
    2ILE     SC10789   2.625   2.748   9.280
    2LEU     BB10790   2.641   2.178   9.149
    2LEU     SC10791   2.629   2.125   8.842
    2ILE     BB10792   2.803   1.985   9.342
    2ILE     SC10793   3.092   2.010   9.240
    2MET     BB10794   2.635   2.049   9.602
    2MET     SC10795   2.798   2.410   9.728
    2PHE     BB10796   2.361   1.964   9.484
    2PHE     SC10797   2.184   2.140   9.334
    2PHE     SC10798   2.076   1.976   9.211
    2PHE     SC10799   1.920   2.098   9.282
    2ILE     BB10800   2.431   1.666   9.400
    2ILE     SC10801   2.522   1.673   9.105
    2GLY     BB10802   2.535   1.562   9.671
    2GLN     BB10803   2.285   1.609   9.862
    2GLN     SC10804   2.264   1.771  10.136
    2LEU     BB10805   2.049   1.476   9.672
    2LEU     SC10806   1.862   1.659   9.507
    2GLY     BB10807   2.183   1.258   9.522
    2VAL     BB10808   2.308   1.102   9.250
    2VAL     SC10809   2.552   1.046   9.327
    2SER     BB10810   2.073   0.914   9.162
    2SER     SC10811   2.168   0.693   9.296
    2ASN     BB10812   1.847   1.129   9.185
    2ASN     SC10813   1.731   1.021   9.480
    2THR     BB10814   1.984   1.335   8.987
    2THR     SC10815   2.156   1.487   9.103
    2LEU     BB10816   1.958   1.145   8.746
    2LEU     SC10817   2.277   1.023   8.716
    2LEU     BB10818   1.638   1.033   8.764
    2LEU     SC10819   1.672   0.761   8.948
    2ILE     BB10820   1.519   1.301   8.627
    2ILE     SC10821   1.590   1.490   8.844
    2PHE     BB10822   1.679   1.236   8.316
    2PHE     SC10823   1.884   1.392   8.317
    2PHE     SC10824   2.004   1.456   8.506
    2PHE     SC10825   2.148   1.366   8.383
    2LEU     BB10826   1.590   0.961   8.298
    2LEU     SC10827   1.894   0.824   8.442
    2LYS     BB10828   1.472   0.615   8.155
    2LYS     SC10829   1.470   0.819   7.905
    2LYS     SC10830   1.510   1.025   7.664
    2PRO     BB10831   1.273   0.353   8.300
    2PRO     SC10832   1.317   0.516   8.475
    2ALA     BB10833   1.070   0.313   8.035
    2ARG     BB10834   1.364   0.100   7.949
    2ARG     SC10835   1.493   0.334   7.784
    2ARG     SC10836   1.767   0.518   7.846
    2ASP     BB10837   1.288  -0.167   8.033
    2ASP     SC10838   1.280  -0.323   8.317
    2LYS     BB10839   1.431  -0.497   7.965
    2LYS     SC10840   1.615  -0.329   7.745
    2LYS     SC10841   1.809  -0.191   7.538
    2ALA     BB10842   1.250  -0.805   7.942
    2TYR     BB10843   1.520  -0.890   7.800
    2TYR     SC10844   1.490  -0.782   7.541
    2TYR     SC10845   1.688  -0.661   7.548
    2TYR     SC10846   1.596  -0.481   7.425
    2LYS     BB10847   1.783  -1.096   7.714
    2LYS     SC10848   1.773  -1.247   8.026
    2LYS     SC10849   1.729  -1.436   8.270
    2TYR     BB10850   2.117  -1.207   7.689
    2TYR     SC10851   2.104  -0.956   7.464
    2TYR     SC10852   2.057  -0.746   7.552
    2TYR     SC10853   1.979  -0.660   7.348
    2LEU     BB10854   2.408  -1.353   7.613
    2LEU     SC10855   2.242  -1.513   7.345
    2GLU     BB10856   2.706  -1.498   7.717
    2GLU     SC10857   2.644  -1.759   8.027
    2GLU     BB10858   3.009  -1.312   7.815
    2GLU     SC10859   2.921  -1.220   7.479
    2ASP     BB10860   3.351  -1.285   7.744
    2ASP     SC10861   3.524  -1.546   7.835
    2ILE     BB10862   3.547  -1.071   7.984
    2ILE     SC10863   3.430  -0.827   7.887
    2THR     BB10864   3.828  -0.944   8.071
    2THR     SC10865   4.026  -1.123   8.019
    2ILE     BB10866   3.960  -0.770   8.401
    2ILE     SC10867   3.757  -0.819   8.509
    2GLY     BB10868   4.305  -0.777   8.455
    2LYS     BB10869   5.069  -2.155   9.476
    2LYS     SC10870   4.813  -2.262   9.660
    2LYS     SC10871   4.686  -2.526   9.793
    2THR     BB10872   4.978  -1.989   9.190
    2THR     SC10873   4.787  -2.116   9.054
    2SER     BB10874   5.011  -1.689   9.297
    2SER     SC10875   4.742  -1.655   9.344
    2GLU     BB10876   5.284  -1.740   9.452
    2GLU     SC10877   5.132  -1.955   9.760
    2LYS     BB10878   5.449  -1.821   9.198
    2LYS     SC10879   5.391  -2.152   9.168
    2LYS     SC10880   5.354  -2.471   9.167
    2ILE     BB10881   5.424  -1.553   9.053
    2ILE     SC10882   5.144  -1.544   8.907
    2PHE     BB10883   5.564  -1.377   9.280
    2PHE     SC10884   5.473  -1.298   9.526
    2PHE     SC10885   5.442  -1.080   9.604
    2PHE     SC10886   5.582  -1.161   9.738
    2LEU     BB10887   5.836  -1.536   9.351
    2LEU     SC10888   5.742  -1.683   9.644
    2ILE     BB10889   5.945  -1.523   9.063
    2ILE     SC10890   5.849  -1.788   8.926
    2TYR     BB10891   5.922  -1.211   9.028
    2TYR     SC10892   5.698  -1.057   8.938
    2TYR     SC10893   5.657  -1.040   8.711
    2TYR     SC10894   5.655  -0.807   8.711
    2VAL     BB10895   6.093  -1.110   9.280
    2VAL     SC10896   5.977  -1.094   9.496
    2ALA     BB10897   6.344  -1.306   9.200
    2ILE     BB10898   6.405  -1.104   8.926
    2ILE     SC10899   6.291  -1.263   8.690
    2ILE     BB10900   6.450  -0.836   9.073
    2ILE     SC10901   6.181  -0.691   9.117
    2LEU     BB10902   6.691  -0.937   9.246
    2LEU     SC10903   6.691  -1.052   9.534
    2LEU     BB10904   6.861  -1.039   9.005
    2LEU     SC10905   6.846  -1.313   8.855
    2GLY     BB10906   6.855  -0.756   8.853
    2GLY     BB10907   6.980  -0.589   9.098
    2LEU     BB10908   7.241  -0.755   9.115
    2LEU     SC10909   7.184  -0.948   9.388
    2LEU     BB10910   7.317  -0.714   8.822
    2LEU     SC10911   7.217  -0.992   8.646
    2LEU     BB10912   7.302  -0.380   8.822
    2LEU     SC10913   7.037  -0.336   8.632
    2SER     BB10914   7.544  -0.371   9.057
    2SER     SC10915   7.432  -0.444   9.249
    2ILE     BB10916   7.752  -0.465   8.867
    2ILE     SC10917   7.743  -0.781   8.852
    2PRO     BB10918   8.043  -0.319   8.742
    2PRO     SC10919   8.138  -0.440   8.955
    2ASN     BB10920   7.997  -0.369   8.417
    2ASN     SC10921   8.141  -0.670   8.432
    2PHE     BB10922   7.709  -0.196   8.411
    2PHE     SC10923   7.616  -0.476   8.389
    2PHE     SC10924   7.491  -0.654   8.458
    2PHE     SC10925   7.630  -0.743   8.331
    2SER     BB10926   7.844   0.070   8.582
    2SER     SC10927   7.679  -0.009   8.761
    2LEU     BB10928   7.914   0.262   8.320
    2LEU     SC10929   8.193   0.049   8.371
    2THR     BB10930   8.033   0.427   8.083
    2THR     SC10931   8.136   0.662   8.144
    2LYS     BB10932   8.083   0.436   7.729
    2LYS     SC10933   7.803   0.550   7.615
    2LYS     SC10934   7.513   0.657   7.540
    2SER     BB10935   8.418   0.447   7.831
    2SER     SC10936   8.427   0.677   7.828
    2GLY     BB10937   8.445   0.282   8.130
    2SER     BB10938   8.364   0.463   8.358
    2SER     SC10939   8.496   0.688   8.410
    2LYS     BB10940   8.286   0.491   8.683
    2LYS     SC10941   8.465   0.252   8.838
    2LYS     SC10942   8.670   0.047   8.971
    2TYR     BB10943   7.956   0.423   8.830
    2TYR     SC10944   7.768   0.625   8.732
    2TYR     SC10945   7.774   0.853   8.781
    2TYR     SC10946   7.543   0.862   8.830
    2ASN     BB10947   7.800   0.438   9.123
    2ASN     SC10948   7.961   0.262   9.359
    2TRP     BB10949   7.543   0.238   9.317
    2TRP     SC10950   7.398   0.232   9.018
    2TRP     SC10951   7.448   0.290   8.822
    2TRP     SC10952   7.128   0.280   8.936
    2TRP     SC10953   7.169   0.336   8.735
    2ASP     BB10954   7.286   0.205   9.499
    2ASP     SC10955   7.190   0.525   9.576
    2PHE     BB10956   7.083  -0.015   9.654
    2PHE     SC10957   7.060  -0.117   9.916
    2PHE     SC10958   7.079  -0.348   9.924
    2PHE     SC10959   6.892  -0.310  10.011
    2LEU     BB10960   6.794   0.116   9.585
    2LEU     SC10961   6.709   0.239   9.886
    2THR     BB10962   6.842   0.182   9.277
    2THR     SC10963   6.983   0.397   9.311
    2GLY     BB10964   6.896  -0.102   9.166
    2ILE     BB10965   6.611  -0.196   9.256
    2ILE     SC10966   6.637  -0.303   9.547
    2PHE     BB10967   6.438   0.022   9.107
    2PHE     SC10968   6.372   0.278   9.152
    2PHE     SC10969   6.197   0.383   9.265
    2PHE     SC10970   6.163   0.433   9.065
    2ILE     BB10971   6.531  -0.034   8.809
    2ILE     SC10972   6.691   0.191   8.744
    2ALA     BB10973   6.501  -0.357   8.827
    2SER     BB10974   6.171  -0.304   8.880
    2SER     SC10975   6.075  -0.284   9.109
    2SER     BB10976   6.101  -0.112   8.641
    2SER     SC10977   6.124   0.133   8.649
    2GLY     BB10978   6.200  -0.317   8.413
    2PHE     BB10979   6.012  -0.577   8.525
    2PHE     SC10980   6.122  -0.803   8.574
    2PHE     SC10981   6.012  -0.934   8.728
    2PHE     SC10982   6.002  -1.048   8.554
    2SER     BB10983   5.736  -0.385   8.553
    2SER     SC10984   5.741  -0.402   8.812
    2ASP     BB10985   5.719  -0.182   8.309
    2ASP     SC10986   5.786  -0.436   8.118
    2THR     BB10987   5.729   0.138   8.408
    2THR     SC10988   5.703   0.100   8.664
    2GLY     BB10989   5.987   0.377   8.353
    2LEU     BB10990   6.092   0.467   8.608
    2LEU     SC10991   5.809   0.591   8.764
    2THR     BB10992   6.380   0.687   8.711
    2THR     SC10993   6.464   0.591   8.488
    2VAL     BB10994   6.650   0.765   8.939
    2VAL     SC10995   6.577   0.679   9.164
    2LEU     BB10996   6.846   0.673   8.714
    2LEU     SC10997   7.092   0.675   8.965
    2ASP     BB10998   6.999   0.658   8.438
    2ASP     SC10999   7.041   0.864   8.211
    2VAL     BB11000   7.057   0.485   8.116
    2VAL     SC11001   6.814   0.394   8.082
    2SER     BB11002   7.286   0.605   7.919
    2SER     SC11003   7.232   0.754   7.720
    2SER     BB11004   7.484   0.469   8.392
    2SER     SC11005   7.380   0.669   8.522
    2TYR     BB11006   7.481   0.242   8.158
    2TYR     SC11007   7.284   0.083   8.344
    2TYR     SC11008   7.092   0.155   8.453
    2TYR     SC11009   7.127   0.021   8.643
    2THR     BB11010   7.605  -0.013   8.012
    2THR     SC11011   7.862  -0.073   8.085
    2PHE     BB11012   7.537  -0.211   7.747
    2PHE     SC11013   7.681  -0.296   7.526
    2PHE     SC11014   7.543  -0.316   7.341
    2PHE     SC11015   7.618  -0.509   7.367
    2TRP     BB11016   7.502  -0.462   7.944
    2TRP     SC11017   7.775  -0.603   7.906
    2TRP     SC11018   7.965  -0.620   7.816
    2TRP     SC11019   7.723  -0.858   7.787
    2TRP     SC11020   7.913  -0.888   7.695
    2GLY     BB11021   7.281  -0.316   8.131
    2GLN     BB11022   7.090  -0.261   7.895
    2GLN     SC11023   7.273   0.100   7.753
    2LEU     BB11024   7.046  -0.568   7.842
    2LEU     SC11025   7.191  -0.754   7.643
    2ILE     BB11026   6.919  -0.622   8.121
    2ILE     SC11027   7.118  -0.721   8.296
    2LEU     BB11028   6.681  -0.431   8.075
    2LEU     SC11029   6.792  -0.135   8.207
    2LEU     BB11030   6.573  -0.597   7.831
    2LEU     SC11031   6.694  -0.448   7.561
    2LEU     BB11032   6.531  -0.868   7.987
    2LEU     SC11033   6.824  -1.033   7.924
    2LEU     BB11034   6.329  -0.752   8.190
    2LEU     SC11035   6.541  -0.697   8.456
    2ILE     BB11036   6.124  -0.638   7.979
    2ILE     SC11037   6.216  -0.349   7.913
    2GLU     BB11038   6.082  -0.912   7.836
    2GLU     SC11039   6.163  -0.997   7.526
    2PHE     BB11040   5.982  -1.071   8.092
    2PHE     SC11041   6.243  -1.215   8.127
    2PHE     SC11042   6.452  -1.245   8.222
    2PHE     SC11043   6.460  -1.364   8.049
    2GLY     BB11044   5.745  -0.871   8.186
    2GLY     BB11045   5.562  -0.806   7.908
    2ILE     BB11046   5.507  -1.139   7.872
    2ILE     SC11047   5.695  -1.158   7.632
    2GLY     BB11048   5.563  -1.284   8.117
    2VAL     BB11049   5.721  -1.504   8.331
    2VAL     SC11050   5.762  -1.430   8.562
    2LEU     BB11051   5.573  -1.782   8.251
    2LEU     SC11052   5.423  -1.835   8.543
    2THR     BB11053   5.629  -1.775   7.949
    2THR     SC11054   5.474  -1.595   7.827
    2PHE     BB11055   5.939  -1.836   7.978
    2PHE     SC11056   6.024  -1.545   7.936
    2PHE     SC11057   6.162  -1.530   7.749
    2PHE     SC11058   6.035  -1.365   7.733
    2LYS     BB11059   5.905  -2.104   8.139
    2LYS     SC11060   5.831  -2.127   8.436
    2LYS     SC11061   5.720  -2.297   8.678
    2ILE     BB11062   5.746  -2.253   7.914
    2ILE     SC11063   5.470  -2.253   7.983
    2VAL     BB11064   5.962  -2.213   7.692
    2VAL     SC11065   5.936  -1.991   7.558
    2LEU     BB11066   6.188  -2.365   7.842
    2LEU     SC11067   6.386  -2.260   8.064
    2PHE     BB11068   6.028  -2.642   7.873
    2PHE     SC11069   5.988  -2.611   8.166
    2PHE     SC11070   5.871  -2.600   8.365
    2PHE     SC11071   6.070  -2.586   8.426
    2LEU     BB11072   5.973  -2.675   7.563
    2LEU     SC11073   5.736  -2.542   7.401
    2ILE     BB11074   6.283  -2.672   7.471
    2ILE     SC11075   6.349  -2.381   7.395
    2ILE     BB11076   6.353  -2.927   7.661
    2ILE     SC11077   6.420  -2.804   7.930
    2ASN     BB11078   6.099  -3.147   7.585
    2ASN     SC11079   6.307  -3.134   7.335
    2LYS     BB11080   5.839  -3.127   7.754
    2LYS     SC11081   6.013  -3.119   8.051
    2LYS     SC11082   6.204  -3.091   8.305
    2LYS     BB11083   5.559  -3.215   7.892
    2LYS     SC11084   5.466  -3.523   7.785
    2LYS     SC11085   5.251  -3.727   7.773
    2ILE     BB11086   5.277  -3.050   7.961
    2ILE     SC11087   5.338  -2.786   7.840
    2SER     BB11088   5.134  -2.962   8.247
    2SER     SC11089   5.262  -2.995   8.458
    2ILE     BB11090   4.861  -2.887   8.431
    2ILE     SC11091   4.654  -3.063   8.355
    2SER     BB11092   5.014  -2.714   8.650
    2SER     SC11093   5.071  -2.923   8.816
    2ASP     BB11094   5.131  -2.521   8.420
    2ASP     SC11095   5.434  -2.650   8.470
    2THR     BB11096   4.856  -2.447   8.284
    2THR     SC11097   4.792  -2.622   8.100
    2ILE     BB11098   4.746  -2.306   8.542
    2ILE     SC11099   4.634  -2.530   8.730
    2VAL     BB11100   4.973  -2.090   8.556
    2VAL     SC11101   5.186  -2.150   8.680
    2ALA     BB11102   4.945  -2.004   8.237
    2GLN     BB11103   4.628  -1.886   8.301
    2GLN     SC11104   4.335  -2.105   8.417
    2SER     BB11105   4.667  -1.675   8.540
    2SER     SC11106   4.672  -1.747   8.779
    2GLU     BB11107   4.878  -1.482   8.400
    2GLU     SC11108   5.229  -1.493   8.438
    2ARG     BB11109   4.663  -1.445   8.138
    2ARG     SC11110   4.872  -1.584   7.935
    2ARG     SC11111   5.102  -1.507   7.701
    2GLY     BB11112   4.364  -1.405   8.273
    2SER     BB11113   4.208  -1.680   8.255
    2SER     SC11114   4.228  -1.795   8.020
    2ALA     BB11115   3.879  -1.848   8.268
    2THR     BB11116   4.068  -2.084   8.086
    2THR     SC11117   3.892  -2.149   7.919
    2THR     BB11118   4.262  -2.391   7.983
    2THR     SC11119   4.249  -2.499   8.206
    2SER     BB11120   4.231  -2.344   7.683
    2SER     SC11121   4.021  -2.361   7.559
    2LEU     BB11122   4.512  -2.360   7.499
    2LEU     SC11123   4.372  -2.565   7.278
    2THR     BB11124   4.736  -2.160   7.655
    2THR     SC11125   4.612  -2.168   7.874
    2ILE     BB11126   4.998  -2.246   7.505
    2ILE     SC11127   5.086  -2.446   7.682
    2ASP     BB11128   4.919  -2.129   7.226
    2ASP     SC11129   4.819  -2.435   7.139
    2LEU     BB11130   4.911  -1.835   7.333
    2LEU     SC11131   4.672  -1.677   7.450
    2ILE     BB11132   5.216  -1.847   7.401
    2ILE     SC11133   5.254  -1.962   7.684
    2LYS     BB11134   5.328  -1.910   7.118
    2LYS     SC11135   5.291  -2.251   7.093
    2LYS     SC11136   5.219  -2.558   7.105
    2ASP     BB11137   5.200  -1.675   6.957
    2ASP     SC11138   4.978  -1.830   6.763
    2GLY     BB11139   5.289  -1.449   7.145
    2PHE     BB11140   5.604  -1.492   7.118
    2PHE     SC11141   5.784  -1.611   7.290
    2PHE     SC11142   5.943  -1.719   7.158
    2PHE     SC11143   6.056  -1.584   7.272
    2ILE     BB11144   5.619  -1.500   6.802
    2ILE     SC11145   5.586  -1.797   6.717
    2TRP     BB11146   5.489  -1.218   6.755
    2TRP     SC11147   5.218  -1.306   6.647
    2TRP     SC11148   5.074  -1.455   6.602
    2TRP     SC11149   5.277  -1.320   6.364
    2TRP     SC11150   5.150  -1.482   6.317
    2LEU     BB11151   5.686  -1.050   6.922
    2LEU     SC11152   5.521  -1.040   7.215
    2THR     BB11153   5.966  -1.125   6.787
    2THR     SC11154   6.043  -1.334   6.923
    2SER     BB11155   5.874  -1.060   6.503
    2SER     SC11156   5.733  -1.213   6.356
    2VAL     BB11157   5.786  -0.759   6.546
    2VAL     SC11158   5.528  -0.725   6.563
    2GLN     BB11159   6.045  -0.661   6.685
    2GLN     SC11160   6.003  -0.795   7.084
    2VAL     BB11161   6.237  -0.729   6.448
    2VAL     SC11162   6.354  -0.957   6.472
    2ILE     BB11163   6.087  -0.592   6.196
    2ILE     SC11164   5.879  -0.774   6.095
    2SER     BB11165   6.034  -0.309   6.323
    2SER     SC11166   5.810  -0.259   6.438
    2ALA     BB11167   6.317  -0.253   6.485
    2PHE     BB11168   6.572  -0.340   6.279
    2PHE     SC11169   6.719  -0.559   6.280
    2PHE     SC11170   6.939  -0.517   6.348
    2PHE     SC11171   6.956  -0.574   6.146
    2ILE     BB11172   6.446  -0.214   6.020
    2ILE     SC11173   6.386  -0.477   5.860
    2LEU     BB11174   6.270   0.066   6.086
    2LEU     SC11175   5.979  -0.052   5.955
    2PHE     BB11176   6.517   0.186   6.285
    2PHE     SC11177   6.319   0.223   6.492
    2PHE     SC11178   6.175   0.099   6.626
    2PHE     SC11179   6.062   0.266   6.570
    2PHE     BB11180   6.682   0.143   6.000
    2PHE     SC11181   6.873  -0.037   5.969
    2PHE     SC11182   7.094   0.004   6.032
    2PHE     SC11183   7.108  -0.049   5.829
    2LEU     BB11184   6.548   0.417   5.864
    2LEU     SC11185   6.342   0.206   5.693
    2PHE     BB11186   6.537   0.589   6.141
    2PHE     SC11187   6.376   0.786   5.926
    2PHE     SC11188   6.227   0.661   5.797
    2PHE     SC11189   6.284   0.817   5.671
    2PHE     BB11190   6.666   0.857   6.361
    2PHE     SC11191   6.907   0.687   6.476
    2PHE     SC11192   6.889   0.482   6.588
    2PHE     SC11193   7.022   0.597   6.705
    2PHE     BB11194   6.700   1.089   6.607
    2PHE     SC11195   6.639   0.859   6.833
    2PHE     SC11196   6.426   0.807   6.906
    2PHE     SC11197   6.518   0.619   6.884
    2ASN     BB11198   6.925   1.251   6.819
    2ASN     SC11199   6.825   1.503   6.926
    2GLN     BB11200   7.196   1.387   6.950
    2GLN     SC11201   7.535   1.264   6.894
    2PRO     BB11202   7.351   1.355   7.300
    2PRO     SC11203   7.269   1.165   7.256
    2SER     BB11204   7.631   1.511   7.173
    2SER     SC11205   7.790   1.415   7.331
    2ASN     BB11206   7.617   1.728   6.991
    2ASN     SC11207   7.943   1.807   7.090
    2ASN     BB11208   7.658   1.759   6.601
    2ASN     SC11209   7.378   1.900   6.680
    2PRO     BB11210   7.809   1.513   6.405
    2PRO     SC11211   7.850   1.451   6.626
    2ASN     BB11212   7.523   1.440   6.287
    2ASN     SC11213   7.563   1.187   6.488
    2LEU     BB11214   7.404   1.494   5.937
    2LEU     SC11215   7.682   1.671   5.938
    2GLU     BB11216   7.153   1.303   5.992
    2GLU     SC11217   7.382   1.031   5.765
    2VAL     BB11218   6.793   1.163   5.976
    2VAL     SC11219   6.726   1.389   5.911
    2VAL     BB11220   6.872   0.893   5.938
    2VAL     SC11221   6.873   0.887   5.665
    2SER     BB11222   7.013   0.602   5.944
    2SER     SC11223   6.854   0.423   5.913
    2PRO     BB11224   7.322   0.549   6.087
    2PRO     SC11225   7.275   0.339   5.983
    2TYR     BB11226   7.424   0.833   6.236
    2TYR     SC11227   7.241   0.998   6.316
    2TYR     SC11228   7.023   1.050   6.371
    2TYR     SC11229   7.065   1.036   6.603
    2ASP     BB11230   7.628   0.432   6.361
    2ASP     SC11231   7.951   0.347   6.383
    2PHE     BB11232   7.618   0.086   6.425
    2PHE     SC11233   7.666   0.001   6.137
    2PHE     SC11234   7.786   0.128   5.983
    2PHE     SC11235   7.612   0.073   5.879
    2TRP     BB11236   7.676   0.029   6.736
    2TRP     SC11237   7.958  -0.085   6.726
    2TRP     SC11238   8.118  -0.163   6.612
    2TRP     SC11239   7.934  -0.357   6.822
    2TRP     SC11240   8.093  -0.443   6.711
    2LYS     BB11241   7.439   0.226   6.826
    2LYS     SC11242   7.643   0.406   6.973
    2LYS     SC11243   7.865   0.366   7.201
    2SER     BB11244   7.195   0.187   6.624
    2SER     SC11245   7.174   0.304   6.402
    2LEU     BB11246   7.120  -0.120   6.645
    2LEU     SC11247   7.295  -0.243   6.374
    2TRP     BB11248   7.081  -0.116   6.951
    2TRP     SC11249   7.261  -0.157   7.151
    2TRP     SC11250   7.263  -0.096   7.353
    2TRP     SC11251   7.148  -0.402   7.255
    2TRP     SC11252   7.146  -0.346   7.460
    2PHE     BB11253   6.863   0.114   6.984
    2PHE     SC11254   7.062   0.298   7.116
    2PHE     SC11255   7.202   0.482   7.140
    2PHE     SC11256   7.257   0.361   7.301
    2ALA     BB11257   6.672   0.013   6.745
    2VAL     BB11258   6.608  -0.251   6.952
    2VAL     SC11259   6.756  -0.447   6.874
    2PHE     BB11260   6.558  -0.135   7.244
    2PHE     SC11261   6.757  -0.059   7.446
    2PHE     SC11262   6.614   0.080   7.568
    2PHE     SC11263   6.705  -0.035   7.715
    2SER     BB11264   6.102  -0.205   7.115
    2SER     SC11265   6.087  -0.294   6.888
    2THR     BB11266   6.111  -0.378   7.369
    2THR     SC11267   6.311  -0.552   7.367
    2SER     BB11268   6.005  -0.137   7.523
    2SER     SC11269   6.149   0.049   7.613
    2ALA     BB11270   5.756  -0.059   7.325
    2VAL     BB11271   5.585  -0.357   7.322
    2VAL     SC11272   5.661  -0.500   7.121
    2ASN     BB11273   5.598  -0.372   7.663
    2ASN     SC11274   5.793  -0.622   7.592
    2ASN     BB11275   5.553  -0.074   7.799
    2ASN     SC11276   5.252  -0.082   7.685
    2ALA     BB11277   5.852   0.019   7.946
    2GLY     BB11278   5.954   0.366   7.900
    2PHE     BB11279   6.243   0.306   7.797
    2PHE     SC11280   6.375   0.168   8.049
    2PHE     SC11281   6.224   0.090   8.210
    2PHE     SC11282   6.401   0.122   8.318
    2ASP     BB11283   6.462   0.509   7.721
    2ASP     SC11284   6.422   0.730   7.471
    2ILE     BB11285   6.808   0.534   7.622
    2ILE     SC11286   6.911   0.318   7.546
    2ILE     BB11287   6.775   0.851   7.603
    2ILE     SC11288   6.851   0.882   7.301
    2SER     BB11289   6.859   1.088   7.846
    2SER     SC11290   7.098   1.051   7.893
    2PRO     BB11291   6.780   1.407   7.785
    2PRO     SC11292   6.994   1.363   7.653
    2ASN     BB11293   6.523   1.257   7.633
    2ASN     SC11294   6.567   1.559   7.516
    2SER     BB11295   6.209   1.068   7.634
    2SER     SC11296   6.231   1.003   7.876
    2LEU     BB11297   6.162   1.149   7.281
    2LEU     SC11298   6.011   0.902   7.175
    2GLN     BB11299   6.149   1.468   7.208
    2GLN     SC11300   6.126   1.622   7.597
    2PRO     BB11301   6.331   1.500   6.926
    2PRO     SC11302   6.489   1.415   7.109
    2TYR     BB11303   6.061   1.333   6.778
    2TYR     SC11304   6.157   1.135   6.650
    2TYR     SC11305   6.352   1.111   6.536
    2TYR     SC11306   6.247   0.998   6.357
    2ASN     BB11307   5.822   1.575   6.761
    2ASN     SC11308   5.629   1.572   6.955
    2VAL     BB11309   5.945   1.817   6.536
    2VAL     SC11310   6.012   1.972   6.701
    2ASP     BB11311   6.104   1.675   6.311
    2ASP     SC11312   6.393   1.694   6.225
    2ASN     BB11313   5.919   1.632   6.029
    2ASN     SC11314   5.687   1.783   5.937
    2ARG     BB11315   6.132   1.218   6.080
    2ARG     SC11316   6.397   1.313   6.229
    2ARG     SC11317   6.575   1.505   6.487
    2VAL     BB11318   5.883   1.186   6.301
    2VAL     SC11319   5.755   1.396   6.333
    2TYR     BB11320   5.708   0.938   6.184
    2TYR     SC11321   5.620   0.910   5.923
    2TYR     SC11322   5.389   0.896   5.904
    2TYR     SC11323   5.394   0.686   5.797
    2ALA     BB11324   5.898   0.677   6.239
    2ILE     BB11325   5.867   0.680   6.579
    2ILE     SC11326   6.134   0.744   6.651
    2GLN     BB11327   5.565   0.740   6.605
    2GLN     SC11328   5.344   0.942   6.508
    2VAL     BB11329   5.439   0.495   6.439
    2VAL     SC11330   5.368   0.556   6.200
    2ILE     BB11331   5.610   0.244   6.527
    2ILE     SC11332   5.832   0.228   6.304
    2PHE     BB11333   5.578   0.262   6.832
    2PHE     SC11334   5.851   0.330   6.926
    2PHE     SC11335   6.035   0.467   6.900
    2PHE     SC11336   6.117   0.275   6.908
    2MET     BB11337   5.267   0.275   6.838
    2MET     SC11338   5.130   0.662   6.837
    2LEU     BB11339   5.228   0.002   6.701
    2LEU     SC11340   5.254  -0.074   6.396
    2GLU     BB11341   5.378  -0.164   6.920
    2GLU     SC11342   5.781  -0.134   6.790
    2TRP     BB11343   5.234  -0.051   7.199
    2TRP     SC11344   5.364   0.203   7.255
    2TRP     SC11345   5.460   0.383   7.205
    2TRP     SC11346   5.131   0.363   7.281
    2TRP     SC11347   5.223   0.551   7.238
    2ILE     BB11348   4.934  -0.092   7.126
    2ILE     SC11349   4.832   0.173   7.001
    2ILE     BB11350   4.944  -0.399   7.046
    2ILE     SC11351   4.965  -0.414   6.738
    2GLY     BB11352   5.084  -0.492   7.315
    2GLY     BB11353   4.867  -0.374   7.494
    2LEU     BB11354   4.678  -0.540   7.367
    2LEU     SC11355   4.452  -0.322   7.190
    2GLY     BB11356   4.552  -0.839   7.312
    2TYR     BB11357   4.631  -1.163   7.298
    2TYR     SC11358   4.907  -1.162   7.433
    2TYR     SC11359   5.010  -1.090   7.630
    2TYR     SC11360   5.198  -0.999   7.519
    2PRO     BB11361   4.348  -1.231   7.223
    2PRO     SC11362   4.336  -1.253   7.487
    2THR     BB11363   4.318  -1.000   7.006
    2THR     SC11364   4.260  -0.763   7.115
    2PHE     BB11365   4.557  -1.100   6.829
    2PHE     SC11366   4.798  -1.000   6.775
    2PHE     SC11367   5.022  -0.952   6.776
    2PHE     SC11368   4.983  -0.983   6.572
    2ASP     BB11369   4.163  -1.344   6.703
    2ASP     SC11370   3.908  -1.341   6.864
    2ILE     BB11371   4.250  -1.168   6.485
    2ILE     SC11372   4.271  -0.866   6.544
    2LYS     BB11373   4.458  -1.365   6.328
    2LYS     SC11374   4.723  -1.375   6.327
    2LYS     SC11375   4.894  -1.385   6.054
    2ARG     BB11376   4.237  -1.607   6.288
    2ARG     SC11377   4.207  -1.832   6.494
    2ARG     SC11378   4.071  -2.164   6.596
    2LYS     BB11379   3.969  -1.441   6.186
    2LYS     SC11380   3.812  -1.516   6.444
    2LYS     SC11381   3.638  -1.736   6.594
    2LEU     BB11382   4.087  -1.253   5.950
    2LEU     SC11383   4.260  -0.979   5.985
    2LYS     BB11384   4.232  -1.462   5.763
    2LYS     SC11385   4.475  -1.631   5.862
    2LYS     SC11386   4.685  -1.867   5.856
    2ALA     BB11387   3.934  -1.613   5.675
    2ARG     BB11388   3.796  -1.262   5.569
    2ARG     SC11389   3.567  -1.397   5.740
    2ARG     SC11390   3.273  -1.570   5.887
    2LYS     BB11391   3.958  -1.074   5.398
    2LYS     SC11392   4.249  -0.965   5.474
    2LYS     SC11393   4.523  -0.801   5.460
    2THR     BB11394   3.774  -0.749   5.422
    2THR     SC11395   3.912  -0.638   5.264
    2LYS     BB11396   3.505  -0.868   5.639
    2LYS     SC11397   3.371  -0.925   5.354
    2LYS     SC11398   3.222  -0.933   5.072
    2GLU     BB11399   3.630  -0.904   5.966
    2GLU     SC11400   3.872  -0.836   5.841
    2LYS     BB11401   3.407  -0.751   6.198
    2LYS     SC11402   3.477  -0.501   5.998
    2LYS     SC11403   3.573  -0.317   5.756
    2ILE     BB11404   3.248  -1.015   6.331
    2ILE     SC11405   3.063  -0.971   6.128
    2ASN     BB11406   3.443  -1.285   6.442
    2ASN     SC11407   3.509  -1.376   6.179
    2PHE     BB11408   3.487  -1.138   6.725
    2PHE     SC11409   3.723  -1.011   6.575
    2PHE     SC11410   3.766  -0.825   6.444
    2PHE     SC11411   3.894  -0.972   6.365
    2SER     BB11412   3.527  -1.117   7.040
    2SER     SC11413   3.687  -1.234   7.177
    2LEU     BB11414   3.403  -0.924   7.289
    2LEU     SC11415   3.166  -0.878   7.433
    2PHE     BB11416   3.678  -0.841   7.384
    2PHE     SC11417   3.874  -0.980   7.518
    2PHE     SC11418   3.946  -0.869   7.707
    2PHE     SC11419   4.117  -0.878   7.586
    2THR     BB11420   3.792  -0.760   7.100
    2THR     SC11421   3.897  -0.966   6.976
    2LYS     BB11422   3.567  -0.545   7.042
    2LYS     SC11423   3.317  -0.725   6.929
    2LYS     SC11424   3.163  -0.709   6.715
    2ILE     BB11425   3.603  -0.368   7.288
    2ILE     SC11426   3.408  -0.425   7.496
    2ASN     BB11427   3.904  -0.314   7.246
    2ASN     SC11428   4.028  -0.522   7.464
    2PHE     BB11429   3.880  -0.189   6.953
    2PHE     SC11430   3.833  -0.303   6.706
    2PHE     SC11431   4.002  -0.230   6.562
    2PHE     SC11432   3.827  -0.161   6.472
    2TRP     BB11433   3.668   0.042   7.014
    2TRP     SC11434   3.441  -0.057   6.826
    2TRP     SC11435   3.382  -0.197   6.677
    2TRP     SC11436   3.431   0.134   6.610
    2TRP     SC11437   3.368   0.001   6.456
    2VAL     BB11438   3.783   0.165   7.286
    2VAL     SC11439   3.672   0.059   7.493
    2TYR     BB11440   4.069   0.249   7.201
    2TYR     SC11441   4.212   0.039   7.083
    2TYR     SC11442   4.380   0.124   6.946
    2TYR     SC11443   4.298   0.018   6.752
    2LEU     BB11444   3.981   0.439   6.966
    2LEU     SC11445   3.886   0.353   6.675
    2VAL     BB11446   3.787   0.632   7.125
    2VAL     SC11447   3.538   0.568   7.088
    2LEU     BB11448   3.994   0.707   7.360
    2LEU     SC11449   3.980   0.603   7.653
    2PHE     BB11450   4.198   0.785   7.099
    2PHE     SC11451   4.393   0.593   7.198
    2PHE     SC11452   4.525   0.412   7.155
    2PHE     SC11453   4.575   0.459   7.353
    2ILE     BB11454   3.999   1.046   7.036
    2ILE     SC11455   3.882   0.914   6.782
    2PHE     BB11456   3.947   1.193   7.299
    2PHE     SC11457   3.795   1.139   7.521
    2PHE     SC11458   3.638   1.308   7.551
    2PHE     SC11459   3.752   1.314   7.727
    2GLY     BB11460   4.241   1.249   7.378
    2PRO     BB11461   4.345   1.439   7.136
    2PRO     SC11462   4.375   1.198   7.041
    2LEU     BB11463   4.124   1.650   7.197
    2LEU     SC11464   3.851   1.644   7.019
    2ALA     BB11465   4.190   1.681   7.521
    2VAL     BB11466   4.507   1.784   7.438
    2VAL     SC11467   4.677   1.598   7.496
    2PHE     BB11468   4.453   1.994   7.227
    2PHE     SC11469   4.464   1.966   6.933
    2PHE     SC11470   4.341   2.141   6.841
    2PHE     SC11471   4.514   2.135   6.724
    2ALA     BB11472   4.213   2.174   7.370
    2THR     BB11473   4.426   2.230   7.630
    2THR     SC11474   4.357   2.071   7.825
    2GLU     BB11475   4.704   2.218   7.433
    2GLU     SC11476   4.850   2.145   7.762
    2TYR     BB11477   4.683   2.533   7.274
    2TYR     SC11478   4.542   2.465   7.037
    2TYR     SC11479   4.480   2.656   6.920
    2TYR     SC11480   4.561   2.579   6.713
    2SER     BB11481   4.783   2.790   7.491
    2SER     SC11482   4.560   2.827   7.559
    2ASN     BB11483   5.052   2.690   7.623
    2ASN     SC11484   5.092   2.558   7.897
    2TYR     BB11485   5.382   2.786   7.614
    2TYR     SC11486   5.528   3.007   7.584
    2TYR     SC11487   5.610   3.018   7.365
    2TYR     SC11488   5.837   3.016   7.429
    2ASN     BB11489   5.531   2.549   7.776
    2ASN     SC11490   5.513   2.725   8.059
    2ASN     BB11491   5.355   2.382   7.603
    2ASN     SC11492   5.438   2.085   7.788
    2SER     BB11493   5.192   2.262   7.351
    2SER     SC11494   5.003   2.475   7.339
    2LEU     BB11495   5.047   2.332   6.986
    2LEU     SC11496   4.997   2.051   7.040
    2ILE     BB11497   5.114   2.590   6.744
    2ILE     SC11498   4.962   2.777   6.863
    2PHE     BB11499   4.990   2.777   6.458
    2PHE     SC11500   5.154   2.674   6.221
    2PHE     SC11501   5.358   2.780   6.190
    2PHE     SC11502   5.273   2.778   5.998
    2TYR     BB11503   5.248   3.214   6.012
    2TYR     SC11504   5.030   3.168   5.798
    2TYR     SC11505   4.800   3.128   5.799
    2TYR     SC11506   4.813   2.958   5.636
    2TYR     BB11507   5.323   3.461   6.252
    2TYR     SC11508   5.312   3.634   6.015
    2TYR     SC11509   5.138   3.663   5.864
    2TYR     SC11510   5.281   3.714   5.684
    2ASP     BB11511   5.467   3.334   6.477
    2ASP     SC11512   5.338   3.053   6.435
    2GLU     BB11513   5.745   3.192   6.604
    2GLU     SC11514   5.813   3.203   7.020
    2ASN     BB11515   5.826   2.868   6.609
    2ASN     SC11516   6.075   2.898   6.779
    2PHE     BB11517   5.988   2.547   6.687
    2PHE     SC11518   5.808   2.486   6.452
    2PHE     SC11519   5.853   2.471   6.224
    2PHE     SC11520   5.686   2.597   6.234
    2THR     BB11521   5.989   2.394   7.026
    2THR     SC11522   5.941   2.599   7.138
    2VAL     BB11523   5.716   2.193   7.032
    2VAL     SC11524   5.883   1.987   7.069
    2LEU     BB11525   5.595   2.433   7.235
    2LEU     SC11526   5.718   2.203   7.462
    2ASN     BB11527   5.336   2.608   7.071
    2ASN     SC11528   5.214   2.825   7.236
    2ALA     BB11529   5.590   2.623   6.897
    2LYS     BB11530   5.401   2.424   6.613
    2LYS     SC11531   5.438   2.159   6.762
    2LYS     SC11532   5.534   1.908   6.836
    2SER     BB11533   5.319   2.291   6.336
    2SER     SC11534   5.406   2.329   6.092
    2ASN     BB11535   5.004   2.167   6.201
    2ASN     SC11536   4.838   2.443   6.219
    2THR     BB11537   5.139   1.877   6.176
    2THR     SC11538   5.205   1.855   5.924
    2VAL     BB11539   5.299   1.840   6.463
    2VAL     SC11540   5.538   1.894   6.379
    2VAL     BB11541   5.052   1.866   6.650
    2VAL     SC11542   4.968   2.107   6.592
    2PHE     BB11543   4.935   1.581   6.589
    2PHE     SC11544   4.806   1.479   6.371
    2PHE     SC11545   4.598   1.415   6.451
    2PHE     SC11546   4.682   1.237   6.377
    2MET     BB11547   5.180   1.406   6.693
    2MET     SC11548   5.290   1.316   6.353
    2ASP     BB11549   5.142   1.474   6.998
    2ASP     SC11550   5.283   1.625   7.188
    2ILE     BB11551   4.837   1.423   7.060
    2ILE     SC11552   4.681   1.633   6.922
    2LEU     BB11553   4.865   1.129   6.978
    2LEU     SC11554   4.813   1.011   6.697
    2PHE     BB11555   5.098   1.044   7.182
    2PHE     SC11556   5.362   1.017   7.144
    2PHE     SC11557   5.484   0.851   7.035
    2PHE     SC11558   5.545   0.836   7.235
    2ASN     BB11559   5.016   1.154   7.484
    2ASN     SC11560   5.073   1.395   7.631
    2THR     BB11561   4.729   0.980   7.476
    2THR     SC11562   4.622   1.149   7.338
    2THR     BB11563   4.864   0.693   7.429
    2THR     SC11564   4.842   0.729   7.164
    2ALA     BB11565   5.152   0.694   7.616
    2SER     BB11566   4.961   0.656   7.914
    2SER     SC11567   4.801   0.829   7.871
    2ARG     BB11568   4.862   0.348   7.797
    2ARG     SC11569   4.576   0.396   7.821
    2ARG     SC11570   4.342   0.353   7.577
    2ASN     BB11571   5.178   0.235   7.914
    2ASN     SC11572   4.938   0.118   8.096
    2ALA     BB11573   5.431   0.352   7.713
    2GLY     BB11574   5.625   0.629   7.874
    2PHE     BB11575   5.670   0.834   7.654
    2PHE     SC11576   5.781   0.597   7.473
    2PHE     SC11577   5.978   0.488   7.531
    2PHE     SC11578   5.857   0.335   7.458
    2SER     BB11579   5.826   1.167   7.569
    2SER     SC11580   5.840   1.200   7.829
    2THR     BB11581   5.744   1.426   7.348
    2THR     SC11582   5.560   1.296   7.226
    2ILE     BB11583   5.715   1.595   7.596
    2ILE     SC11584   5.472   1.663   7.535
    2ASP     BB11585   5.642   1.754   7.881
    2ASP     SC11586   5.871   1.800   8.096
    2ILE     BB11587   5.470   1.703   8.197
    2ILE     SC11588   5.399   1.432   8.133
    2SER     BB11589   5.507   1.957   8.387
    2SER     SC11590   5.713   1.977   8.529
    2THR     BB11591   5.420   2.230   8.193
    2THR     SC11592   5.657   2.252   8.122
    2PHE     BB11593   5.137   2.174   8.218
    2PHE     SC11594   5.110   1.948   7.995
    2PHE     SC11595   5.160   1.729   7.939
    2PHE     SC11596   5.143   1.823   7.752
    2ASN     BB11597   4.827   2.161   8.271
    2ASN     SC11598   4.583   2.371   8.216
    2SER     BB11599   4.630   2.052   8.523
    2SER     SC11600   4.625   2.255   8.683
    2GLY     BB11601   4.401   1.934   8.342
    2SER     BB11602   4.578   1.735   8.167
    2SER     SC11603   4.725   1.885   8.030
    2LYS     BB11604   4.691   1.579   8.412
    2LYS     SC11605   4.974   1.758   8.462
    2LYS     SC11606   5.140   1.976   8.587
    2ALA     BB11607   4.392   1.512   8.532
    2ILE     BB11608   4.334   1.321   8.246
    2ILE     SC11609   4.166   1.416   8.071
    2LEU     BB11610   4.590   1.139   8.258
    2LEU     SC11611   4.807   1.301   8.052
    2SER     BB11612   4.520   0.994   8.530
    2SER     SC11613   4.560   1.098   8.757
    2ILE     BB11614   4.266   0.838   8.427
    2ILE     SC11615   3.999   0.950   8.420
    2LEU     BB11616   4.415   0.729   8.151
    2LEU     SC11617   4.397   0.880   7.886
    2MET     BB11618   4.634   0.558   8.362
    2MET     SC11619   4.912   0.828   8.414
    2PHE     BB11620   4.441   0.388   8.532
    2PHE     SC11621   4.333   0.444   8.771
    2PHE     SC11622   4.116   0.391   8.836
    2PHE     SC11623   4.235   0.271   8.959
    2ILE     BB11624   4.353   0.312   8.248
    2ILE     SC11625   4.069   0.387   8.210
    2GLY     BB11626   4.456   0.072   8.083
    2SER     BB11627   4.585  -0.151   7.828
    2SER     SC11628   4.597  -0.024   7.602
    2ALA     BB11629   4.446  -0.436   7.830
    2PRO     BB11630   4.442  -0.767   8.025
    2PRO     SC11631   4.207  -0.695   8.010
    2SER     BB11632   4.676  -0.973   7.908
    2SER     SC11633   4.655  -0.893   7.672
    2SER     BB11634   4.962  -0.803   7.927
    2SER     SC11635   4.789  -0.613   7.971
    2THR     BB11636   5.200  -0.575   7.942
    2THR     SC11637   5.233  -0.490   7.697
    2ALA     BB11638   5.044  -0.329   8.107
    2GLY     BB11639   4.858  -0.232   8.424
    2GLY     BB11640   4.614  -0.169   8.654
    2ILE     BB11641   4.366  -0.116   8.536
    2ILE     SC11642   4.123  -0.034   8.697
    2ARG     BB11643   4.155  -0.209   8.275
    2ARG     SC11644   4.419  -0.415   8.300
    2ARG     SC11645   4.707  -0.554   8.502
    2THR     BB11646   3.958  -0.128   8.005
    2THR     SC11647   4.110  -0.044   7.809
    2THR     BB11648   3.718  -0.334   8.062
    2THR     SC11649   3.821  -0.531   7.940
    2THR     BB11650   3.681  -0.268   8.365
    2THR     SC11651   3.895  -0.370   8.494
    2PHE     BB11652   3.572   0.011   8.312
    2PHE     SC11653   3.704   0.253   8.231
    2PHE     SC11654   3.631   0.414   8.383
    2PHE     SC11655   3.597   0.501   8.196
    2GLY     BB11656   3.344  -0.072   8.112
    2VAL     BB11657   3.191  -0.270   8.308
    2VAL     SC11658   3.285  -0.512   8.301
    2LEU     BB11659   3.141  -0.057   8.530
    2LEU     SC11660   3.329   0.046   8.758
    2LEU     BB11661   3.008   0.174   8.357
    2LEU     SC11662   3.186   0.417   8.242
    2LEU     BB11663   2.781  -0.016   8.224
    2LEU     SC11664   2.911  -0.019   7.912
    2SER     BB11665   2.667  -0.105   8.491
    2SER     SC11666   2.761  -0.293   8.637
    2THR     BB11667   2.581   0.177   8.597
    2THR     SC11668   2.744   0.273   8.774
    2PHE     BB11669   2.418   0.255   8.337
    2PHE     SC11670   2.492   0.322   8.085
    2PHE     SC11671   2.407   0.529   8.022
    2PHE     SC11672   2.324   0.396   7.882
    2THR     BB11673   2.224   0.019   8.381
    2THR     SC11674   2.310  -0.198   8.258
    2ILE     BB11675   2.133   0.084   8.687
    2ILE     SC11676   2.337  -0.057   8.866
    2ILE     BB11677   2.012   0.374   8.635
    2ILE     SC11678   2.247   0.548   8.586
    2LYS     BB11679   1.791   0.332   8.414
    2LYS     SC11680   1.850   0.222   8.127
    2LYS     SC11681   1.908  -0.006   7.971
    2ASN     BB11682   1.681   0.035   8.419
    2ASN     SC11683   1.828  -0.093   8.705
    2GLN     BB11684   1.844  -0.293   8.373
    2GLN     SC11685   1.911  -0.386   7.996
    2LYS     BB11686   1.881  -0.612   8.507
    2LYS     SC11687   1.573  -0.688   8.576
    2LYS     SC11688   1.295  -0.770   8.694
    2PHE     BB11689   2.110  -0.652   8.273
    2PHE     SC11690   2.075  -0.962   8.355
    2PHE     SC11691   1.858  -1.022   8.414
    2PHE     SC11692   1.979  -1.137   8.540
    2THR     BB11693   2.435  -0.637   8.158
    2THR     SC11694   2.567  -0.552   8.357
    2SER     BB11695   2.507  -0.471   7.833
    2SER     SC11696   2.337  -0.625   7.704
    2ALA     BB11697   2.736  -0.522   7.550
    2PHE     BB11698   2.645  -0.548   7.188
    2PHE     SC11699   2.899  -0.485   7.078
    2PHE     SC11700   3.101  -0.393   7.148
    2PHE     SC11701   3.067  -0.304   6.960
    2ARG     BB11702   2.386  -0.747   7.273
    2ARG     SC11703   2.204  -0.593   7.064
    2ARG     SC11704   2.047  -0.317   6.954
    2LYS     BB11705   2.539  -0.873   7.520
    2LYS     SC11706   2.593  -1.053   7.237
    2LYS     SC11707   2.678  -0.921   6.980
    2THR     BB11708   2.586  -1.049   7.829
    2THR     SC11709   2.329  -1.012   7.925
    2ILE     BB11710   2.711  -0.985   8.148
    2ILE     SC11711   2.932  -0.780   8.071
    2PRO     BB11712   2.819  -1.148   8.404
    2PRO     SC11713   2.849  -1.334   8.239
    2SER     BB11714   2.834  -1.124   8.755
    2SER     SC11715   2.647  -1.141   8.913
    2GLU     BB11716   3.132  -1.208   8.801
    2GLU     SC11717   3.293  -1.572   8.816
    2THR     BB11718   3.265  -0.985   8.623
    2THR     SC11719   3.254  -1.056   8.373
    2VAL     BB11720   3.152  -0.751   8.790
    2VAL     SC11721   2.904  -0.694   8.712
    2ASN     BB11722   3.282  -0.827   9.072
    2ASN     SC11723   3.009  -0.915   9.235
    2ARG     BB11724   3.579  -0.850   8.968
    2ARG     SC11725   3.606  -1.173   8.872
    2ARG     SC11726   3.704  -1.496   8.941
    2SER     BB11727   3.591  -0.553   8.866
    2SER     SC11728   3.495  -0.476   8.651
    2TYR     BB11729   3.534  -0.418   9.146
    2TYR     SC11730   3.248  -0.346   9.116
    2TYR     SC11731   3.035  -0.410   9.048
    2TYR     SC11732   2.980  -0.198   8.960
    2ALA     BB11733   3.773  -0.575   9.294
    2ALA     BB11734   4.000  -0.441   9.059
    2PHE     BB11735   3.906  -0.116   9.140
    2PHE     SC11736   3.675   0.005   9.064
    2PHE     SC11737   3.716   0.211   8.962
    2PHE     SC11738   3.600   0.259   9.131
    2PHE     BB11739   3.939  -0.097   9.452
    2PHE     SC11740   3.798  -0.193   9.661
    2PHE     SC11741   3.807  -0.002   9.794
    2PHE     SC11742   3.917  -0.145   9.902
    2ILE     BB11743   4.235  -0.193   9.517
    2ILE     SC11744   4.218  -0.502   9.539
    2SER     BB11745   4.378   0.019   9.335
    2SER     SC11746   4.277  -0.049   9.120
    2THR     BB11747   4.254   0.280   9.459
    2THR     SC11748   4.024   0.343   9.345
    2PHE     BB11749   4.358   0.221   9.745
    2PHE     SC11750   4.187   0.114   9.947
    2PHE     SC11751   4.325   0.042  10.120
    2PHE     SC11752   4.182   0.161  10.216
    2LEU     BB11753   4.666   0.197   9.675
    2LEU     SC11754   4.709  -0.138   9.650
    2ILE     BB11755   4.680   0.485   9.562
    2ILE     SC11756   4.623   0.481   9.257
    2PHE     BB11757   4.584   0.626   9.822
    2PHE     SC11758   4.335   0.704   9.903
    2PHE     SC11759   4.351   0.668  10.132
    2PHE     SC11760   4.324   0.875  10.114
    2ILE     BB11761   4.803   0.512  10.017
    2ILE     SC11762   4.699   0.297  10.165
    2ALA     BB11763   5.041   0.596   9.815
    2LEU     BB11764   4.964   0.919   9.872
    2LEU     SC11765   4.780   0.973   9.589
    2PHE     BB11766   4.964   0.932  10.182
    2PHE     SC11767   4.798   0.819  10.371
    2PHE     SC11768   4.738   0.983  10.524
    2PHE     SC11769   4.839   0.841  10.641
    2ILE     BB11770   5.261   0.843  10.214
    2ILE     SC11771   5.272   0.530  10.209
    2ILE     BB11772   5.420   1.065  10.036
    2ILE     SC11773   5.499   0.934   9.814
    2TYR     BB11774   5.336   1.317  10.224
    2TYR     SC11775   5.119   1.403  10.049
    2TYR     SC11776   4.926   1.323   9.949
    2TYR     SC11777   4.985   1.405   9.737
    2VAL     BB11778   5.518   1.191  10.454
    2VAL     SC11779   5.336   1.097  10.620
    2ASP     BB11780   5.794   1.103  10.312
    2ASP     SC11781   5.714   0.781  10.233
    2SER     BB11782   5.879   1.392  10.201
    2SER     SC11783   5.688   1.463  10.053
    2ASN     BB11784   5.861   1.498  10.515
    2ASN     SC11785   5.617   1.698  10.449
    2SER     BB11786   6.155   1.425  10.661
    2SER     SC11787   6.305   1.434  10.464
    2VAL     BB11788   6.152   1.742  10.809
    2VAL     SC11789   6.403   1.735  10.825
    2PHE     BB11790   5.874   1.842  10.943
    2PHE     SC11791   5.632   1.738  10.927
    2PHE     SC11792   5.470   1.642  11.060
    2PHE     SC11793   5.385   1.827  11.008
    2THR     BB11794   6.141   2.203  11.063
    2THR     SC11795   6.351   2.087  11.080
    2LEU     BB11796   5.992   2.293  10.791
    2LEU     SC11797   5.754   2.428  10.979
    2LYS     BB11798   6.104   2.162  10.535
    2LYS     SC11799   6.396   2.069  10.553
    2LYS     SC11800   6.691   2.158  10.472
    2ASN     BB11801   6.195   2.196  10.169
    2ASN     SC11802   6.406   2.367  10.171
    2ASN     BB11803   5.787   1.937   9.997
    2ASN     SC11804   5.528   1.953  10.176
    2SER     BB11805   5.591   1.803   9.769
    2SER     SC11806   5.649   1.575   9.709
    2ALA     BB11807   5.415   1.887   9.480
    2SER     BB11808   5.100   1.714   9.478
    2SER     SC11809   4.910   1.751   9.633
    2ILE     BB11810   5.058   1.654   9.168
    2ILE     SC11811   4.932   1.809   9.018
    2ASN     BB11812   5.329   1.496   9.133
    2ASN     SC11813   5.498   1.780   9.053
    2THR     BB11814   5.245   1.270   9.327
    2THR     SC11815   5.310   1.323   9.577
    2ILE     BB11816   4.982   1.184   9.178
    2ILE     SC11817   4.753   1.370   9.270
    2LEU     BB11818   5.115   1.104   8.905
    2LEU     SC11819   5.042   1.390   8.737
    2LEU     BB11820   5.332   0.908   9.024
    2LEU     SC11821   5.614   0.981   9.116
    2ILE     BB11822   5.142   0.693   9.147
    2ILE     SC11823   5.124   0.737   9.420
    2THR     BB11824   4.968   0.629   8.895
    2THR     SC11825   4.752   0.785   8.894
    2SER     BB11826   5.219   0.562   8.718
    2SER     SC11827   5.357   0.732   8.604
    2ALA     BB11828   5.359   0.351   8.926
    2PHE     BB11829   5.073   0.155   8.908
    2PHE     SC11830   4.865   0.170   9.060
    2PHE     SC11831   4.844   0.005   9.222
    2PHE     SC11832   4.689  -0.034   9.085
    2GLY     BB11833   5.002   0.154   8.578
    2THR     BB11834   5.281   0.124   8.434
    2THR     SC11835   5.294  -0.105   8.536
    2VAL     BB11836   5.388   0.406   8.271
    2VAL     SC11837   5.160   0.522   8.311
    2GLY     BB11838   5.642   0.660   8.337
    2LEU     BB11839   5.527   0.917   8.375
    2LEU     SC11840   5.411   0.963   8.060
    2SER     BB11841   5.632   1.265   8.455
    2SER     SC11842   5.799   1.171   8.587
    2PRO     BB11843   5.678   1.499   8.698
    2PRO     SC11844   5.468   1.560   8.644
    2LEU     BB11845   6.017   1.466   8.621
    2LEU     SC11846   6.030   1.777   8.597
    2ALA     BB11847   6.292   1.352   8.392
    2PHE     BB11848   6.366   1.524   8.891
    2PHE     SC11849   6.422   1.840   8.908
    2PHE     SC11850   6.461   1.974   8.721
    2PHE     SC11851   6.604   2.038   8.860
    2GLN     BB11852   6.126   1.366   9.067
    2GLN     SC11853   5.865   1.462   9.223
    2MET     BB11854   6.242   1.062   9.017
    2MET     SC11855   6.068   0.951   8.656
    2TYR     BB11856   6.538   1.171   9.148
    2TYR     SC11857   6.581   1.180   8.843
    2TYR     SC11858   6.726   1.066   8.702
    2TYR     SC11859   6.568   1.038   8.530
    2GLN     BB11860   6.404   1.317   9.429
    2GLN     SC11861   6.301   1.684   9.379
    2LEU     BB11862   6.361   1.079   9.594
    2LEU     SC11863   6.117   0.943   9.393
    2GLY     BB11864   6.342   0.932   9.871
    2VAL     BB11865   6.426   0.645  10.031
    2VAL     SC11866   6.646   0.701  10.171
    2VAL     BB11867   6.128   0.567  10.106
    2VAL     SC11868   6.096   0.612  10.364
    2THR     BB11869   5.986   0.662   9.835
    2THR     SC11870   5.974   0.925   9.842
    2LYS     BB11871   6.118   0.436   9.666
    2LYS     SC11872   6.413   0.579   9.578
    2LYS     SC11873   6.688   0.708   9.629
    2ILE     BB11874   5.997   0.186   9.822
    2ILE     SC11875   6.178   0.136  10.067
    2SER     BB11876   5.697   0.250   9.777
    2SER     SC11877   5.674   0.463   9.929
    2LEU     BB11878   5.712   0.253   9.462
    2LEU     SC11879   5.720   0.577   9.380
    2ILE     BB11880   5.817  -0.041   9.426
    2ILE     SC11881   6.122  -0.040   9.479
    2LEU     BB11882   5.556  -0.164   9.540
    2LEU     SC11883   5.477  -0.223   9.836
    2ILE     BB11884   5.349  -0.029   9.341
    2ILE     SC11885   5.295   0.245   9.471
    2MET     BB11886   5.476  -0.148   9.077
    2MET     SC11887   5.798   0.107   9.010
    2PHE     BB11888   5.445  -0.446   9.158
    2PHE     SC11889   5.641  -0.596   9.310
    2PHE     SC11890   5.496  -0.754   9.401
    2PHE     SC11891   5.657  -0.868   9.329
    2ILE     BB11892   5.131  -0.455   9.209
    2ILE     SC11893   5.089  -0.397   9.510
    2GLY     BB11894   5.028  -0.345   8.937
    2GLN     BB11895   5.150  -0.555   8.730
    2GLN     SC11896   5.341  -0.509   8.481
    2LEU     BB11897   5.061  -0.837   8.881
    2LEU     SC11898   5.266  -0.994   9.050
    2GLY     BB11899   4.802  -0.775   9.012
    2VAL     BB11900   4.599  -0.717   9.275
    2VAL     SC11901   4.495  -0.483   9.215
    2SER     BB11902   4.463  -0.997   9.319
    2SER     SC11903   4.240  -0.936   9.169
    2ASN     BB11904   4.726  -1.164   9.301
    2ASN     SC11905   4.677  -1.271   8.989
    2THR     BB11906   4.874  -1.009   9.533
    2THR     SC11907   4.994  -0.795   9.450
    2LEU     BB11908   4.676  -1.105   9.747
    2LEU     SC11909   4.474  -0.830   9.792
    2LEU     BB11910   4.632  -1.435   9.696
    2LEU     SC11911   4.388  -1.446   9.472
    2ILE     BB11912   4.904  -1.519   9.840
    2ILE     SC11913   5.097  -1.377   9.659
    2PHE     BB11914   4.787  -1.404  10.154
    2PHE     SC11915   4.891  -1.177  10.189
    2PHE     SC11916   4.943  -1.021  10.023
    2PHE     SC11917   4.808  -0.918  10.147
    2LEU     BB11918   4.474  -1.545  10.160
    2LEU     SC11919   4.359  -1.277  10.013
    2LYS     BB11920   4.568  -1.801  10.251
    2LYS     SC11921   4.557  -1.937   9.959
    2LYS     SC11922   4.350  -1.967   9.714
    2PRO     BB11923   4.333  -1.983  10.326
    2PRO     SC11924   4.418  -2.076  10.503
    2ALA     BB11925   4.039  -2.074  10.162
    2ARG     BB11926   3.707  -1.925  10.285
    2ARG     SC11927   3.845  -1.720  10.486
    2ARG     SC11928   4.020  -1.479  10.710
    2ASP     BB11929   3.504  -2.150  10.269
    2ASP     SC11930   3.422  -2.315  10.000
    2LYS     BB11931   3.134  -2.090  10.269
    2LYS     SC11932   3.236  -1.890  10.511
    2LYS     SC11933   3.296  -1.698  10.755
    2ALA     BB11934   2.859  -2.308  10.225
    2TYR     BB11935   2.702  -2.100  10.415
    2TYR     SC11936   2.811  -2.139  10.647
    2TYR     SC11937   2.830  -2.009  10.838
    2TYR     SC11938   3.064  -2.007  10.836
    2LYS     BB11939   2.424  -1.910  10.492
    2LYS     SC11940   2.328  -1.915  10.156
    2LYS     SC11941   2.205  -1.966   9.872
    2TYR     BB11942   2.247  -1.605  10.527
    2TYR     SC11943   2.495  -1.580  10.759
    2TYR     SC11944   2.692  -1.622  10.641
    2TYR     SC11945   2.819  -1.672  10.832
    2LEU     BB11946   2.037  -1.365  10.590
    2LEU     SC11947   1.961  -1.358  10.878
    2GLU     BB11948   1.849  -1.099  10.502
    2GLU     SC11949   1.626  -1.191  10.173
    2GLU     BB11950   1.942  -0.736  10.474
    2GLU     SC11951   2.000  -0.817  10.836
    2ASP     BB11952   1.867  -0.406  10.569
    2ASP     SC11953   1.539  -0.451  10.493
    2ILE     BB11954   2.074  -0.164  10.377
    2ILE     SC11955   2.334  -0.228  10.493
    2THR     BB11956   2.151   0.152  10.336
    2THR     SC11957   1.924   0.298  10.383
    2ILE     BB11958   2.318   0.370  10.045
    2ILE     SC11959   2.327   0.176   9.909
    2GLY     BB11960   2.247   0.705  10.006
    3POPC   NC311961   2.098  24.008   1.705
    3POPC   PO411962   2.189  23.853   1.794
    3POPC   GL111963   2.280  23.698   1.883
    3POPC   GL211964   2.322  23.761   1.948
    3POPC   C1A11965   2.370  23.544   1.972
    3POPC   D2A11966   2.461  23.389   2.061
    3POPC   C3A11967   2.551  23.235   2.150
    3POPC   C4A11968   2.642  23.080   2.239
    3POPC   C1B11969   2.213  23.522   2.094
    3POPC   C2B11970   2.304  23.368   2.183
    3POPC   C3B11971   2.395  23.213   2.272
    3POPC   C4B11972   2.485  23.059   2.361
    4POPC   NC311973  24.232   2.606   1.821
    4POPC   PO411974  24.075   2.689   1.913
    4POPC   GL111975  23.918   2.772   2.005
    4POPC   GL211976  23.950   2.862   1.978
    4POPC   C1A11977  23.761   2.854   2.097
    4POPC   D2A11978  23.603   2.937   2.190
    4POPC   C3A11979  23.446   3.019   2.282
    4POPC   C4A11980  23.289   3.102   2.374
    4POPC   C1B11981  23.654   2.841   1.928
    4POPC   C2B11982  23.497   2.923   2.021
    4POPC   C3B11983  23.340   3.006   2.113
    4POPC   C4B11984  23.183   3.088   2.205
    5POPC   NC311985  -4.353   3.286  18.919
    5POPC   PO411986  -4.198   3.364  18.819
    5POPC   GL111987  -4.043   3.442  18.719
    5POPC   GL211988  -4.003   3.351  18.710
    5POPC   C1A11989  -3.889   3.521  18.619
    5POPC   D2A11990  -3.734   3.599  18.520
    5POPC   C3A11991  -3.580   3.678  18.420
    5POPC   C4A11992  -3.425   3.756  18.320
    5POPC   C1B11993  -3.987   3.494  18.447
    5POPC   C2B11994  -3.832   3.572  18.347
    5POPC   C3B11995  -3.677   3.651  18.247
    5POPC   C4B11996  -3.523   3.729  18.148
    6POPC   NC311997  12.608  14.899  27.039
    6POPC   PO411998  12.578  14.840  26.850
    6POPC   GL111999  12.548  14.781  26.661
    6POPC   GL212000  12.647  14.768  26.650
    6POPC   C1A12001  12.518  14.722  26.472
    6POPC   D2A12002  12.489  14.664  26.284
    6POPC   C3A12003  12.459  14.605  26.095
    6POPC   C4A12004  12.429  14.546  25.906
    6POPC   C1B12005  12.499  14.533  26.534
    6POPC   C2B12006  12.469  14.474  26.346
    6POPC   C3B12007  12.440  14.416  26.157
    6POPC   C4B12008  12.410  14.357  25.968
    7POPC   NC312009  16.393  -3.775  19.652
    7POPC   PO412010  16.324  -3.623  19.542
    7POPC   GL112011  16.255  -3.471  19.432
    7POPC   GL212012  16.348  -3.453  19.399
    7POPC   C1A12013  16.186  -3.319  19.322
    7POPC   D2A12014  16.118  -3.167  19.211
    7POPC   C3A12015  16.049  -3.015  19.101
    7POPC   C4A12016  15.980  -2.863  18.991
    7POPC   C1B12017  16.157  -3.444  19.168
    7POPC   C2B12018  16.088  -3.292  19.058
    7POPC   C3B12019  16.019  -3.140  18.948
    7POPC   C4B12020  15.951  -2.988  18.837
    8POPC   NC312021  24.041   8.009  -1.043
    8POPC   PO412022  23.882   8.023  -0.922
    8POPC   GL112023  23.723   8.037  -0.801
    8POPC   GL212024  23.703   8.128  -0.838
    8POPC   C1A12025  23.565   8.051  -0.680
    8POPC   D2A12026  23.406   8.066  -0.559
    8POPC   C3A12027  23.248   8.080  -0.438
    8POPC   C4A12028  23.089   8.094  -0.317
    8POPC   C1B12029  23.450   7.969  -0.821
    8POPC   C2B12030  23.291   7.983  -0.700
    8POPC   C3B12031  23.133   7.997  -0.579
    8POPC   C4B12032  22.974   8.011  -0.458
    9POPC   NC312033  25.553  17.483  14.859
    9POPC   PO412034  25.379  17.398  14.807
    9POPC   GL112035  25.205  17.313  14.755
    9POPC   GL212036  25.249  17.274  14.674
    9POPC   C1A12037  25.032  17.228  14.703
    9POPC   D2A12038  24.858  17.144  14.652
    9POPC   C3A12039  24.685  17.059  14.600
    9POPC   C4A12040  24.511  16.974  14.548
    9POPC   C1B12041  25.080  17.065  14.808
    9POPC   C2B12042  24.907  16.980  14.756
    9POPC   C3B12043  24.733  16.895  14.704
    9POPC   C4B12044  24.559  16.811  14.653
   10POPC   NC312045   6.407  13.201  -7.518
   10POPC   PO412046   6.444  13.167  -7.325
   10POPC   GL112047   6.481  13.133  -7.132
   10POPC   GL212048   6.383  13.137  -7.112
   10POPC   C1A12049   6.519  13.099  -6.938
   10POPC   D2A12050   6.556  13.064  -6.745
   10POPC   C3A12051   6.594  13.030  -6.551
   10POPC   C4A12052   6.631  12.996  -6.358
   10POPC   C1B12053   6.504  12.902  -6.970
   10POPC   C2B12054   6.541  12.868  -6.777
   10POPC   C3B12055   6.578  12.833  -6.583
   10POPC   C4B12056   6.616  12.799  -6.390
   11POPC   NC312057  18.344  16.949  -4.397
   11POPC   PO412058  18.247  16.871  -4.240
   11POPC   GL112059  18.150  16.793  -4.083
   11POPC   GL212060  18.131  16.711  -4.136
   11POPC   C1A12061  18.054  16.716  -3.926
   11POPC   D2A12062  17.957  16.638  -3.769
   11POPC   C3A12063  17.861  16.561  -3.612
   11POPC   C4A12064  17.764  16.483  -3.455
   11POPC   C1B12065  18.225  16.635  -3.861
   11POPC   C2B12066  18.128  16.558  -3.704
   11POPC   C3B12067  18.032  16.480  -3.547
   11POPC   C4B12068  17.935  16.403  -3.390
   12POPC   NC312069  16.109   2.613  -5.369
   12POPC   PO412070  16.038   2.688  -5.198
   12POPC   GL112071  15.967   2.763  -5.027
   12POPC   GL212072  15.901   2.818  -5.078
   12POPC   C1A12073  15.896   2.838  -4.855
   12POPC   D2A12074  15.826   2.914  -4.684
   12POPC   C3A12075  15.755   2.989  -4.512
   12POPC   C4A12076  15.684   3.064  -4.341
   12POPC   C1B12077  15.764   2.689  -4.844
   12POPC   C2B12078  15.693   2.764  -4.673
   12POPC   C3B12079  15.622   2.839  -4.502
   12POPC   C4B12080  15.552   2.915  -4.330
   13POPC   NC312081  20.067  -4.325  13.981
   13POPC   PO412082  19.954  -4.166  13.935
   13POPC   GL112083  19.841  -4.007  13.889
   13POPC   GL212084  19.924  -3.954  13.869
   13POPC   C1A12085  19.729  -3.848  13.843
   13POPC   D2A12086  19.616  -3.690  13.796
   13POPC   C3A12087  19.504  -3.531  13.750
   13POPC   C4A12088  19.391  -3.372  13.704
   13POPC   C1B12089  19.722  -3.909  13.652
   13POPC   C2B12090  19.610  -3.750  13.606
   13POPC   C3B12091  19.497  -3.591  13.560
   13POPC   C4B12092  19.385  -3.432  13.513
   14POPC   NC312093   9.633  15.686  27.032
   14POPC   PO412094   9.632  15.621  26.843
   14POPC   GL112095   9.631  15.556  26.654
   14POPC   GL212096   9.660  15.465  26.685
   14POPC   C1A12097   9.629  15.490  26.465
   14POPC   D2A12098   9.628  15.425  26.276
   14POPC   C3A12099   9.626  15.359  26.087
   14POPC   C4A12100   9.625  15.294  25.898
   14POPC   C1B12101   9.438  15.436  26.485
   14POPC   C2B12102   9.436  15.370  26.296
   14POPC   C3B12103   9.435  15.305  26.107
   14POPC   C4B12104   9.434  15.239  25.918
   15POPC   NC312105  14.557  26.789  14.562
   15POPC   PO412106  14.507  26.602  14.513
   15POPC   GL112107  14.457  26.415  14.464
   15POPC   GL212108  14.554  26.392  14.454
   15POPC   C1A12109  14.407  26.227  14.415
   15POPC   D2A12110  14.358  26.040  14.367
   15POPC   C3A12111  14.308  25.852  14.318
   15POPC   C4A12112  14.258  25.665  14.269
   15POPC   C1B12113  14.416  26.175  14.608
   15POPC   C2B12114  14.366  25.987  14.559
   15POPC   C3B12115  14.316  25.800  14.511
   15POPC   C4B12116  14.267  25.613  14.462
   16POPC   NC312117  16.130  -4.082  19.379
   16POPC   PO412118  16.063  -3.926  19.273
   16POPC   GL112119  15.996  -3.770  19.167
   16POPC   GL212120  16.090  -3.749  19.139
   16POPC   C1A12121  15.930  -3.614  19.061
   16POPC   D2A12122  15.863  -3.458  18.955
   16POPC   C3A12123  15.797  -3.302  18.849
   16POPC   C4A12124  15.730  -3.146  18.743
   16POPC   C1B12125  15.908  -3.732  18.901
   16POPC   C2B12126  15.841  -3.576  18.795
   16POPC   C3B12127  15.775  -3.420  18.689
   16POPC   C4B12128  15.708  -3.264  18.583
   17POPC   NC312129   2.951  26.241   6.152
   17POPC   PO412130   3.036  26.065   6.194
   17POPC   GL112131   3.121  25.889   6.236
   17POPC   GL212132   3.110  25.907   6.333
   17POPC   C1A12133   3.206  25.713   6.277
   17POPC   D2A12134   3.292  25.537   6.319
   17POPC   C3A12135   3.377  25.361   6.360
   17POPC   C4A12136   3.462  25.185   6.402
   17POPC   C1B12137   3.027  25.625   6.273
   17POPC   C2B12138   3.112  25.449   6.315
   17POPC   C3B12139   3.197  25.273   6.356
   17POPC   C4B12140   3.282  25.097   6.398
   18POPC   NC312141  24.652   1.945   3.323
   18POPC   PO412142  24.489   2.034   3.397
   18POPC   GL112143  24.326   2.123   3.471
   18POPC   GL212144  24.378   2.208   3.483
   18POPC   C1A12145  24.163   2.213   3.544
   18POPC   D2A12146  24.000   2.302   3.618
   18POPC   C3A12147  23.837   2.392   3.691
   18POPC   C4A12148  23.674   2.481   3.765
   18POPC   C1B12149  24.111   2.270   3.360
   18POPC   C2B12150  23.948   2.360   3.433
   18POPC   C3B12151  23.785   2.449   3.507
   18POPC   C4B12152  23.622   2.539   3.581
   19POPC   NC312153  -5.365   0.618  12.433
   19POPC   PO412154  -5.195   0.719  12.403
   19POPC   GL112155  -5.025   0.820  12.373
   19POPC   GL212156  -4.988   0.742  12.323
   19POPC   C1A12157  -4.855   0.921  12.344
   19POPC   D2A12158  -4.686   1.023  12.314
   19POPC   C3A12159  -4.516   1.124  12.285
   19POPC   C4A12160  -4.346   1.225  12.255
   19POPC   C1B12161  -4.929   0.996  12.174
   19POPC   C2B12162  -4.760   1.097  12.144
   19POPC   C3B12163  -4.590   1.198  12.114
   19POPC   C4B12164  -4.420   1.300  12.085
   20POPC   NC312165  25.869  18.246  11.146
   20POPC   PO412166  25.692  18.155  11.134
   20POPC   GL112167  25.515  18.064  11.122
   20POPC   GL212168  25.558  17.976  11.145
   20POPC   C1A12169  25.337  17.972  11.109
   20POPC   D2A12170  25.160  17.881  11.097
   20POPC   C3A12171  24.982  17.789  11.084
   20POPC   C4A12172  24.805  17.698  11.072
   20POPC   C1B12173  25.305  18.008  11.303
   20POPC   C2B12174  25.128  17.916  11.291
   20POPC   C3B12175  24.950  17.825  11.279
   20POPC   C4B12176  24.773  17.734  11.266
   21POPC   NC312177  11.797  -7.639  13.302
   21POPC   PO412178  11.777  -7.443  13.266
   21POPC   GL112179  11.757  -7.247  13.230
   21POPC   GL212180  11.846  -7.247  13.183
   21POPC   C1A12181  11.738  -7.052  13.193
   21POPC   D2A12182  11.718  -6.856  13.157
   21POPC   C3A12183  11.699  -6.661  13.120
   21POPC   C4A12184  11.679  -6.465  13.084
   21POPC   C1B12185  11.647  -7.093  13.020
   21POPC   C2B12186  11.627  -6.898  12.984
   21POPC   C3B12187  11.608  -6.702  12.947
   21POPC   C4B12188  11.588  -6.506  12.911
   22POPC   NC312189  22.922  19.946   2.451
   22POPC   PO412190  22.780  19.833   2.534
   22POPC   GL112191  22.638  19.720   2.617
   22POPC   GL212192  22.685  19.637   2.585
   22POPC   C1A12193  22.496  19.606   2.701
   22POPC   D2A12194  22.354  19.493   2.784
   22POPC   C3A12195  22.212  19.379   2.868
   22POPC   C4A12196  22.070  19.266   2.951
   22POPC   C1B12197  22.602  19.599   2.871
   22POPC   C2B12198  22.460  19.485   2.954
   22POPC   C3B12199  22.318  19.372   3.037
   22POPC   C4B12200  22.176  19.259   3.121
   23POPC   NC312201  25.041  19.478  12.230
   23POPC   PO412202  24.873  19.372  12.204
   23POPC   GL112203  24.705  19.266  12.178
   23POPC   GL212204  24.759  19.190  12.141
   23POPC   C1A12205  24.538  19.160  12.152
   23POPC   D2A12206  24.370  19.055  12.125
   23POPC   C3A12207  24.203  18.949  12.099
   23POPC   C4A12208  24.035  18.843  12.073
   23POPC   C1B12209  24.557  19.085  12.336
   23POPC   C2B12210  24.389  18.979  12.309
   23POPC   C3B12211  24.222  18.873  12.283
   23POPC   C4B12212  24.054  18.767  12.257
   24POPC   NC312213  21.313  14.551  -3.269
   24POPC   PO412214  21.188  14.500  -3.121
   24POPC   GL112215  21.063  14.449  -2.973
   24POPC   GL212216  21.060  14.355  -3.008
   24POPC   C1A12217  20.938  14.399  -2.826
   24POPC   D2A12218  20.812  14.348  -2.678
   24POPC   C3A12219  20.687  14.298  -2.531
   24POPC   C4A12220  20.562  14.247  -2.383
   24POPC   C1B12221  21.094  14.352  -2.709
   24POPC   C2B12222  20.968  14.302  -2.562
   24POPC   C3B12223  20.843  14.251  -2.414
   24POPC   C4B12224  20.718  14.200  -2.267
   25POPC   NC312225  -1.441  -2.257  16.968
   25POPC   PO412226  -1.316  -2.123  16.887
   25POPC   GL112227  -1.191  -1.989  16.806
   25POPC   GL212228  -1.145  -2.062  16.756
   25POPC   C1A12229  -1.066  -1.855  16.725
   25POPC   D2A12230  -0.942  -1.722  16.645
   25POPC   C3A12231  -0.817  -1.588  16.564
   25POPC   C4A12232  -0.692  -1.454  16.483
   25POPC   C1B12233  -1.193  -1.829  16.573
   25POPC   C2B12234  -1.068  -1.696  16.492
   25POPC   C3B12235  -0.943  -1.562  16.411
   25POPC   C4B12236  -0.819  -1.428  16.330
   26POPC   NC312237  21.897  22.149   4.204
   26POPC   PO412238  21.762  22.017   4.271
   26POPC   GL112239  21.627  21.885   4.338
   26POPC   GL212240  21.672  21.813   4.285
   26POPC   C1A12241  21.493  21.753   4.405
   26POPC   D2A12242  21.358  21.622   4.473
   26POPC   C3A12243  21.224  21.490   4.540
   26POPC   C4A12244  21.089  21.358   4.607
   26POPC   C1B12245  21.611  21.712   4.561
   26POPC   C2B12246  21.476  21.580   4.629
   26POPC   C3B12247  21.342  21.449   4.696
   26POPC   C4B12248  21.207  21.317   4.763
   27POPC   NC312249   1.041  11.588  -5.679
   27POPC   PO412250   1.143  11.569  -5.508
   27POPC   GL112251   1.245  11.550  -5.337
   27POPC   GL212252   1.207  11.637  -5.305
   27POPC   C1A12253   1.347  11.532  -5.166
   27POPC   D2A12254   1.448  11.513  -4.995
   27POPC   C3A12255   1.550  11.495  -4.824
   27POPC   C4A12256   1.652  11.476  -4.653
   27POPC   C1B12257   1.192  11.435  -5.084
   27POPC   C2B12258   1.293  11.417  -4.913
   27POPC   C3B12259   1.395  11.398  -4.742
   27POPC   C4B12260   1.497  11.380  -4.571
   28POPC   NC312261   0.082  12.029  -5.022
   28POPC   PO412262   0.192  12.007  -4.856
   28POPC   GL112263   0.302  11.985  -4.690
   28POPC   GL212264   0.254  12.062  -4.648
   28POPC   C1A12265   0.412  11.963  -4.525
   28POPC   D2A12266   0.522  11.942  -4.359
   28POPC   C3A12267   0.632  11.920  -4.194
   28POPC   C4A12268   0.742  11.898  -4.028
   28POPC   C1B12269   0.276  11.837  -4.451
   28POPC   C2B12270   0.386  11.815  -4.285
   28POPC   C3B12271   0.496  11.793  -4.120
   28POPC   C4B12272   0.606  11.772  -3.954
   29POPC   NC312273  -6.447   4.279  15.124
   29POPC   PO412274  -6.266   4.344  15.071
   29POPC   GL112275  -6.085   4.409  15.018
   29POPC   GL212276  -6.076   4.458  15.105
   29POPC   C1A12277  -5.903   4.474  14.965
   29POPC   D2A12278  -5.722   4.540  14.911
   29POPC   C3A12279  -5.540   4.605  14.858
   29POPC   C4A12280  -5.359   4.670  14.805
   29POPC   C1B12281  -5.821   4.312  15.047
   29POPC   C2B12282  -5.639   4.377  14.994
   29POPC   C3B12283  -5.458   4.442  14.940
   29POPC   C4B12284  -5.276   4.507  14.887
   30POPC   NC312285   0.071   3.680  -3.832
   30POPC   PO412286   0.181   3.754  -3.682
   30POPC   GL112287   0.291   3.828  -3.532
   30POPC   GL212288   0.210   3.831  -3.474
   30POPC   C1A12289   0.401   3.902  -3.382
   30POPC   D2A12290   0.511   3.975  -3.233
   30POPC   C3A12291   0.621   4.049  -3.083
   30POPC   C4A12292   0.731   4.123  -2.933
   30POPC   C1B12293   0.440   3.716  -3.319
   30POPC   C2B12294   0.550   3.790  -3.169
   30POPC   C3B12295   0.660   3.863  -3.020
   30POPC   C4B12296   0.770   3.937  -2.870
   31POPC   NC312297   4.395  22.669  -1.686
   31POPC   PO412298   4.452  22.524  -1.560
   31POPC   GL112299   4.509  22.379  -1.434
   31POPC   GL212300   4.541  22.449  -1.369
   31POPC   C1A12301   4.566  22.235  -1.308
   31POPC   D2A12302   4.623  22.090  -1.182
   31POPC   C3A12303   4.680  21.946  -1.056
   31POPC   C4A12304   4.737  21.801  -0.930
   31POPC   C1B12305   4.385  22.238  -1.223
   31POPC   C2B12306   4.442  22.093  -1.097
   31POPC   C3B12307   4.499  21.948  -0.971
   31POPC   C4B12308   4.556  21.804  -0.845
   32POPC   NC312309  -1.947  -1.311   2.127
   32POPC   PO412310  -1.816  -1.187   2.213
   32POPC   GL112311  -1.685  -1.063   2.299
   32POPC   GL212312  -1.644  -1.140   2.348
   32POPC   C1A12313  -1.554  -0.939   2.385
   32POPC   D2A12314  -1.422  -0.815   2.471
   32POPC   C3A12315  -1.291  -0.691   2.557
   32POPC   C4A12316  -1.160  -0.567   2.643
   32POPC   C1B12317  -1.426  -0.969   2.234
   32POPC   C2B12318  -1.295  -0.845   2.320
   32POPC   C3B12319  -1.164  -0.721   2.406
   32POPC   C4B12320  -1.033  -0.597   2.492
   33POPC   NC312321  15.695  10.398  -7.152
   33POPC   PO412322  15.627  10.396  -6.964
   33POPC   GL112323  15.559  10.394  -6.776
   33POPC   GL212324  15.500  10.316  -6.799
   33POPC   C1A12325  15.490  10.391  -6.588
   33POPC   D2A12326  15.422  10.389  -6.401
   33POPC   C3A12327  15.353  10.386  -6.213
   33POPC   C4A12328  15.285  10.384  -6.025
   33POPC   C1B12329  15.637  10.266  -6.537
   33POPC   C2B12330  15.569  10.263  -6.349
   33POPC   C3B12331  15.500  10.261  -6.161
   33POPC   C4B12332  15.432  10.258  -5.973
   34POPC   NC312333   1.069  24.043   2.977
   34POPC   PO412334   1.169  23.887   3.053
   34POPC   GL112335   1.269  23.731   3.129
   34POPC   GL212336   1.353  23.786   3.130
   34POPC   C1A12337   1.369  23.575   3.204
   34POPC   D2A12338   1.470  23.420   3.280
   34POPC   C3A12339   1.570  23.264   3.355
   34POPC   C4A12340   1.670  23.108   3.431
   34POPC   C1B12341   1.327  23.638   3.389
   34POPC   C2B12342   1.427  23.482   3.465
   34POPC   C3B12343   1.527  23.326   3.541
   34POPC   C4B12344   1.627  23.170   3.616
   35POPC   NC312345  11.233  -7.398  14.664
   35POPC   PO412346  11.214  -7.205  14.615
   35POPC   GL112347  11.195  -7.012  14.566
   35POPC   GL212348  11.261  -7.024  14.492
   35POPC   C1A12349  11.177  -6.819  14.518
   35POPC   D2A12350  11.158  -6.625  14.469
   35POPC   C3A12351  11.140  -6.432  14.421
   35POPC   C4A12352  11.121  -6.239  14.372
   35POPC   C1B12353  11.028  -6.864  14.393
   35POPC   C2B12354  11.009  -6.671  14.344
   35POPC   C3B12355  10.990  -6.478  14.296
   35POPC   C4B12356  10.972  -6.285  14.247
   36POPC   NC312357   7.115   4.822  -7.134
   36POPC   PO412358   7.141   4.878  -6.944
   36POPC   GL112359   7.167   4.934  -6.754
   36POPC   GL212360   7.112   4.856  -6.723
   36POPC   C1A12361   7.192   4.990  -6.564
   36POPC   D2A12362   7.218   5.047  -6.373
   36POPC   C3A12363   7.243   5.103  -6.183
   36POPC   C4A12364   7.269   5.159  -5.993
   36POPC   C1B12365   7.358   4.879  -6.553
   36POPC   C2B12366   7.384   4.935  -6.363
   36POPC   C3B12367   7.409   4.991  -6.173
   36POPC   C4B12368   7.435   5.048  -5.983
   37POPC   NC312369  27.298   5.316  10.435
   37POPC   PO412370  27.104   5.366  10.428
   37POPC   GL112371  26.910   5.416  10.421
   37POPC   GL212372  26.901   5.368  10.333
   37POPC   C1A12373  26.717   5.466  10.413
   37POPC   D2A12374  26.523   5.516  10.406
   37POPC   C3A12375  26.330   5.566  10.398
   37POPC   C4A12376  26.136   5.616  10.391
   37POPC   C1B12377  26.670   5.298  10.510
   37POPC   C2B12378  26.476   5.348  10.503
   37POPC   C3B12379  26.282   5.398  10.495
   37POPC   C4B12380  26.089   5.448  10.488
   38POPC   NC312381  -2.015   1.780  20.726
   38POPC   PO412382  -1.886   1.870  20.603
   38POPC   GL112383  -1.757   1.960  20.480
   38POPC   GL212384  -1.685   1.895  20.508
   38POPC   C1A12385  -1.627   2.049  20.356
   38POPC   D2A12386  -1.498   2.139  20.233
   38POPC   C3A12387  -1.368   2.228  20.109
   38POPC   C4A12388  -1.239   2.318  19.986
   38POPC   C1B12389  -1.681   1.925  20.209
   38POPC   C2B12390  -1.552   2.014  20.086
   38POPC   C3B12391  -1.422   2.104  19.962
   38POPC   C4B12392  -1.293   2.193  19.839
   39POPC   NC312393   6.114   7.393  -7.532
   39POPC   PO412394   6.153   7.422  -7.338
   39POPC   GL112395   6.192   7.451  -7.144
   39POPC   GL212396   6.117   7.389  -7.120
   39POPC   C1A12397   6.231   7.480  -6.950
   39POPC   D2A12398   6.270   7.508  -6.756
   39POPC   C3A12399   6.309   7.537  -6.562
   39POPC   C4A12400   6.348   7.566  -6.368
   39POPC   C1B12401   6.358   7.325  -6.953
   39POPC   C2B12402   6.397   7.354  -6.759
   39POPC   C3B12403   6.436   7.383  -6.565
   39POPC   C4B12404   6.475   7.412  -6.371
   40POPC   NC312405  21.031  -4.218   9.938
   40POPC   PO412406  20.909  -4.060   9.936
   40POPC   GL112407  20.787  -3.902   9.934
   40POPC   GL212408  20.853  -3.850   9.987
   40POPC   C1A12409  20.665  -3.744   9.931
   40POPC   D2A12410  20.542  -3.585   9.929
   40POPC   C3A12411  20.420  -3.427   9.926
   40POPC   C4A12412  20.298  -3.269   9.924
   40POPC   C1B12413  20.751  -3.680   9.762
   40POPC   C2B12414  20.628  -3.521   9.760
   40POPC   C3B12415  20.506  -3.363   9.757
   40POPC   C4B12416  20.384  -3.205   9.755
   41POPC   NC312417  13.500  21.358  23.487
   41POPC   PO412418  13.462  21.231  23.338
   41POPC   GL112419  13.424  21.104  23.189
   41POPC   GL212420  13.503  21.138  23.139
   41POPC   C1A12421  13.385  20.976  23.039
   41POPC   D2A12422  13.347  20.849  22.890
   41POPC   C3A12423  13.308  20.721  22.740
   41POPC   C4A12424  13.270  20.594  22.591
   41POPC   C1B12425  13.501  20.838  23.127
   41POPC   C2B12426  13.462  20.711  22.977
   41POPC   C3B12427  13.424  20.584  22.828
   41POPC   C4B12428  13.386  20.456  22.679
   42POPC   NC312429  11.906  -1.000  24.066
   42POPC   PO412430  11.877  -0.873  23.914
   42POPC   GL112431  11.848  -0.746  23.762
   42POPC   GL212432  11.944  -0.716  23.769
   42POPC   C1A12433  11.819  -0.619  23.610
   42POPC   D2A12434  11.791  -0.492  23.459
   42POPC   C3A12435  11.762  -0.365  23.307
   42POPC   C4A12436  11.733  -0.238  23.155
   42POPC   C1B12437  11.873  -0.762  23.481
   42POPC   C2B12438  11.844  -0.635  23.329
   42POPC   C3B12439  11.815  -0.508  23.177
   42POPC   C4B12440  11.787  -0.381  23.026
   43POPC   NC312441  26.492   7.468  16.529
   43POPC   PO412442  26.310   7.500  16.453
   43POPC   GL112443  26.128   7.532  16.377
   43POPC   GL212444  26.127   7.439  16.340
   43POPC   C1A12445  25.946   7.564  16.301
   43POPC   D2A12446  25.763   7.595  16.224
   43POPC   C3A12447  25.581   7.627  16.148
   43POPC   C4A12448  25.399   7.659  16.072
   43POPC   C1B12449  25.863   7.498  16.470
   43POPC   C2B12450  25.681   7.529  16.394
   43POPC   C3B12451  25.499   7.561  16.318
   43POPC   C4B12452  25.316   7.593  16.242
   44POPC   NC312453   0.392   7.632  25.166
   44POPC   PO412454   0.500   7.664  25.001
   44POPC   GL112455   0.608   7.696  24.836
   44POPC   GL212456   0.654   7.772  24.881
   44POPC   C1A12457   0.716   7.728  24.670
   44POPC   D2A12458   0.823   7.759  24.505
   44POPC   C3A12459   0.931   7.791  24.339
   44POPC   C4A12460   1.039   7.823  24.174
   44POPC   C1B12461   0.856   7.603  24.738
   44POPC   C2B12462   0.964   7.634  24.573
   44POPC   C3B12463   1.072   7.666  24.407
   44POPC   C4B12464   1.180   7.698  24.242
   45POPC   NC312465  25.854  12.228  18.013
   45POPC   PO412466  25.675  12.203  17.927
   45POPC   GL112467  25.496  12.178  17.841
   45POPC   GL212468  25.539  12.124  17.768
   45POPC   C1A12469  25.317  12.152  17.755
   45POPC   D2A12470  25.139  12.127  17.669
   45POPC   C3A12471  24.960  12.101  17.583
   45POPC   C4A12472  24.781  12.076  17.497
   45POPC   C1B12473  25.289  11.986  17.863
   45POPC   C2B12474  25.111  11.961  17.777
   45POPC   C3B12475  24.932  11.935  17.691
   45POPC   C4B12476  24.753  11.910  17.605
   46POPC   NC312477  -2.891  -2.282  13.595
   46POPC   PO412478  -2.751  -2.145  13.555
   46POPC   GL112479  -2.611  -2.008  13.515
   46POPC   GL212480  -2.561  -2.035  13.598
   46POPC   C1A12481  -2.470  -1.871  13.475
   46POPC   D2A12482  -2.330  -1.735  13.436
   46POPC   C3A12483  -2.189  -1.598  13.396
   46POPC   C4A12484  -2.049  -1.461  13.356
   46POPC   C1B12485  -2.368  -2.007  13.371
   46POPC   C2B12486  -2.227  -1.871  13.331
   46POPC   C3B12487  -2.087  -1.734  13.291
   46POPC   C4B12488  -1.946  -1.597  13.251
   47POPC   NC312489   6.255  -7.651  11.229
   47POPC   PO412490   6.293  -7.455  11.216
   47POPC   GL112491   6.331  -7.259  11.203
   47POPC   GL212492   6.373  -7.261  11.293
   47POPC   C1A12493   6.369  -7.063  11.189
   47POPC   D2A12494   6.406  -6.867  11.176
   47POPC   C3A12495   6.444  -6.671  11.162
   47POPC   C4A12496   6.482  -6.475  11.149
   47POPC   C1B12497   6.546  -7.103  11.106
   47POPC   C2B12498   6.584  -6.907  11.093
   47POPC   C3B12499   6.622  -6.711  11.080
   47POPC   C4B12500   6.660  -6.515  11.066
   48POPC   NC312501  12.965  -6.324  17.101
   48POPC   PO412502  12.925  -6.143  17.026
   48POPC   GL112503  12.885  -5.962  16.951
   48POPC   GL212504  12.951  -5.921  17.013
   48POPC   C1A12505  12.845  -5.781  16.875
   48POPC   D2A12506  12.804  -5.601  16.800
   48POPC   C3A12507  12.764  -5.420  16.724
   48POPC   C4A12508  12.724  -5.239  16.649
   48POPC   C1B12509  12.988  -5.807  16.738
   48POPC   C2B12510  12.948  -5.626  16.663
   48POPC   C3B12511  12.908  -5.445  16.587
   48POPC   C4B12512  12.867  -5.264  16.512
   49POPC   NC312513  18.569  15.068  24.858
   49POPC   PO412514  18.462  15.011  24.699
   49POPC   GL112515  18.355  14.954  24.540
   49POPC   GL212516  18.365  15.046  24.501
   49POPC   C1A12517  18.249  14.897  24.380
   49POPC   D2A12518  18.142  14.840  24.221
   49POPC   C3A12519  18.036  14.783  24.061
   49POPC   C4A12520  17.929  14.726  23.902
   49POPC   C1B12521  18.417  14.840  24.288
   49POPC   C2B12522  18.310  14.783  24.128
   49POPC   C3B12523  18.204  14.726  23.969
   49POPC   C4B12524  18.097  14.669  23.810
   50POPC   NC312525  21.575  17.237  21.522
   50POPC   PO412526  21.447  17.160  21.389
   50POPC   GL112527  21.319  17.083  21.256
   50POPC   GL212528  21.394  17.031  21.214
   50POPC   C1A12529  21.191  17.006  21.123
   50POPC   D2A12530  21.063  16.930  20.990
   50POPC   C3A12531  20.935  16.853  20.857
   50POPC   C4A12532  20.807  16.776  20.724
   50POPC   C1B12533  21.154  16.854  21.247
   50POPC   C2B12534  21.026  16.777  21.114
   50POPC   C3B12535  20.898  16.700  20.981
   50POPC   C4B12536  20.770  16.623  20.848
   51POPC   NC312537   7.971  27.723  12.882
   51POPC   PO412538   7.988  27.526  12.851
   51POPC   GL112539   8.005  27.329  12.820
   51POPC   GL212540   8.050  27.319  12.909
   51POPC   C1A12541   8.022  27.132  12.789
   51POPC   D2A12542   8.040  26.936  12.758
   51POPC   C3A12543   8.057  26.739  12.727
   51POPC   C4A12544   8.074  26.542  12.696
   51POPC   C1B12545   7.844  27.103  12.875
   51POPC   C2B12546   7.861  26.907  12.844
   51POPC   C3B12547   7.879  26.710  12.813
   51POPC   C4B12548   7.896  26.513  12.782
   52POPC   NC312549   6.639  -4.719  19.927
   52POPC   PO412550   6.673  -4.555  19.817
   52POPC   GL112551   6.707  -4.391  19.707
   52POPC   GL212552   6.783  -4.367  19.768
   52POPC   C1A12553   6.741  -4.228  19.597
   52POPC   D2A12554   6.776  -4.064  19.488
   52POPC   C3A12555   6.810  -3.901  19.378
   52POPC   C4A12556   6.844  -3.737  19.268
   52POPC   C1B12557   6.867  -4.332  19.482
   52POPC   C2B12558   6.902  -4.168  19.372
   52POPC   C3B12559   6.936  -4.005  19.262
   52POPC   C4B12560   6.970  -3.841  19.152
   53POPC   NC312561   1.705  23.355  18.961
   53POPC   PO412562   1.794  23.205  18.863
   53POPC   GL112563   1.883  23.055  18.765
   53POPC   GL212564   1.970  23.104  18.769
   53POPC   C1A12565   1.972  22.905  18.667
   53POPC   D2A12566   2.060  22.755  18.569
   53POPC   C3A12567   2.149  22.605  18.471
   53POPC   C4A12568   2.238  22.455  18.373
   53POPC   C1B12569   2.014  22.816  18.841
   53POPC   C2B12570   2.103  22.666  18.743
   53POPC   C3B12571   2.192  22.516  18.645
   53POPC   C4B12572   2.280  22.366  18.547
   54POPC   NC312573  -3.382  20.381   3.363
   54POPC   PO412574  -3.236  20.267   3.437
   54POPC   GL112575  -3.090  20.153   3.511
   54POPC   GL212576  -3.114  20.181   3.603
   54POPC   C1A12577  -2.943  20.038   3.585
   54POPC   D2A12578  -2.797  19.924   3.658
   54POPC   C3A12579  -2.650  19.809   3.732
   54POPC   C4A12580  -2.504  19.695   3.806
   54POPC   C1B12581  -3.070  19.884   3.598
   54POPC   C2B12582  -2.924  19.770   3.671
   54POPC   C3B12583  -2.777  19.655   3.745
   54POPC   C4B12584  -2.631  19.541   3.819
   55POPC   NC312585  -0.551  22.858  17.169
   55POPC   PO412586  -0.436  22.714  17.091
   55POPC   GL112587  -0.321  22.570  17.013
   55POPC   GL212588  -0.270  22.565  17.099
   55POPC   C1A12589  -0.206  22.426  16.935
   55POPC   D2A12590  -0.092  22.282  16.858
   55POPC   C3A12591   0.023  22.138  16.780
   55POPC   C4A12592   0.138  21.994  16.702
   55POPC   C1B12593  -0.334  22.288  17.003
   55POPC   C2B12594  -0.219  22.144  16.925
   55POPC   C3B12595  -0.104  22.000  16.848
   55POPC   C4B12596   0.010  21.856  16.770
   56POPC   NC312597  23.579   6.964  21.213
   56POPC   PO412598  23.425   7.000  21.090
   56POPC   GL112599  23.271   7.036  20.967
   56POPC   GL212600  23.286   7.134  20.977
   56POPC   C1A12601  23.117   7.072  20.844
   56POPC   D2A12602  22.964   7.107  20.722
   56POPC   C3A12603  22.810   7.143  20.599
   56POPC   C4A12604  22.656   7.179  20.476
   56POPC   C1B12605  23.242   7.068  20.688
   56POPC   C2B12606  23.088   7.104  20.565
   56POPC   C3B12607  22.934   7.140  20.442
   56POPC   C4B12608  22.780   7.176  20.319
   57POPC   NC312609   1.254   9.422  25.867
   57POPC   PO412610   1.345   9.424  25.689
   57POPC   GL112611   1.436   9.426  25.511
   57POPC   GL212612   1.440   9.326  25.512
   57POPC   C1A12613   1.527   9.427  25.333
   57POPC   D2A12614   1.618   9.429  25.154
   57POPC   C3A12615   1.709   9.430  24.976
   57POPC   C4A12616   1.800   9.432  24.798
   57POPC   C1B12617   1.349   9.419  25.242
   57POPC   C2B12618   1.440   9.421  25.063
   57POPC   C3B12619   1.531   9.423  24.885
   57POPC   C4B12620   1.622   9.424  24.707
   58POPC   NC312621  25.425   5.626   1.806
   58POPC   PO412622  25.253   5.671   1.897
   58POPC   GL112623  25.081   5.716   1.988
   58POPC   GL212624  25.052   5.768   1.907
   58POPC   C1A12625  24.908   5.761   2.079
   58POPC   D2A12626  24.736   5.806   2.169
   58POPC   C3A12627  24.563   5.851   2.260
   58POPC   C4A12628  24.391   5.896   2.351
   58POPC   C1B12629  24.825   5.596   2.002
   58POPC   C2B12630  24.652   5.641   2.093
   58POPC   C3B12631  24.480   5.686   2.184
   58POPC   C4B12632  24.308   5.731   2.275
   59POPC   NC312633  24.389  20.099  13.416
   59POPC   PO412634  24.229  19.985  13.377
   59POPC   GL112635  24.069  19.871  13.338
   59POPC   GL212636  24.080  19.890  13.240
   59POPC   C1A12637  23.910  19.757  13.298
   59POPC   D2A12638  23.750  19.644  13.259
   59POPC   C3A12639  23.591  19.530  13.219
   59POPC   C4A12640  23.431  19.416  13.180
   59POPC   C1B12641  24.028  19.597  13.280
   59POPC   C2B12642  23.869  19.484  13.240
   59POPC   C3B12643  23.709  19.370  13.201
   59POPC   C4B12644  23.550  19.256  13.162
   60POPC   NC312645  -5.504  18.724   6.168
   60POPC   PO412646  -5.332  18.633   6.215
   60POPC   GL112647  -5.160  18.542   6.262
   60POPC   GL212648  -5.191  18.534   6.357
   60POPC   C1A12649  -4.988  18.451   6.309
   60POPC   D2A12650  -4.817  18.360   6.356
   60POPC   C3A12651  -4.645  18.269   6.403
   60POPC   C4A12652  -4.473  18.178   6.450
   60POPC   C1B12653  -5.071  18.274   6.267
   60POPC   C2B12654  -4.899  18.183   6.314
   60POPC   C3B12655  -4.727  18.092   6.361
   60POPC   C4B12656  -4.555  18.001   6.408
   61POPC   NC312657  26.089   2.468   7.633
   61POPC   PO412658  25.910   2.554   7.659
   61POPC   GL112659  25.731   2.640   7.685
   61POPC   GL212660  25.701   2.605   7.597
   61POPC   C1A12661  25.553   2.726   7.711
   61POPC   D2A12662  25.374   2.812   7.738
   61POPC   C3A12663  25.196   2.898   7.764
   61POPC   C4A12664  25.017   2.984   7.790
   61POPC   C1B12665  25.486   2.560   7.801
   61POPC   C2B12666  25.307   2.646   7.827
   61POPC   C3B12667  25.129   2.732   7.853
   61POPC   C4B12668  24.950   2.818   7.879
   62POPC   NC312669  11.327   8.052  27.847
   62POPC   PO412670  11.309   8.073  27.649
   62POPC   GL112671  11.291   8.094  27.451
   62POPC   GL212672  11.319   8.190  27.459
   62POPC   C1A12673  11.273   8.116  27.253
   62POPC   D2A12674  11.255   8.137  27.055
   62POPC   C3A12675  11.237   8.159  26.857
   62POPC   C4A12676  11.219   8.180  26.659
   62POPC   C1B12677  11.464   8.062  27.230
   62POPC   C2B12678  11.446   8.083  27.032
   62POPC   C3B12679  11.428   8.104  26.834
   62POPC   C4B12680  11.410   8.126  26.636
   63POPC   NC312681  15.767  -3.898  19.865
   63POPC   PO412682  15.702  -3.745  19.753
   63POPC   GL112683  15.637  -3.592  19.641
   63POPC   GL212684  15.713  -3.536  19.675
   63POPC   C1A12685  15.573  -3.439  19.530
   63POPC   D2A12686  15.508  -3.287  19.418
   63POPC   C3A12687  15.444  -3.134  19.307
   63POPC   C4A12688  15.379  -2.981  19.195
   63POPC   C1B12689  15.686  -3.502  19.378
   63POPC   C2B12690  15.622  -3.350  19.266
   63POPC   C3B12691  15.557  -3.197  19.155
   63POPC   C4B12692  15.493  -3.044  19.043
   64POPC   NC312693  21.840  13.110  -3.212
   64POPC   PO412694  21.706  13.077  -3.067
   64POPC   GL112695  21.572  13.044  -2.922
   64POPC   GL212696  21.560  12.950  -2.955
   64POPC   C1A12697  21.438  13.011  -2.777
   64POPC   D2A12698  21.305  12.977  -2.633
   64POPC   C3A12699  21.171  12.944  -2.488
   64POPC   C4A12700  21.037  12.911  -2.343
   64POPC   C1B12701  21.585  12.949  -2.656
   64POPC   C2B12702  21.451  12.916  -2.511
   64POPC   C3B12703  21.317  12.883  -2.366
   64POPC   C4B12704  21.184  12.849  -2.222
   65POPC   NC312705  -1.609  -0.836  18.763
   65POPC   PO412706  -1.482  -0.718  18.664
   65POPC   GL112707  -1.355  -0.600  18.565
   65POPC   GL212708  -1.280  -0.663  18.585
   65POPC   C1A12709  -1.227  -0.481  18.466
   65POPC   D2A12710  -1.100  -0.363  18.368
   65POPC   C3A12711  -0.972  -0.244  18.269
   65POPC   C4A12712  -0.845  -0.126  18.170
   65POPC   C1B12713  -1.266  -0.581  18.297
   65POPC   C2B12714  -1.138  -0.462  18.198
   65POPC   C3B12715  -1.011  -0.344  18.100
   65POPC   C4B12716  -0.884  -0.225  18.001
   66POPC   NC312717  11.193  23.103  22.252
   66POPC   PO412718  11.174  22.957  22.116
   66POPC   GL112719  11.155  22.811  21.980
   66POPC   GL212720  11.160  22.879  21.907
   66POPC   C1A12721  11.135  22.666  21.844
   66POPC   D2A12722  11.116  22.520  21.709
   66POPC   C3A12723  11.096  22.375  21.573
   66POPC   C4A12724  11.077  22.229  21.437
   66POPC   C1B12725  11.334  22.644  21.839
   66POPC   C2B12726  11.315  22.498  21.704
   66POPC   C3B12727  11.295  22.353  21.568
   66POPC   C4B12728  11.276  22.207  21.432
   67POPC   NC312729  19.046  18.101  23.127
   67POPC   PO412730  18.940  18.017  22.980
   67POPC   GL112731  18.834  17.933  22.833
   67POPC   GL212732  18.908  17.951  22.769
   67POPC   C1A12733  18.728  17.849  22.686
   67POPC   D2A12734  18.621  17.765  22.538
   67POPC   C3A12735  18.515  17.681  22.391
   67POPC   C4A12736  18.409  17.597  22.244
   67POPC   C1B12737  18.807  17.671  22.730
   67POPC   C2B12738  18.701  17.587  22.582
   67POPC   C3B12739  18.595  17.503  22.435
   67POPC   C4B12740  18.489  17.419  22.288
   68POPC   NC312741  -1.140  -2.863   3.465
   68POPC   PO412742  -1.018  -2.721   3.535
   68POPC   GL112743  -0.896  -2.579   3.605
   68POPC   GL212744  -0.837  -2.649   3.645
   68POPC   C1A12745  -0.775  -2.436   3.675
   68POPC   D2A12746  -0.653  -2.294   3.746
   68POPC   C3A12747  -0.532  -2.151   3.816
   68POPC   C4A12748  -0.410  -2.009   3.886
   68POPC   C1B12749  -0.669  -2.443   3.506
   68POPC   C2B12750  -0.548  -2.300   3.576
   68POPC   C3B12751  -0.426  -2.158   3.646
   68POPC   C4B12752  -0.304  -2.015   3.716
   69POPC   NC312753  -1.940  12.468  -3.436
   69POPC   PO412754  -1.812  12.443  -3.285
   69POPC   GL112755  -1.684  12.418  -3.134
   69POPC   GL212756  -1.711  12.507  -3.096
   69POPC   C1A12757  -1.556  12.394  -2.982
   69POPC   D2A12758  -1.427  12.369  -2.831
   69POPC   C3A12759  -1.299  12.345  -2.679
   69POPC   C4A12760  -1.171  12.320  -2.528
   69POPC   C1B12761  -1.699  12.305  -2.875
   69POPC   C2B12762  -1.571  12.280  -2.724
   69POPC   C3B12763  -1.443  12.255  -2.572
   69POPC   C4B12764  -1.315  12.231  -2.421
   70POPC   NC312765   1.391  -2.572   0.176
   70POPC   PO412766   1.485  -2.438   0.291
   70POPC   GL112767   1.579  -2.304   0.406
   70POPC   GL212768   1.649  -2.371   0.427
   70POPC   C1A12769   1.673  -2.170   0.521
   70POPC   D2A12770   1.766  -2.035   0.635
   70POPC   C3A12771   1.860  -1.901   0.750
   70POPC   C4A12772   1.954  -1.767   0.865
   70POPC   C1B12773   1.779  -2.108   0.362
   70POPC   C2B12774   1.873  -1.974   0.477
   70POPC   C3B12775   1.966  -1.840   0.592
   70POPC   C4B12776   2.060  -1.706   0.707
   71POPC   NC312777  16.361   5.465  -6.234
   71POPC   PO412778  16.286   5.512  -6.054
   71POPC   GL112779  16.211   5.559  -5.874
   71POPC   GL212780  16.140   5.613  -5.918
   71POPC   C1A12781  16.137   5.606  -5.695
   71POPC   D2A12782  16.062   5.652  -5.515
   71POPC   C3A12783  15.988   5.699  -5.336
   71POPC   C4A12784  15.913   5.746  -5.156
   71POPC   C1B12785  16.019   5.444  -5.702
   71POPC   C2B12786  15.944   5.491  -5.522
   71POPC   C3B12787  15.870   5.538  -5.343
   71POPC   C4B12788  15.795   5.585  -5.163
   72POPC   NC312789  23.929  19.231   3.432
   72POPC   PO412790  23.772  19.126   3.498
   72POPC   GL112791  23.615  19.021   3.564
   72POPC   GL212792  23.665  18.936   3.547
   72POPC   C1A12793  23.458  18.916   3.631
   72POPC   D2A12794  23.302  18.811   3.697
   72POPC   C3A12795  23.145  18.706   3.764
   72POPC   C4A12796  22.988  18.601   3.830
   72POPC   C1B12797  23.534  18.921   3.816
   72POPC   C2B12798  23.377  18.816   3.882
   72POPC   C3B12799  23.220  18.711   3.949
   72POPC   C4B12800  23.063  18.606   4.015
   73POPC   NC312801  22.073  18.760  -0.069
   73POPC   PO412802  21.939  18.658   0.038
   73POPC   GL112803  21.805  18.556   0.145
   73POPC   GL212804  21.737  18.568   0.073
   73POPC   C1A12805  21.670  18.454   0.253
   73POPC   D2A12806  21.536  18.352   0.360
   73POPC   C3A12807  21.401  18.250   0.468
   73POPC   C4A12808  21.267  18.148   0.575
   73POPC   C1B12809  21.731  18.284   0.167
   73POPC   C2B12810  21.597  18.182   0.275
   73POPC   C3B12811  21.462  18.080   0.382
   73POPC   C4B12812  21.328  17.978   0.489
   74POPC   NC312813  16.380  16.054  25.651
   74POPC   PO412814  16.309  15.984  25.478
   74POPC   GL112815  16.238  15.914  25.305
   74POPC   GL212816  16.279  15.991  25.257
   74POPC   C1A12817  16.167  15.844  25.132
   74POPC   D2A12818  16.095  15.773  24.958
   74POPC   C3A12819  16.024  15.703  24.785
   74POPC   C4A12820  15.953  15.633  24.612
   74POPC   C1B12821  16.335  15.739  25.105
   74POPC   C2B12822  16.264  15.668  24.932
   74POPC   C3B12823  16.192  15.598  24.759
   74POPC   C4B12824  16.121  15.528  24.586
   75POPC   NC312825  23.969   9.258  -1.223
   75POPC   PO412826  23.811   9.261  -1.100
   75POPC   GL112827  23.653   9.264  -0.977
   75POPC   GL212828  23.627   9.173  -1.009
   75POPC   C1A12829  23.495   9.267  -0.854
   75POPC   D2A12830  23.338   9.271  -0.732
   75POPC   C3A12831  23.180   9.274  -0.609
   75POPC   C4A12832  23.022   9.277  -0.486
   75POPC   C1B12833  23.606   9.185  -0.710
   75POPC   C2B12834  23.449   9.189  -0.587
   75POPC   C3B12835  23.291   9.192  -0.464
   75POPC   C4B12836  23.133   9.195  -0.341
   76POPC   NC312837  -3.650  -1.806  12.169
   76POPC   PO412838  -3.501  -1.675  12.145
   76POPC   GL112839  -3.352  -1.544  12.121
   76POPC   GL212840  -3.314  -1.570  12.209
   76POPC   C1A12841  -3.203  -1.412  12.096
   76POPC   D2A12842  -3.055  -1.281  12.072
   76POPC   C3A12843  -2.906  -1.149  12.047
   76POPC   C4A12844  -2.757  -1.018  12.023
   76POPC   C1B12845  -3.093  -1.554  12.008
   76POPC   C2B12846  -2.944  -1.422  11.983
   76POPC   C3B12847  -2.795  -1.291  11.959
   76POPC   C4B12848  -2.647  -1.159  11.934
   77POPC   NC312849  25.675  18.560   8.905
   77POPC   PO412850  25.499  18.466   8.920
   77POPC   GL112851  25.323  18.372   8.935
   77POPC   GL212852  25.331  18.342   8.840
   77POPC   C1A12853  25.147  18.278   8.950
   77POPC   D2A12854  24.971  18.185   8.965
   77POPC   C3A12855  24.795  18.091   8.980
   77POPC   C4A12856  24.619  17.997   8.995
   77POPC   C1B12857  25.241  18.112   9.011
   77POPC   C2B12858  25.065  18.019   9.026
   77POPC   C3B12859  24.889  17.925   9.041
   77POPC   C4B12860  24.713  17.831   9.056
   78POPC   NC312861  24.823  17.316  16.993
   78POPC   PO412862  24.656  17.236  16.918
   78POPC   GL112863  24.489  17.156  16.843
   78POPC   GL212864  24.542  17.084  16.799
   78POPC   C1A12865  24.321  17.077  16.768
   78POPC   D2A12866  24.154  16.997  16.693
   78POPC   C3A12867  23.986  16.918  16.618
   78POPC   C4A12868  23.819  16.838  16.543
   78POPC   C1B12869  24.302  16.963  16.931
   78POPC   C2B12870  24.135  16.883  16.856
   78POPC   C3B12871  23.967  16.804  16.781
   78POPC   C4B12872  23.800  16.724  16.706
   79POPC   NC312873  -6.987   8.497   3.689
   79POPC   PO412874  -6.800   8.511   3.759
   79POPC   GL112875  -6.613   8.525   3.829
   79POPC   GL212876  -6.629   8.446   3.887
   79POPC   C1A12877  -6.426   8.539   3.898
   79POPC   D2A12878  -6.239   8.553   3.968
   79POPC   C3A12879  -6.052   8.567   4.037
   79POPC   C4A12880  -5.865   8.581   4.107
   79POPC   C1B12881  -6.363   8.418   3.752
   79POPC   C2B12882  -6.176   8.432   3.822
   79POPC   C3B12883  -5.989   8.446   3.891
   79POPC   C4B12884  -5.802   8.460   3.961
   80POPC   NC312885   5.110  26.902   5.535
   80POPC   PO412886   5.161  26.715   5.583
   80POPC   GL112887   5.212  26.528   5.631
   80POPC   GL212888   5.220  26.555   5.727
   80POPC   C1A12889   5.264  26.341   5.679
   80POPC   D2A12890   5.315  26.153   5.727
   80POPC   C3A12891   5.367  25.966   5.775
   80POPC   C4A12892   5.418  25.779   5.823
   80POPC   C1B12893   5.071  26.295   5.707
   80POPC   C2B12894   5.123  26.108   5.755
   80POPC   C3B12895   5.174  25.921   5.803
   80POPC   C4B12896   5.225  25.733   5.851
   81POPC   NC312897  20.863  22.436  16.715
   81POPC   PO412898  20.740  22.296  16.641
   81POPC   GL112899  20.617  22.156  16.567
   81POPC   GL212900  20.593  22.217  16.492
   81POPC   C1A12901  20.495  22.016  16.494
   81POPC   D2A12902  20.372  21.877  16.420
   81POPC   C3A12903  20.250  21.737  16.347
   81POPC   C4A12904  20.127  21.597  16.273
   81POPC   C1B12905  20.645  21.942  16.385
   81POPC   C2B12906  20.522  21.802  16.311
   81POPC   C3B12907  20.400  21.663  16.237
   81POPC   C4B12908  20.277  21.523  16.164
   82POPC   NC312909  25.593   3.676  16.224
   82POPC   PO412910  25.417   3.742  16.155
   82POPC   GL112911  25.241   3.808  16.086
   82POPC   GL212912  25.288   3.859  16.014
   82POPC   C1A12913  25.065   3.875  16.018
   82POPC   D2A12914  24.890   3.941  15.949
   82POPC   C3A12915  24.714   4.008  15.881
   82POPC   C4A12916  24.538   4.074  15.812
   82POPC   C1B12917  25.052   3.715  15.898
   82POPC   C2B12918  24.876   3.782  15.829
   82POPC   C3B12919  24.700   3.848  15.761
   82POPC   C4B12920  24.525   3.915  15.692
   83POPC   NC312921  18.329  24.989  15.301
   83POPC   PO412922  18.233  24.826  15.236
   83POPC   GL112923  18.137  24.663  15.171
   83POPC   GL212924  18.190  24.666  15.086
   83POPC   C1A12925  18.041  24.500  15.106
   83POPC   D2A12926  17.946  24.336  15.042
   83POPC   C3A12927  17.850  24.173  14.977
   83POPC   C4A12928  17.754  24.010  14.912
   83POPC   C1B12929  18.182  24.384  15.190
   83POPC   C2B12930  18.086  24.221  15.125
   83POPC   C3B12931  17.990  24.058  15.060
   83POPC   C4B12932  17.894  23.894  14.995
   84POPC   NC312933  -4.341   6.054  -0.521
   84POPC   PO412934  -4.184   6.091  -0.403
   84POPC   GL112935  -4.027   6.128  -0.285
   84POPC   GL212936  -4.083   6.110  -0.204
   84POPC   C1A12937  -3.870   6.165  -0.167
   84POPC   D2A12938  -3.712   6.202  -0.049
   84POPC   C3A12939  -3.555   6.239   0.069
   84POPC   C4A12940  -3.398   6.276   0.187
   84POPC   C1B12941  -3.819   5.972  -0.174
   84POPC   C2B12942  -3.661   6.009  -0.056
   84POPC   C3B12943  -3.504   6.046   0.062
   84POPC   C4B12944  -3.347   6.083   0.180
   85POPC   NC312945  26.165  10.116  17.733
   85POPC   PO412946  25.986  10.113  17.644
   85POPC   GL112947  25.807  10.110  17.555
   85POPC   GL212948  25.844  10.053  17.482
   85POPC   C1A12949  25.628  10.107  17.466
   85POPC   D2A12950  25.449  10.104  17.376
   85POPC   C3A12951  25.270  10.101  17.287
   85POPC   C4A12952  25.091  10.098  17.198
   85POPC   C1B12953  25.579   9.943  17.569
   85POPC   C2B12954  25.400   9.940  17.480
   85POPC   C3B12955  25.221   9.937  17.391
   85POPC   C4B12956  25.042   9.934  17.302
   86POPC   NC312957  10.340  -1.192  -4.239
   86POPC   PO412958  10.331  -1.070  -4.081
   86POPC   GL112959  10.322  -0.948  -3.923
   86POPC   GL212960  10.417  -0.970  -3.900
   86POPC   C1A12961  10.313  -0.825  -3.765
   86POPC   D2A12962  10.305  -0.703  -3.607
   86POPC   C3A12963  10.296  -0.580  -3.449
   86POPC   C4A12964  10.287  -0.458  -3.291
   86POPC   C1B12965  10.377  -0.674  -3.879
   86POPC   C2B12966  10.368  -0.551  -3.721
   86POPC   C3B12967  10.359  -0.429  -3.563
   86POPC   C4B12968  10.350  -0.306  -3.405
   87POPC   NC312969  -2.627  22.863   7.970
   87POPC   PO412970  -2.494  22.715   7.993
   87POPC   GL112971  -2.361  22.567   8.016
   87POPC   GL212972  -2.309  22.624   8.079
   87POPC   C1A12973  -2.229  22.419   8.038
   87POPC   D2A12974  -2.096  22.271   8.061
   87POPC   C3A12975  -1.964  22.123   8.083
   87POPC   C4A12976  -1.831  21.975   8.106
   87POPC   C1B12977  -2.336  22.347   8.191
   87POPC   C2B12978  -2.203  22.199   8.214
   87POPC   C3B12979  -2.071  22.051   8.236
   87POPC   C4B12980  -1.938  21.903   8.259
   88POPC   NC312981  10.797  24.338  -0.957
   88POPC   PO412982  10.791  24.179  -0.836
   88POPC   GL112983  10.785  24.020  -0.715
   88POPC   GL212984  10.825  23.963  -0.787
   88POPC   C1A12985  10.778  23.861  -0.593
   88POPC   D2A12986  10.772  23.703  -0.472
   88POPC   C3A12987  10.765  23.544  -0.350
   88POPC   C4A12988  10.759  23.385  -0.229
   88POPC   C1B12989  10.961  23.905  -0.526
   88POPC   C2B12990  10.955  23.747  -0.405
   88POPC   C3B12991  10.949  23.588  -0.283
   88POPC   C4B12992  10.942  23.429  -0.162
   89POPC   NC312993   3.764  22.186  -1.927
   89POPC   PO412994   3.828  22.046  -1.799
   89POPC   GL112995   3.892  21.906  -1.671
   89POPC   GL212996   3.920  21.977  -1.607
   89POPC   C1A12997   3.956  21.766  -1.544
   89POPC   D2A12998   4.020  21.626  -1.416
   89POPC   C3A12999   4.084  21.486  -1.289
   89POPC   C4A13000   4.148  21.346  -1.161
   89POPC   C1B13001   3.775  21.761  -1.458
   89POPC   C2B13002   3.839  21.621  -1.331
   89POPC   C3B13003   3.903  21.481  -1.203
   89POPC   C4B13004   3.967  21.341  -1.076
   90POPC   NC313005   5.171  26.793  14.575
   90POPC   PO413006   5.225  26.609  14.520
   90POPC   GL113007   5.279  26.425  14.465
   90POPC   GL213008   5.341  26.463  14.396
   90POPC   C1A13009   5.334  26.240  14.409
   90POPC   D2A13010   5.388  26.056  14.354
   90POPC   C3A13011   5.443  25.871  14.298
   90POPC   C4A13012   5.497  25.687  14.243
   90POPC   C1B13013   5.482  26.244  14.544
   90POPC   C2B13014   5.536  26.059  14.488
   90POPC   C3B13015   5.591  25.875  14.433
   90POPC   C4B13016   5.645  25.690  14.377
   91POPC   NC313017  17.475  22.789  20.129
   91POPC   PO413018  17.389  22.644  20.022
   91POPC   GL113019  17.303  22.499  19.915
   91POPC   GL213020  17.328  22.432  19.984
   91POPC   C1A13021  17.217  22.354  19.807
   91POPC   D2A13022  17.130  22.209  19.700
   91POPC   C3A13023  17.044  22.064  19.592
   91POPC   C4A13024  16.958  21.919  19.485
   91POPC   C1B13025  17.044  22.387  19.902
   91POPC   C2B13026  16.957  22.242  19.795
   91POPC   C3B13027  16.871  22.097  19.687
   91POPC   C4B13028  16.785  21.952  19.580
   92POPC   NC313029  17.318  18.961  -3.850
   92POPC   PO413030  17.234  18.864  -3.697
   92POPC   GL113031  17.150  18.767  -3.544
   92POPC   GL213032  17.160  18.680  -3.593
   92POPC   C1A13033  17.066  18.670  -3.390
   92POPC   D2A13034  16.982  18.572  -3.237
   92POPC   C3A13035  16.898  18.475  -3.083
   92POPC   C4A13036  16.814  18.378  -2.930
   92POPC   C1B13037  17.246  18.644  -3.308
   92POPC   C2B13038  17.162  18.546  -3.155
   92POPC   C3B13039  17.078  18.449  -3.001
   92POPC   C4B13040  16.994  18.352  -2.848
   93POPC   NC313041  23.726   6.326  -1.080
   93POPC   PO413042  23.572   6.365  -0.958
   93POPC   GL113043  23.418   6.404  -0.836
   93POPC   GL213044  23.365   6.438  -0.914
   93POPC   C1A13045  23.264   6.444  -0.715
   93POPC   D2A13046  23.111   6.483  -0.593
   93POPC   C3A13047  22.957   6.523  -0.472
   93POPC   C4A13048  22.803   6.562  -0.350
   93POPC   C1B13049  23.193   6.259  -0.745
   93POPC   C2B13050  23.040   6.299  -0.623
   93POPC   C3B13051  22.886   6.338  -0.502
   93POPC   C4B13052  22.732   6.377  -0.380
   94POPC   NC313053  13.616  -7.634  11.442
   94POPC   PO413054  13.576  -7.439  11.423
   94POPC   GL113055  13.536  -7.244  11.404
   94POPC   GL213056  13.550  -7.250  11.305
   94POPC   C1A13057  13.495  -7.049  11.385
   94POPC   D2A13058  13.455  -6.854  11.366
   94POPC   C3A13059  13.414  -6.659  11.347
   94POPC   C4A13060  13.374  -6.464  11.328
   94POPC   C1B13061  13.302  -7.092  11.359
   94POPC   C2B13062  13.261  -6.897  11.340
   94POPC   C3B13063  13.221  -6.702  11.321
   94POPC   C4B13064  13.180  -6.507  11.302
   95POPC   NC313065  21.290   2.822  -1.980
   95POPC   PO413066  21.163   2.903  -1.848
   95POPC   GL113067  21.036   2.984  -1.716
   95POPC   GL213068  21.107   3.047  -1.686
   95POPC   C1A13069  20.909   3.065  -1.585
   95POPC   D2A13070  20.782   3.146  -1.453
   95POPC   C3A13071  20.655   3.227  -1.322
   95POPC   C4A13072  20.528   3.308  -1.190
   95POPC   C1B13073  20.851   3.197  -1.723
   95POPC   C2B13074  20.724   3.278  -1.591
   95POPC   C3B13075  20.597   3.359  -1.460
   95POPC   C4B13076  20.470   3.440  -1.328
   96POPC   NC313077  -0.125  23.013   2.580
   96POPC   PO413078  -0.015  22.866   2.660
   96POPC   GL113079   0.095  22.719   2.740
   96POPC   GL213080   0.175  22.779   2.741
   96POPC   C1A13081   0.205  22.572   2.819
   96POPC   D2A13082   0.314  22.425   2.899
   96POPC   C3A13083   0.424  22.278   2.978
   96POPC   C4A13084   0.534  22.131   3.058
   96POPC   C1B13085   0.154  22.634   3.003
   96POPC   C2B13086   0.264  22.487   3.082
   96POPC   C3B13087   0.374  22.340   3.162
   96POPC   C4B13088   0.484  22.193   3.241
   97POPC   NC313089  11.573   2.581  -6.436
   97POPC   PO413090  11.556   2.662  -6.254
   97POPC   GL113091  11.539   2.743  -6.072
   97POPC   GL213092  11.635   2.770  -6.075
   97POPC   C1A13093  11.522   2.823  -5.890
   97POPC   D2A13094  11.504   2.904  -5.707
   97POPC   C3A13095  11.487   2.984  -5.525
   97POPC   C4A13096  11.470   3.065  -5.343
   97POPC   C1B13097  11.469   2.998  -5.972
   97POPC   C2B13098  11.452   3.078  -5.790
   97POPC   C3B13099  11.435   3.159  -5.607
   97POPC   C4B13100  11.417   3.240  -5.425
   98POPC   NC313101  -7.247   9.605   4.328
   98POPC   PO413102  -7.056   9.606   4.388
   98POPC   GL113103  -6.865   9.607   4.448
   98POPC   GL213104  -6.884   9.531   4.510
   98POPC   C1A13105  -6.675   9.609   4.509
   98POPC   D2A13106  -6.484   9.610   4.569
   98POPC   C3A13107  -6.294   9.612   4.630
   98POPC   C4A13108  -6.103   9.613   4.690
   98POPC   C1B13109  -6.628   9.480   4.363
   98POPC   C2B13110  -6.437   9.482   4.423
   98POPC   C3B13111  -6.247   9.483   4.484
   98POPC   C4B13112  -6.056   9.485   4.544
   99POPC   NC313113   8.833  -7.431   5.256
   99POPC   PO413114   8.847  -7.238   5.308
   99POPC   GL113115   8.861  -7.045   5.360
   99POPC   GL213116   8.961  -7.051   5.354
   99POPC   C1A13117   8.875  -6.853   5.412
   99POPC   D2A13118   8.889  -6.660   5.463
   99POPC   C3A13119   8.903  -6.468   5.515
   99POPC   C4A13120   8.917  -6.275   5.567
   99POPC   C1B13121   8.866  -6.800   5.219
   99POPC   C2B13122   8.880  -6.608   5.271
   99POPC   C3B13123   8.894  -6.415   5.322
   99POPC   C4B13124   8.908  -6.223   5.374
  100POPC   NC313125   9.789  -7.572   5.613
  100POPC   PO413126   9.795  -7.378   5.660
  100POPC   GL113127   9.801  -7.184   5.707
  100POPC   GL213128   9.900  -7.183   5.688
  100POPC   C1A13129   9.808  -6.989   5.753
  100POPC   D2A13130   9.814  -6.795   5.800
  100POPC   C3A13131   9.821  -6.600   5.846
  100POPC   C4A13132   9.827  -6.406   5.893
  100POPC   C1B13133   9.772  -6.942   5.562
  100POPC   C2B13134   9.778  -6.748   5.609
  100POPC   C3B13135   9.785  -6.553   5.655
  100POPC   C4B13136   9.791  -6.359   5.702
  101POPC   NC313137  -2.215  19.965   0.921
  101POPC   PO413138  -2.081  19.854   1.019
  101POPC   GL113139  -1.947  19.743   1.117
  101POPC   GL213140  -1.997  19.758   1.203
  101POPC   C1A13141  -1.813  19.632   1.216
  101POPC   D2A13142  -1.679  19.520   1.314
  101POPC   C3A13143  -1.545  19.409   1.413
  101POPC   C4A13144  -1.411  19.298   1.511
  101POPC   C1B13145  -1.923  19.468   1.180
  101POPC   C2B13146  -1.789  19.357   1.279
  101POPC   C3B13147  -1.655  19.246   1.377
  101POPC   C4B13148  -1.521  19.135   1.476
  102POPC   NC313149  20.650  -2.302  17.589
  102POPC   PO413150  20.529  -2.166  17.506
  102POPC   GL113151  20.408  -2.030  17.423
  102POPC   GL213152  20.488  -1.983  17.384
  102POPC   C1A13153  20.287  -1.894  17.341
  102POPC   D2A13154  20.167  -1.757  17.258
  102POPC   C3A13155  20.046  -1.621  17.176
  102POPC   C4A13156  19.925  -1.485  17.093
  102POPC   C1B13157  20.272  -2.007  17.177
  102POPC   C2B13158  20.151  -1.871  17.094
  102POPC   C3B13159  20.030  -1.734  17.011
  102POPC   C4B13160  19.910  -1.598  16.929
  103POPC   NC313161   4.945  26.496   4.334
  103POPC   PO413162   4.999  26.314   4.397
  103POPC   GL113163   5.053  26.132   4.460
  103POPC   GL213164   5.034  26.159   4.554
  103POPC   C1A13165   5.107  25.950   4.523
  103POPC   D2A13166   5.161  25.768   4.585
  103POPC   C3A13167   5.215  25.586   4.648
  103POPC   C4A13168   5.269  25.404   4.711
  103POPC   C1B13169   4.918  25.887   4.503
  103POPC   C2B13170   4.972  25.705   4.565
  103POPC   C3B13171   5.026  25.523   4.628
  103POPC   C4B13172   5.080  25.341   4.691
  104POPC   NC313173  21.848  18.809  -0.298
  104POPC   PO413174  21.716  18.707  -0.188
  104POPC   GL113175  21.584  18.605  -0.078
  104POPC   GL213176  21.659  18.560  -0.029
  104POPC   C1A13177  21.452  18.502   0.032
  104POPC   D2A13178  21.321  18.400   0.143
  104POPC   C3A13179  21.189  18.297   0.253
  104POPC   C4A13180  21.057  18.195   0.363
  104POPC   C1B13181  21.451  18.650   0.168
  104POPC   C2B13182  21.319  18.547   0.278
  104POPC   C3B13183  21.187  18.445   0.388
  104POPC   C4B13184  21.056  18.342   0.498
  105POPC   NC313185   2.345   8.803  -6.454
  105POPC   PO413186   2.429   8.815  -6.273
  105POPC   GL113187   2.513   8.827  -6.092
  105POPC   GL213188   2.477   8.736  -6.070
  105POPC   C1A13189   2.596   8.839  -5.911
  105POPC   D2A13190   2.680   8.850  -5.729
  105POPC   C3A13191   2.763   8.862  -5.548
  105POPC   C4A13192   2.847   8.874  -5.367
  105POPC   C1B13193   2.764   8.756  -5.983
  105POPC   C2B13194   2.847   8.768  -5.801
  105POPC   C3B13195   2.931   8.780  -5.620
  105POPC   C4B13196   3.014   8.792  -5.439
  106POPC   NC313197  22.600  18.570  19.443
  106POPC   PO413198  22.461  18.474  19.336
  106POPC   GL113199  22.322  18.378  19.229
  106POPC   GL213200  22.393  18.317  19.192
  106POPC   C1A13201  22.184  18.282  19.121
  106POPC   D2A13202  22.045  18.185  19.014
  106POPC   C3A13203  21.907  18.089  18.906
  106POPC   C4A13204  21.768  17.993  18.799
  106POPC   C1B13205  22.155  18.154  19.273
  106POPC   C2B13206  22.016  18.058  19.165
  106POPC   C3B13207  21.878  17.962  19.058
  106POPC   C4B13208  21.739  17.866  18.951
  107POPC   NC313209  -7.314  14.699  13.028
  107POPC   PO413210  -7.125  14.644  12.995
  107POPC   GL113211  -6.936  14.589  12.962
  107POPC   GL213212  -6.905  14.682  12.983
  107POPC   C1A13213  -6.746  14.534  12.928
  107POPC   D2A13214  -6.557  14.480  12.895
  107POPC   C3A13215  -6.367  14.425  12.861
  107POPC   C4A13216  -6.178  14.370  12.828
  107POPC   C1B13217  -6.727  14.483  13.121
  107POPC   C2B13218  -6.538  14.429  13.087
  107POPC   C3B13219  -6.348  14.374  13.054
  107POPC   C4B13220  -6.159  14.319  13.020
  108POPC   NC313221  11.310  27.315   5.135
  108POPC   PO413222  11.291  27.123   5.188
  108POPC   GL113223  11.272  26.931   5.241
  108POPC   GL213224  11.326  26.948   5.323
  108POPC   C1A13225  11.253  26.739   5.293
  108POPC   D2A13226  11.233  26.547   5.346
  108POPC   C3A13227  11.214  26.355   5.398
  108POPC   C4A13228  11.195  26.163   5.451
  108POPC   C1B13229  11.086  26.783   5.394
  108POPC   C2B13230  11.067  26.591   5.447
  108POPC   C3B13231  11.047  26.399   5.500
  108POPC   C4B13232  11.028  26.207   5.552
  109POPC   NC313233  24.311  15.360  19.411
  109POPC   PO413234  24.151  15.304  19.305
  109POPC   GL113235  23.991  15.248  19.199
  109POPC   GL213236  23.977  15.343  19.171
  109POPC   C1A13237  23.830  15.192  19.094
  109POPC   D2A13238  23.670  15.137  18.988
  109POPC   C3A13239  23.509  15.081  18.883
  109POPC   C4A13240  23.349  15.025  18.777
  109POPC   C1B13241  23.946  15.161  18.934
  109POPC   C2B13242  23.786  15.105  18.828
  109POPC   C3B13243  23.626  15.049  18.723
  109POPC   C4B13244  23.465  14.994  18.617
  110POPC   NC313245   6.004  -5.396  18.604
  110POPC   PO413246   6.045  -5.226  18.507
  110POPC   GL113247   6.086  -5.056  18.410
  110POPC   GL213248   6.180  -5.059  18.445
  110POPC   C1A13249   6.127  -4.886  18.313
  110POPC   D2A13250   6.167  -4.715  18.216
  110POPC   C3A13251   6.208  -4.545  18.119
  110POPC   C4A13252   6.249  -4.375  18.022
  110POPC   C1B13253   6.183  -4.991  18.152
  110POPC   C2B13254   6.224  -4.820  18.055
  110POPC   C3B13255   6.264  -4.650  17.958
  110POPC   C4B13256   6.305  -4.480  17.861
  111POPC   NC313257   7.007  16.359  26.629
  111POPC   PO413258   7.032  16.291  26.442
  111POPC   GL113259   7.057  16.223  26.255
  111POPC   GL213260   7.155  16.212  26.273
  111POPC   C1A13261   7.082  16.156  26.069
  111POPC   D2A13262   7.108  16.088  25.882
  111POPC   C3A13263   7.133  16.021  25.696
  111POPC   C4A13264   7.158  15.953  25.509
  111POPC   C1B13265   7.050  15.969  26.132
  111POPC   C2B13266   7.075  15.901  25.946
  111POPC   C3B13267   7.100  15.834  25.759
  111POPC   C4B13268   7.125  15.766  25.572
  112POPC   NC313269  -2.074  15.079  22.434
  112POPC   PO413270  -1.946  15.022  22.291
  112POPC   GL113271  -1.818  14.965  22.148
  112POPC   GL213272  -1.742  14.975  22.212
  112POPC   C1A13273  -1.690  14.908  22.005
  112POPC   D2A13274  -1.563  14.851  21.863
  112POPC   C3A13275  -1.435  14.794  21.720
  112POPC   C4A13276  -1.307  14.737  21.577
  112POPC   C1B13277  -1.713  14.717  22.061
  112POPC   C2B13278  -1.585  14.660  21.918
  112POPC   C3B13279  -1.458  14.603  21.776
  112POPC   C4B13280  -1.330  14.546  21.633
  113POPC   NC313281   4.130   0.783  -4.521
  113POPC   PO413282   4.198   0.888  -4.365
  113POPC   GL113283   4.266   0.993  -4.209
  113POPC   GL213284   4.212   0.936  -4.147
  113POPC   C1A13285   4.334   1.098  -4.053
  113POPC   D2A13286   4.402   1.202  -3.896
  113POPC   C3A13287   4.470   1.307  -3.740
  113POPC   C4A13288   4.538   1.412  -3.584
  113POPC   C1B13289   4.488   0.971  -4.034
  113POPC   C2B13290   4.556   1.076  -3.878
  113POPC   C3B13291   4.624   1.180  -3.722
  113POPC   C4B13292   4.692   1.285  -3.566
  114POPC   NC313293   1.973   6.804  -6.027
  114POPC   PO413294   2.060   6.837  -5.850
  114POPC   GL113295   2.147   6.870  -5.673
  114POPC   GL213296   2.148   6.772  -5.655
  114POPC   C1A13297   2.235   6.903  -5.496
  114POPC   D2A13298   2.322   6.936  -5.320
  114POPC   C3A13299   2.410   6.969  -5.143
  114POPC   C4A13300   2.497   7.002  -4.966
  114POPC   C1B13301   2.415   6.888  -5.582
  114POPC   C2B13302   2.502   6.921  -5.406
  114POPC   C3B13303   2.590   6.954  -5.229
  114POPC   C4B13304   2.677   6.987  -5.052
  115POPC   NC313305  13.406  16.466  26.334
  115POPC   PO413306  13.370  16.393  26.151
  115POPC   GL113307  13.334  16.320  25.968
  115POPC   GL213308  13.366  16.230  25.998
  115POPC   C1A13309  13.297  16.247  25.786
  115POPC   D2A13310  13.261  16.173  25.603
  115POPC   C3A13311  13.224  16.100  25.421
  115POPC   C4A13312  13.188  16.027  25.238
  115POPC   C1B13313  13.112  16.197  25.843
  115POPC   C2B13314  13.075  16.124  25.660
  115POPC   C3B13315  13.039  16.051  25.477
  115POPC   C4B13316  13.003  15.978  25.295
  116POPC   NC313317  -0.788  11.033  24.469
  116POPC   PO413318  -0.668  11.017  24.310
  116POPC   GL113319  -0.548  11.001  24.151
  116POPC   GL213320  -0.472  10.977  24.211
  116POPC   C1A13321  -0.428  10.984  23.992
  116POPC   D2A13322  -0.307  10.968  23.833
  116POPC   C3A13323  -0.187  10.951  23.674
  116POPC   C4A13324  -0.067  10.935  23.515
  116POPC   C1B13325  -0.475  10.791  23.976
  116POPC   C2B13326  -0.355  10.774  23.817
  116POPC   C3B13327  -0.235  10.758  23.658
  116POPC   C4B13328  -0.114  10.741  23.499
  117POPC   NC313329  -1.026  -4.392   9.096
  117POPC   PO413330  -0.904  -4.233   9.101
  117POPC   GL113331  -0.782  -4.074   9.106
  117POPC   GL213332  -0.704  -4.134   9.090
  117POPC   C1A13333  -0.661  -3.916   9.112
  117POPC   D2A13334  -0.539  -3.757   9.117
  117POPC   C3A13335  -0.418  -3.599   9.123
  117POPC   C4A13336  -0.296  -3.440   9.128
  117POPC   C1B13337  -0.683  -3.892   8.914
  117POPC   C2B13338  -0.562  -3.733   8.920
  117POPC   C3B13339  -0.440  -3.575   8.925
  117POPC   C4B13340  -0.318  -3.416   8.931
  118POPC   NC313341   4.945  -6.875   5.746
  118POPC   PO413342   4.999  -6.689   5.795
  118POPC   GL113343   5.053  -6.503   5.844
  118POPC   GL213344   5.148  -6.531   5.850
  118POPC   C1A13345   5.106  -6.316   5.893
  118POPC   D2A13346   5.160  -6.130   5.941
  118POPC   C3A13347   5.213  -5.943   5.990
  118POPC   C4A13348   5.267  -5.757   6.039
  118POPC   C1B13349   5.131  -6.273   5.699
  118POPC   C2B13350   5.185  -6.086   5.748
  118POPC   C3B13351   5.238  -5.900   5.797
  118POPC   C4B13352   5.292  -5.713   5.845
  119POPC   NC313353  -2.511  12.051  -2.998
  119POPC   PO413354  -2.377  12.031  -2.851
  119POPC   GL113355  -2.243  12.011  -2.704
  119POPC   GL213356  -2.274  12.097  -2.663
  119POPC   C1A13357  -2.108  11.991  -2.557
  119POPC   D2A13358  -1.974  11.971  -2.411
  119POPC   C3A13359  -1.839  11.951  -2.264
  119POPC   C4A13360  -1.705  11.931  -2.117
  119POPC   C1B13361  -2.242  11.890  -2.449
  119POPC   C2B13362  -2.108  11.870  -2.302
  119POPC   C3B13363  -1.973  11.850  -2.155
  119POPC   C4B13364  -1.839  11.830  -2.008
  120POPC   NC313365  22.280  18.879  19.571
  120POPC   PO413366  22.144  18.780  19.463
  120POPC   GL113367  22.008  18.681  19.355
  120POPC   GL213368  22.080  18.620  19.321
  120POPC   C1A13369  21.872  18.582  19.247
  120POPC   D2A13370  21.736  18.482  19.138
  120POPC   C3A13371  21.600  18.383  19.030
  120POPC   C4A13372  21.464  18.284  18.922
  120POPC   C1B13373  21.839  18.458  19.401
  120POPC   C2B13374  21.703  18.359  19.292
  120POPC   C3B13375  21.567  18.260  19.184
  120POPC   C4B13376  21.431  18.161  19.076
  121POPC   NC313377   2.164  19.374  -3.502
  121POPC   PO413378   2.251  19.274  -3.352
  121POPC   GL113379   2.338  19.174  -3.202
  121POPC   GL213380   2.252  19.176  -3.151
  121POPC   C1A13381   2.425  19.074  -3.052
  121POPC   D2A13382   2.512  18.975  -2.902
  121POPC   C3A13383   2.599  18.875  -2.752
  121POPC   C4A13384   2.686  18.775  -2.602
  121POPC   C1B13385   2.371  18.901  -3.136
  121POPC   C2B13386   2.458  18.801  -2.986
  121POPC   C3B13387   2.545  18.702  -2.836
  121POPC   C4B13388   2.632  18.602  -2.686
  122POPC   NC313389   8.951  27.375   5.109
  122POPC   PO413390   8.959  27.182   5.161
  122POPC   GL113391   8.967  26.989   5.213
  122POPC   GL213392   9.062  26.984   5.180
  122POPC   C1A13393   8.975  26.796   5.264
  122POPC   D2A13394   8.984  26.603   5.316
  122POPC   C3A13395   8.992  26.410   5.367
  122POPC   C4A13396   9.000  26.217   5.419
  122POPC   C1B13397   9.041  26.847   5.446
  122POPC   C2B13398   9.049  26.654   5.498
  122POPC   C3B13399   9.057  26.461   5.549
  122POPC   C4B13400   9.065  26.268   5.601
  123POPC   NC313401  23.722  16.100   0.090
  123POPC   PO413402  23.567  16.034   0.197
  123POPC   GL113403  23.412  15.968   0.304
  123POPC   GL213404  23.349  15.997   0.232
  123POPC   C1A13405  23.256  15.901   0.411
  123POPC   D2A13406  23.101  15.835   0.518
  123POPC   C3A13407  22.945  15.768   0.625
  123POPC   C4A13408  22.790  15.702   0.732
  123POPC   C1B13409  23.273  15.722   0.324
  123POPC   C2B13410  23.118  15.656   0.431
  123POPC   C3B13411  22.962  15.589   0.538
  123POPC   C4B13412  22.807  15.523   0.645
  124POPC   NC313413  21.075  24.079   8.655
  124POPC   PO413414  20.957  23.918   8.667
  124POPC   GL113415  20.839  23.757   8.679
  124POPC   GL213416  20.814  23.768   8.583
  124POPC   C1A13417  20.721  23.596   8.690
  124POPC   D2A13418  20.603  23.434   8.702
  124POPC   C3A13419  20.485  23.273   8.713
  124POPC   C4A13420  20.367  23.112   8.725
  124POPC   C1B13421  20.874  23.479   8.636
  124POPC   C2B13422  20.756  23.318   8.648
  124POPC   C3B13423  20.638  23.157   8.659
  124POPC   C4B13424  20.520  22.996   8.671
  125POPC   NC313425  -1.451  23.960  12.022
  125POPC   PO413426  -1.325  23.806  12.003
  125POPC   GL113427  -1.199  23.652  11.984
  125POPC   GL213428  -1.124  23.708  12.018
  125POPC   C1A13429  -1.074  23.497  11.965
  125POPC   D2A13430  -0.948  23.343  11.946
  125POPC   C3A13431  -0.823  23.188  11.927
  125POPC   C4A13432  -0.697  23.034  11.908
  125POPC   C1B13433  -1.115  23.440  12.152
  125POPC   C2B13434  -0.990  23.286  12.133
  125POPC   C3B13435  -0.864  23.131  12.114
  125POPC   C4B13436  -0.739  22.977  12.095
  126POPC   NC313437  21.879  22.976   6.201
  126POPC   PO413438  21.744  22.835   6.243
  126POPC   GL113439  21.609  22.694   6.285
  126POPC   GL213440  21.550  22.729   6.212
  126POPC   C1A13441  21.473  22.553   6.327
  126POPC   D2A13442  21.338  22.412   6.370
  126POPC   C3A13443  21.202  22.271   6.412
  126POPC   C4A13444  21.067  22.130   6.454
  126POPC   C1B13445  21.561  22.429   6.197
  126POPC   C2B13446  21.426  22.288   6.239
  126POPC   C3B13447  21.290  22.147   6.282
  126POPC   C4B13448  21.155  22.006   6.324
  127POPC   NC313449  -5.134   3.301  17.548
  127POPC   PO413450  -4.969   3.379  17.467
  127POPC   GL113451  -4.804   3.457  17.386
  127POPC   GL213452  -4.775   3.366  17.356
  127POPC   C1A13453  -4.638   3.536  17.306
  127POPC   D2A13454  -4.473   3.614  17.225
  127POPC   C3A13455  -4.307   3.693  17.145
  127POPC   C4A13456  -4.142   3.771  17.064
  127POPC   C1B13457  -4.735   3.564  17.133
  127POPC   C2B13458  -4.570   3.642  17.053
  127POPC   C3B13459  -4.405   3.720  16.972
  127POPC   C4B13460  -4.239   3.799  16.891
  128POPC   NC313461   6.053  21.401  23.326
  128POPC   PO413462   6.095  21.272  23.180
  128POPC   GL113463   6.137  21.143  23.034
  128POPC   GL213464   6.215  21.108  23.086
  128POPC   C1A13465   6.179  21.013  22.887
  128POPC   D2A13466   6.222  20.884  22.741
  128POPC   C3A13467   6.264  20.754  22.594
  128POPC   C4A13468   6.306  20.625  22.448
  128POPC   C1B13469   6.061  20.877  22.973
  128POPC   C2B13470   6.103  20.748  22.827
  128POPC   C3B13471   6.145  20.618  22.680
  128POPC   C4B13472   6.187  20.489  22.534
  129POPC   NC313473  22.530   0.095   1.699
  129POPC   PO413474  22.391   0.203   1.793
  129POPC   GL113475  22.252   0.311   1.887
  129POPC   GL213476  22.319   0.384   1.903
  129POPC   C1A13477  22.113   0.420   1.981
  129POPC   D2A13478  21.973   0.528   2.076
  129POPC   C3A13479  21.834   0.637   2.170
  129POPC   C4A13480  21.695   0.745   2.264
  129POPC   C1B13481  22.062   0.505   1.808
  129POPC   C2B13482  21.923   0.614   1.902
  129POPC   C3B13483  21.783   0.722   1.996
  129POPC   C4B13484  21.644   0.831   2.091
  130POPC   NC313485  -0.963  23.161  15.874
  130POPC   PO413486  -0.846  23.012  15.809
  130POPC   GL113487  -0.729  22.863  15.744
  130POPC   GL213488  -0.695  22.849  15.837
  130POPC   C1A13489  -0.612  22.714  15.679
  130POPC   D2A13490  -0.495  22.566  15.615
  130POPC   C3A13491  -0.378  22.417  15.550
  130POPC   C4A13492  -0.261  22.268  15.485
  130POPC   C1B13493  -0.759  22.584  15.714
  130POPC   C2B13494  -0.642  22.435  15.649
  130POPC   C3B13495  -0.525  22.286  15.584
  130POPC   C4B13496  -0.408  22.137  15.519
  131POPC   NC313497  17.215  23.037  -0.105
  131POPC   PO413498  17.129  22.893   0.004
  131POPC   GL113499  17.043  22.749   0.113
  131POPC   GL213500  16.991  22.719   0.033
  131POPC   C1A13501  16.956  22.606   0.222
  131POPC   D2A13502  16.870  22.462   0.332
  131POPC   C3A13503  16.783  22.319   0.441
  131POPC   C4A13504  16.697  22.175   0.550
  131POPC   C1B13505  17.104  22.480   0.174
  131POPC   C2B13506  17.018  22.337   0.283
  131POPC   C3B13507  16.931  22.193   0.393
  131POPC   C4B13508  16.845  22.049   0.502
  132POPC   NC313509  10.956  -3.454  -2.096
  132POPC   PO413510  10.944  -3.306  -1.962
  132POPC   GL113511  10.932  -3.158  -1.828
  132POPC   GL213512  11.021  -3.184  -1.791
  132POPC   C1A13513  10.919  -3.010  -1.694
  132POPC   D2A13514  10.907  -2.861  -1.561
  132POPC   C3A13515  10.894  -2.713  -1.427
  132POPC   C4A13516  10.882  -2.565  -1.293
  132POPC   C1B13517  11.010  -2.886  -1.823
  132POPC   C2B13518  10.998  -2.738  -1.689
  132POPC   C3B13519  10.985  -2.590  -1.555
  132POPC   C4B13520  10.973  -2.441  -1.421
  133POPC   NC313521  -3.165  10.647  -2.474
  133POPC   PO413522  -3.021  10.642  -2.336
  133POPC   GL113523  -2.877  10.637  -2.198
  133POPC   GL213524  -2.920  10.713  -2.150
  133POPC   C1A13525  -2.733  10.632  -2.059
  133POPC   D2A13526  -2.588  10.627  -1.921
  133POPC   C3A13527  -2.444  10.622  -1.782
  133POPC   C4A13528  -2.300  10.617  -1.644
  133POPC   C1B13529  -2.841  10.503  -1.951
  133POPC   C2B13530  -2.697  10.498  -1.813
  133POPC   C3B13531  -2.552  10.493  -1.674
  133POPC   C4B13532  -2.408  10.488  -1.536
  134POPC   NC313533  15.856  15.381  26.111
  134POPC   PO413534  15.793  15.317  25.932
  134POPC   GL113535  15.730  15.253  25.753
  134POPC   GL213536  15.735  15.347  25.718
  134POPC   C1A13537  15.667  15.189  25.574
  134POPC   D2A13538  15.603  15.126  25.396
  134POPC   C3A13539  15.540  15.062  25.217
  134POPC   C4A13540  15.477  14.998  25.038
  134POPC   C1B13541  15.856  15.158  25.519
  134POPC   C2B13542  15.793  15.094  25.340
  134POPC   C3B13543  15.730  15.030  25.161
  134POPC   C4B13544  15.667  14.967  24.982
  135POPC   NC313545  -2.904  22.720  11.194
  135POPC   PO413546  -2.762  22.579  11.184
  135POPC   GL113547  -2.620  22.438  11.174
  135POPC   GL213548  -2.568  22.486  11.244
  135POPC   C1A13549  -2.478  22.298  11.164
  135POPC   D2A13550  -2.337  22.157  11.154
  135POPC   C3A13551  -2.195  22.017  11.144
  135POPC   C4A13552  -2.053  21.876  11.134
  135POPC   C1B13553  -2.572  22.193  11.306
  135POPC   C2B13554  -2.431  22.052  11.296
  135POPC   C3B13555  -2.289  21.912  11.286
  135POPC   C4B13556  -2.147  21.771  11.276
  136POPC   NC313557   2.208  22.588  -0.483
  136POPC   PO413558   2.292  22.445  -0.372
  136POPC   GL113559   2.376  22.302  -0.261
  136POPC   GL213560   2.396  22.369  -0.189
  136POPC   C1A13561   2.460  22.159  -0.149
  136POPC   D2A13562   2.545  22.016  -0.038
  136POPC   C3A13563   2.629  21.873   0.074
  136POPC   C4A13564   2.713  21.730   0.185
  136POPC   C1B13565   2.284  22.121  -0.064
  136POPC   C2B13566   2.368  21.978   0.048
  136POPC   C3B13567   2.452  21.835   0.159
  136POPC   C4B13568   2.536  21.692   0.271
  137POPC   NC313569  26.953   4.481   7.936
  137POPC   PO413570  26.764   4.542   7.958
  137POPC   GL113571  26.575   4.603   7.980
  137POPC   GL213572  26.579   4.649   7.891
  137POPC   C1A13573  26.386   4.664   8.002
  137POPC   D2A13574  26.196   4.725   8.023
  137POPC   C3A13575  26.007   4.786   8.045
  137POPC   C4A13576  25.818   4.847   8.067
  137POPC   C1B13577  26.322   4.497   7.912
  137POPC   C2B13578  26.132   4.558   7.934
  137POPC   C3B13579  25.943   4.619   7.956
  137POPC   C4B13580  25.754   4.680   7.978
  138POPC   NC313581   1.783  -5.717  13.712
  138POPC   PO413582   1.873  -5.543  13.673
  138POPC   GL113583   1.963  -5.369  13.634
  138POPC   GL213584   2.017  -5.413  13.563
  138POPC   C1A13585   2.052  -5.194  13.595
  138POPC   D2A13586   2.142  -5.020  13.556
  138POPC   C3A13587   2.231  -4.845  13.517
  138POPC   C4A13588   2.321  -4.671  13.478
  138POPC   C1B13589   1.911  -5.152  13.460
  138POPC   C2B13590   2.000  -4.977  13.421
  138POPC   C3B13591   2.090  -4.803  13.382
  138POPC   C4B13592   2.180  -4.628  13.343
  139POPC   NC313593  21.163  20.718  19.004
  139POPC   PO413594  21.038  20.595  18.909
  139POPC   GL113595  20.913  20.472  18.814
  139POPC   GL213596  20.991  20.425  18.771
  139POPC   C1A13597  20.788  20.348  18.718
  139POPC   D2A13598  20.662  20.225  18.623
  139POPC   C3A13599  20.537  20.101  18.527
  139POPC   C4A13600  20.412  19.978  18.432
  139POPC   C1B13601  20.796  20.221  18.872
  139POPC   C2B13602  20.670  20.098  18.777
  139POPC   C3B13603  20.545  19.974  18.682
  139POPC   C4B13604  20.420  19.851  18.586
  140POPC   NC313605  11.922  -5.429   0.753
  140POPC   PO413606  11.900  -5.259   0.856
  140POPC   GL113607  11.878  -5.089   0.959
  140POPC   GL213608  11.962  -5.108   1.009
  140POPC   C1A13609  11.856  -4.919   1.062
  140POPC   D2A13610  11.834  -4.749   1.165
  140POPC   C3A13611  11.812  -4.579   1.268
  140POPC   C4A13612  11.790  -4.409   1.371
  140POPC   C1B13613  11.961  -4.821   0.923
  140POPC   C2B13614  11.939  -4.651   1.026
  140POPC   C3B13615  11.917  -4.481   1.129
  140POPC   C4B13616  11.895  -4.311   1.232
  141POPC   NC313617  10.061  21.993  -3.492
  141POPC   PO413618  10.059  21.860  -3.342
  141POPC   GL113619  10.057  21.727  -3.192
  141POPC   GL213620  10.131  21.777  -3.147
  141POPC   C1A13621  10.054  21.594  -3.043
  141POPC   D2A13622  10.052  21.462  -2.893
  141POPC   C3A13623  10.049  21.329  -2.744
  141POPC   C4A13624  10.047  21.196  -2.594
  141POPC   C1B13625   9.921  21.707  -2.945
  141POPC   C2B13626   9.918  21.574  -2.796
  141POPC   C3B13627   9.916  21.441  -2.646
  141POPC   C4B13628   9.913  21.308  -2.496
  142POPC   NC313629  10.609  -7.452   5.102
  142POPC   PO413630  10.606  -7.259   5.156
  142POPC   GL113631  10.603  -7.066   5.210
  142POPC   GL213632  10.652  -7.089   5.294
  142POPC   C1A13633  10.600  -6.874   5.263
  142POPC   D2A13634  10.597  -6.681   5.317
  142POPC   C3A13635  10.594  -6.489   5.370
  142POPC   C4A13636  10.591  -6.296   5.424
  142POPC   C1B13637  10.774  -6.845   5.169
  142POPC   C2B13638  10.771  -6.652   5.223
  142POPC   C3B13639  10.768  -6.460   5.276
  142POPC   C4B13640  10.765  -6.267   5.330
  143POPC   NC313641  24.042  17.232  18.577
  143POPC   PO413642  23.886  17.151  18.481
  143POPC   GL113643  23.730  17.070  18.385
  143POPC   GL213644  23.741  17.137  18.312
  143POPC   C1A13645  23.574  16.990  18.289
  143POPC   D2A13646  23.418  16.909  18.194
  143POPC   C3A13647  23.262  16.829  18.098
  143POPC   C4A13648  23.106  16.748  18.002
  143POPC   C1B13649  23.697  16.865  18.194
  143POPC   C2B13650  23.541  16.784  18.098
  143POPC   C3B13651  23.385  16.704  18.002
  143POPC   C4B13652  23.229  16.623  17.906
  144POPC   NC313653   8.487  18.403  25.896
  144POPC   PO413654   8.502  18.310  25.720
  144POPC   GL113655   8.517  18.217  25.544
  144POPC   GL213656   8.606  18.261  25.529
  144POPC   C1A13657   8.533  18.124  25.367
  144POPC   D2A13658   8.548  18.031  25.191
  144POPC   C3A13659   8.564  17.938  25.014
  144POPC   C4A13660   8.579  17.845  24.838
  144POPC   C1B13661   8.624  17.970  25.457
  144POPC   C2B13662   8.639  17.877  25.280
  144POPC   C3B13663   8.654  17.784  25.104
  144POPC   C4B13664   8.670  17.691  24.927
  145POPC   NC313665  -7.297   5.335  12.857
  145POPC   PO413666  -7.107   5.387  12.825
  145POPC   GL113667  -6.917   5.439  12.793
  145POPC   GL213668  -6.904   5.454  12.891
  145POPC   C1A13669  -6.727   5.491  12.760
  145POPC   D2A13670  -6.536   5.544  12.728
  145POPC   C3A13671  -6.346   5.596  12.695
  145POPC   C4A13672  -6.156   5.648  12.663
  145POPC   C1B13673  -6.671   5.301  12.781
  145POPC   C2B13674  -6.480   5.353  12.749
  145POPC   C3B13675  -6.290   5.405  12.717
  145POPC   C4B13676  -6.100   5.457  12.684
  146POPC   NC313677  -3.217  22.433  10.550
  146POPC   PO413678  -3.073  22.295  10.544
  146POPC   GL113679  -2.929  22.157  10.538
  146POPC   GL213680  -2.895  22.188  10.627
  146POPC   C1A13681  -2.785  22.018  10.532
  146POPC   D2A13682  -2.640  21.880  10.527
  146POPC   C3A13683  -2.496  21.741  10.521
  146POPC   C4A13684  -2.352  21.603  10.515
  146POPC   C1B13685  -2.906  21.888  10.624
  146POPC   C2B13686  -2.762  21.750  10.618
  146POPC   C3B13687  -2.617  21.611  10.612
  146POPC   C4B13688  -2.473  21.473  10.606
  147POPC   NC313689  18.320  -0.548  -2.082
  147POPC   PO413690  18.225  -0.432  -1.949
  147POPC   GL113691  18.130  -0.316  -1.816
  147POPC   GL213692  18.093  -0.261  -1.891
  147POPC   C1A13693  18.035  -0.200  -1.684
  147POPC   D2A13694  17.941  -0.085  -1.551
  147POPC   C3A13695  17.846   0.031  -1.419
  147POPC   C4A13696  17.751   0.147  -1.286
  147POPC   C1B13697  17.876  -0.320  -1.693
  147POPC   C2B13698  17.781  -0.205  -1.561
  147POPC   C3B13699  17.686  -0.089  -1.428
  147POPC   C4B13700  17.591   0.027  -1.295
  148POPC   NC313701  24.769  18.690   4.823
  148POPC   PO413702  24.603  18.591   4.875
  148POPC   GL113703  24.437  18.492   4.927
  148POPC   GL213704  24.421  18.470   4.831
  148POPC   C1A13705  24.272  18.392   4.979
  148POPC   D2A13706  24.106  18.293   5.030
  148POPC   C3A13707  23.941  18.193   5.082
  148POPC   C4A13708  23.775  18.094   5.134
  148POPC   C1B13709  24.379  18.224   4.999
  148POPC   C2B13710  24.213  18.125   5.050
  148POPC   C3B13711  24.048  18.026   5.102
  148POPC   C4B13712  23.882  17.926   5.154
  149POPC   NC313713  25.412  11.785   0.978
  149POPC   PO413714  25.241  11.766   1.079
  149POPC   GL113715  25.070  11.747   1.180
  149POPC   GL213716  25.041  11.837   1.149
  149POPC   C1A13717  24.899  11.727   1.282
  149POPC   D2A13718  24.727  11.708   1.383
  149POPC   C3A13719  24.556  11.688   1.485
  149POPC   C4A13720  24.385  11.669   1.586
  149POPC   C1B13721  24.813  11.644   1.121
  149POPC   C2B13722  24.642  11.624   1.223
  149POPC   C3B13723  24.471  11.605   1.324
  149POPC   C4B13724  24.299  11.586   1.426
  150POPC   NC313725   3.104  22.186  21.391
  150POPC   PO413726   3.176  22.050  21.263
  150POPC   GL113727   3.248  21.914  21.135
  150POPC   GL213728   3.243  21.845  21.207
  150POPC   C1A13729   3.319  21.778  21.007
  150POPC   D2A13730   3.391  21.643  20.879
  150POPC   C3A13731   3.462  21.507  20.751
  150POPC   C4A13732   3.534  21.371  20.623
  150POPC   C1B13733   3.133  21.732  20.951
  150POPC   C2B13734   3.204  21.597  20.823
  150POPC   C3B13735   3.276  21.461  20.695
  150POPC   C4B13736   3.347  21.325  20.567
  151POPC   NC313737  25.954  15.966  15.523
  151POPC   PO413738  25.774  15.903  15.461
  151POPC   GL113739  25.594  15.840  15.399
  151POPC   GL213740  25.607  15.890  15.313
  151POPC   C1A13741  25.415  15.778  15.337
  151POPC   D2A13742  25.235  15.715  15.274
  151POPC   C3A13743  25.056  15.653  15.212
  151POPC   C4A13744  24.876  15.590  15.150
  151POPC   C1B13745  25.499  15.616  15.255
  151POPC   C2B13746  25.320  15.554  15.193
  151POPC   C3B13747  25.140  15.491  15.130
  151POPC   C4B13748  24.961  15.428  15.068
  152POPC   NC313749  14.934  17.411  -5.707
  152POPC   PO413750  14.881  17.328  -5.533
  152POPC   GL113751  14.828  17.245  -5.359
  152POPC   GL213752  14.874  17.161  -5.385
  152POPC   C1A13753  14.775  17.163  -5.185
  152POPC   D2A13754  14.722  17.080  -5.010
  152POPC   C3A13755  14.669  16.998  -4.836
  152POPC   C4A13756  14.616  16.915  -4.662
  152POPC   C1B13757  14.945  17.229  -5.102
  152POPC   C2B13758  14.892  17.146  -4.928
  152POPC   C3B13759  14.839  17.063  -4.753
  152POPC   C4B13760  14.786  16.981  -4.579
  153POPC   NC313761  15.032   2.564  -5.732
  153POPC   PO413762  14.980   2.644  -5.556
  153POPC   GL113763  14.928   2.724  -5.380
  153POPC   GL213764  14.853   2.774  -5.425
  153POPC   C1A13765  14.875   2.804  -5.205
  153POPC   D2A13766  14.823   2.884  -5.029
  153POPC   C3A13767  14.770   2.964  -4.854
  153POPC   C4A13768  14.718   3.044  -4.678
  153POPC   C1B13769  14.752   2.650  -5.171
  153POPC   C2B13770  14.700   2.730  -4.996
  153POPC   C3B13771  14.647   2.810  -4.820
  153POPC   C4B13772  14.595   2.890  -4.645
  154POPC   NC313773  22.575   2.795  -0.604
  154POPC   PO413774  22.437   2.877  -0.485
  154POPC   GL113775  22.299   2.959  -0.366
  154POPC   GL213776  22.334   3.050  -0.388
  154POPC   C1A13777  22.161   3.042  -0.247
  154POPC   D2A13778  22.022   3.124  -0.129
  154POPC   C3A13779  21.884   3.207  -0.010
  154POPC   C4A13780  21.746   3.289   0.109
  154POPC   C1B13781  22.035   3.054  -0.402
  154POPC   C2B13782  21.897   3.137  -0.284
  154POPC   C3B13783  21.759   3.219  -0.165
  154POPC   C4B13784  21.620   3.302  -0.046
  155POPC   NC313785  21.335   5.753  -3.344
  155POPC   PO413786  21.209   5.803  -3.197
  155POPC   GL113787  21.083   5.853  -3.050
  155POPC   GL213788  21.007   5.812  -3.101
  155POPC   C1A13789  20.957   5.902  -2.903
  155POPC   D2A13790  20.831   5.952  -2.755
  155POPC   C3A13791  20.705   6.001  -2.608
  155POPC   C4A13792  20.579   6.051  -2.461
  155POPC   C1B13793  20.992   5.726  -2.814
  155POPC   C2B13794  20.866   5.776  -2.667
  155POPC   C3B13795  20.740   5.826  -2.519
  155POPC   C4B13796  20.614   5.875  -2.372
  156POPC   NC313797  26.307  16.224  14.059
  156POPC   PO413798  26.124  16.158  14.012
  156POPC   GL113799  25.941  16.092  13.965
  156POPC   GL213800  25.981  16.032  13.895
  156POPC   C1A13801  25.758  16.026  13.918
  156POPC   D2A13802  25.576  15.960  13.870
  156POPC   C3A13803  25.393  15.894  13.823
  156POPC   C4A13804  25.210  15.828  13.776
  156POPC   C1B13805  25.776  15.880  14.053
  156POPC   C2B13806  25.593  15.814  14.006
  156POPC   C3B13807  25.411  15.748  13.959
  156POPC   C4B13808  25.228  15.682  13.911
  157POPC   NC313809  22.667  22.651  11.406
  157POPC   PO413810  22.525  22.512  11.383
  157POPC   GL113811  22.383  22.373  11.360
  157POPC   GL213812  22.434  22.333  11.285
  157POPC   C1A13813  22.241  22.234  11.338
  157POPC   D2A13814  22.098  22.096  11.315
  157POPC   C3A13815  21.956  21.957  11.293
  157POPC   C4A13816  21.814  21.818  11.270
  157POPC   C1B13817  22.336  22.115  11.467
  157POPC   C2B13818  22.194  21.977  11.444
  157POPC   C3B13819  22.052  21.838  11.422
  157POPC   C4B13820  21.910  21.699  11.399
  158POPC   NC313821   2.732  -5.703   4.483
  158POPC   PO413822   2.809  -5.528   4.542
  158POPC   GL113823   2.886  -5.353   4.601
  158POPC   GL213824   2.905  -5.392   4.692
  158POPC   C1A13825   2.964  -5.179   4.661
  158POPC   D2A13826   3.041  -5.004   4.720
  158POPC   C3A13827   3.119  -4.830   4.780
  158POPC   C4A13828   3.196  -4.655   4.839
  158POPC   C1B13829   3.144  -5.237   4.598
  158POPC   C2B13830   3.222  -5.063   4.657
  158POPC   C3B13831   3.299  -4.888   4.717
  158POPC   C4B13832   3.377  -4.714   4.776
  159POPC   NC313833   5.948  -2.762  -2.215
  159POPC   PO413834   5.991  -2.621  -2.080
  159POPC   GL113835   6.034  -2.480  -1.945
  159POPC   GL213836   6.090  -2.432  -2.013
  159POPC   C1A13837   6.077  -2.339  -1.810
  159POPC   D2A13838   6.120  -2.197  -1.675
  159POPC   C3A13839   6.163  -2.056  -1.540
  159POPC   C4A13840   6.206  -1.915  -1.405
  159POPC   C1B13841   5.916  -2.234  -1.868
  159POPC   C2B13842   5.959  -2.093  -1.733
  159POPC   C3B13843   6.002  -1.952  -1.598
  159POPC   C4B13844   6.045  -1.811  -1.463
  160POPC   NC313845  11.840   0.503  -5.274
  160POPC   PO413846  11.818   0.610  -5.107
  160POPC   GL113847  11.796   0.717  -4.940
  160POPC   GL213848  11.831   0.798  -4.987
  160POPC   C1A13849  11.774   0.825  -4.772
  160POPC   D2A13850  11.753   0.932  -4.605
  160POPC   C3A13851  11.731   1.040  -4.437
  160POPC   C4A13852  11.709   1.147  -4.270
  160POPC   C1B13853  11.588   0.873  -4.827
  160POPC   C2B13854  11.567   0.980  -4.660
  160POPC   C3B13855  11.545   1.088  -4.493
  160POPC   C4B13856  11.523   1.195  -4.325
  161POPC   NC313857  -3.976  13.308  21.039
  161POPC   PO413858  -3.822  13.276  20.915
  161POPC   GL113859  -3.668  13.244  20.791
  161POPC   GL213860  -3.627  13.182  20.858
  161POPC   C1A13861  -3.514  13.213  20.667
  161POPC   D2A13862  -3.361  13.181  20.543
  161POPC   C3A13863  -3.207  13.150  20.419
  161POPC   C4A13864  -3.053  13.118  20.295
  161POPC   C1B13865  -3.612  13.059  20.584
  161POPC   C2B13866  -3.459  13.028  20.460
  161POPC   C3B13867  -3.305  12.996  20.336
  161POPC   C4B13868  -3.151  12.964  20.212
  162POPC   NC313869  -1.348  12.877  -3.850
  162POPC   PO413870  -1.225  12.849  -3.695
  162POPC   GL113871  -1.102  12.821  -3.540
  162POPC   GL213872  -1.114  12.916  -3.513
  162POPC   C1A13873  -0.979  12.792  -3.385
  162POPC   D2A13874  -0.857  12.764  -3.229
  162POPC   C3A13875  -0.734  12.735  -3.074
  162POPC   C4A13876  -0.611  12.707  -2.919
  162POPC   C1B13877  -1.136  12.742  -3.270
  162POPC   C2B13878  -1.013  12.713  -3.115
  162POPC   C3B13879  -0.890  12.685  -2.960
  162POPC   C4B13880  -0.767  12.657  -2.805
  163POPC   NC313881  25.220   2.446  15.791
  163POPC   PO413882  25.050   2.531  15.729
  163POPC   GL113883  24.880   2.616  15.667
  163POPC   GL213884  24.912   2.612  15.572
  163POPC   C1A13885  24.710   2.700  15.605
  163POPC   D2A13886  24.539   2.785  15.542
  163POPC   C3A13887  24.369   2.869  15.480
  163POPC   C4A13888  24.199   2.954  15.418
  163POPC   C1B13889  24.627   2.519  15.584
  163POPC   C2B13890  24.457   2.604  15.521
  163POPC   C3B13891  24.287   2.688  15.459
  163POPC   C4B13892  24.117   2.773  15.397
  164POPC   NC313893  13.728   4.769  26.786
  164POPC   PO413894  13.683   4.822  26.599
  164POPC   GL113895  13.638   4.875  26.412
  164POPC   GL213896  13.659   4.783  26.380
  164POPC   C1A13897  13.593   4.929  26.224
  164POPC   D2A13898  13.548   4.982  26.037
  164POPC   C3A13899  13.503   5.036  25.849
  164POPC   C4A13900  13.458   5.089  25.662
  164POPC   C1B13901  13.403   4.876  26.255
  164POPC   C2B13902  13.358   4.929  26.067
  164POPC   C3B13903  13.313   4.983  25.880
  164POPC   C4B13904  13.268   5.036  25.693
  165POPC   NC313905  -6.200   4.833   3.370
  165POPC   PO413906  -6.021   4.886   3.441
  165POPC   GL113907  -5.842   4.939   3.512
  165POPC   GL213908  -5.884   4.967   3.598
  165POPC   C1A13909  -5.663   4.992   3.583
  165POPC   D2A13910  -5.483   5.046   3.655
  165POPC   C3A13911  -5.304   5.099   3.726
  165POPC   C4A13912  -5.125   5.152   3.797
  165POPC   C1B13913  -5.636   4.808   3.655
  165POPC   C2B13914  -5.457   4.861   3.726
  165POPC   C3B13915  -5.278   4.914   3.798
  165POPC   C4B13916  -5.099   4.967   3.869
  166POPC   NC313917  11.151  21.430  -3.922
  166POPC   PO413918  11.139  21.302  -3.769
  166POPC   GL113919  11.127  21.174  -3.616
  166POPC   GL213920  11.179  21.238  -3.559
  166POPC   C1A13921  11.115  21.046  -3.462
  166POPC   D2A13922  11.102  20.919  -3.309
  166POPC   C3A13923  11.090  20.791  -3.155
  166POPC   C4A13924  11.078  20.663  -3.002
  166POPC   C1B13925  10.945  21.134  -3.403
  166POPC   C2B13926  10.933  21.006  -3.249
  166POPC   C3B13927  10.920  20.878  -3.096
  166POPC   C4B13928  10.908  20.750  -2.943
  167POPC   NC313929  -4.230  19.407  16.148
  167POPC   PO413930  -4.073  19.303  16.082
  167POPC   GL113931  -3.916  19.199  16.016
  167POPC   GL213932  -3.855  19.275  16.040
  167POPC   C1A13933  -3.759  19.095  15.949
  167POPC   D2A13934  -3.601  18.990  15.883
  167POPC   C3A13935  -3.444  18.886  15.816
  167POPC   C4A13936  -3.287  18.782  15.750
  167POPC   C1B13937  -3.733  19.017  16.132
  167POPC   C2B13938  -3.576  18.913  16.065
  167POPC   C3B13939  -3.419  18.808  15.999
  167POPC   C4B13940  -3.262  18.704  15.932
  168POPC   NC313941  -6.124   7.359   1.991
  168POPC   PO413942  -5.946   7.386   2.078
  168POPC   GL113943  -5.768   7.413   2.165
  168POPC   GL213944  -5.776   7.323   2.208
  168POPC   C1A13945  -5.590   7.440   2.251
  168POPC   D2A13946  -5.411   7.467   2.338
  168POPC   C3A13947  -5.233   7.494   2.424
  168POPC   C4A13948  -5.055   7.521   2.511
  168POPC   C1B13949  -5.500   7.355   2.094
  168POPC   C2B13950  -5.322   7.382   2.180
  168POPC   C3B13951  -5.144   7.409   2.267
  168POPC   C4B13952  -4.966   7.436   2.353
  169POPC   NC313953  23.386  -1.316  13.732
  169POPC   PO413954  23.237  -1.190  13.688
  169POPC   GL113955  23.088  -1.064  13.644
  169POPC   GL213956  23.149  -1.013  13.583
  169POPC   C1A13957  22.939  -0.938  13.600
  169POPC   D2A13958  22.790  -0.813  13.556
  169POPC   C3A13959  22.641  -0.687  13.512
  169POPC   C4A13960  22.492  -0.561  13.468
  169POPC   C1B13961  22.884  -1.056  13.448
  169POPC   C2B13962  22.735  -0.930  13.404
  169POPC   C3B13963  22.586  -0.805  13.360
  169POPC   C4B13964  22.437  -0.679  13.316
  170POPC   NC313965  14.488  12.948  -7.267
  170POPC   PO413966  14.438  12.914  -7.076
  170POPC   GL113967  14.388  12.880  -6.885
  170POPC   GL213968  14.304  12.833  -6.916
  170POPC   C1A13969  14.337  12.846  -6.695
  170POPC   D2A13970  14.287  12.811  -6.504
  170POPC   C3A13971  14.236  12.777  -6.314
  170POPC   C4A13972  14.186  12.743  -6.123
  170POPC   C1B13973  14.436  12.672  -6.700
  170POPC   C2B13974  14.386  12.638  -6.509
  170POPC   C3B13975  14.336  12.604  -6.319
  170POPC   C4B13976  14.285  12.569  -6.128
  171POPC   NC313977  23.594  12.582  -1.421
  171POPC   PO413978  23.441  12.558  -1.295
  171POPC   GL113979  23.288  12.534  -1.169
  171POPC   GL213980  23.231  12.501  -1.244
  171POPC   C1A13981  23.134  12.510  -1.043
  171POPC   D2A13982  22.981  12.486  -0.917
  171POPC   C3A13983  22.827  12.462  -0.791
  171POPC   C4A13984  22.674  12.438  -0.665
  171POPC   C1B13985  23.194  12.323  -1.006
  171POPC   C2B13986  23.041  12.299  -0.880
  171POPC   C3B13987  22.887  12.275  -0.754
  171POPC   C4B13988  22.734  12.251  -0.628
  172POPC   NC313989   6.864  25.073  19.425
  172POPC   PO413990   6.897  24.906  19.320
  172POPC   GL113991   6.930  24.739  19.215
  172POPC   GL213992   7.025  24.738  19.246
  172POPC   C1A13993   6.963  24.572  19.110
  172POPC   D2A13994   6.997  24.405  19.005
  172POPC   C3A13995   7.030  24.238  18.900
  172POPC   C4A13996   7.063  24.071  18.795
  172POPC   C1B13997   6.911  24.462  19.268
  172POPC   C2B13998   6.944  24.295  19.163
  172POPC   C3B13999   6.977  24.128  19.058
  172POPC   C4B14000   7.010  23.961  18.953
  173POPC   NC314001  23.403  10.486  -1.907
  173POPC   PO414002  23.250  10.479  -1.779
  173POPC   GL114003  23.097  10.472  -1.651
  173POPC   GL214004  23.064  10.389  -1.694
  173POPC   C1A14005  22.944  10.465  -1.522
  173POPC   D2A14006  22.790  10.459  -1.394
  173POPC   C3A14007  22.637  10.452  -1.265
  173POPC   C4A14008  22.484  10.445  -1.137
  173POPC   C1B14009  23.054  10.356  -1.396
  173POPC   C2B14010  22.901  10.349  -1.268
  173POPC   C3B14011  22.748  10.343  -1.139
  173POPC   C4B14012  22.594  10.336  -1.011
  174POPC   NC314013   6.805  -1.628  -3.548
  174POPC   PO414014   6.840  -1.498  -3.400
  174POPC   GL114015   6.875  -1.368  -3.252
  174POPC   GL214016   6.945  -1.323  -3.308
  174POPC   C1A14017   6.910  -1.237  -3.105
  174POPC   D2A14018   6.944  -1.107  -2.957
  174POPC   C3A14019   6.979  -0.976  -2.810
  174POPC   C4A14020   7.014  -0.846  -2.662
  174POPC   C1B14021   6.771  -1.114  -3.181
  174POPC   C2B14022   6.806  -0.984  -3.033
  174POPC   C3B14023   6.841  -0.854  -2.886
  174POPC   C4B14024   6.876  -0.723  -2.738
  175POPC   NC314025  -6.273  18.154   9.330
  175POPC   PO414026  -6.093  18.067   9.336
  175POPC   GL114027  -5.913  17.980   9.342
  175POPC   GL214028  -5.951  17.906   9.397
  175POPC   C1A14029  -5.733  17.893   9.347
  175POPC   D2A14030  -5.553  17.805   9.353
  175POPC   C3A14031  -5.373  17.718   9.358
  175POPC   C4A14032  -5.193  17.631   9.364
  175POPC   C1B14033  -5.777  17.790   9.181
  175POPC   C2B14034  -5.597  17.703   9.187
  175POPC   C3B14035  -5.417  17.616   9.192
  175POPC   C4B14036  -5.237  17.529   9.198
  176POPC   NC314037  -7.439   9.306   4.980
  176POPC   PO414038  -7.247   9.310   5.035
  176POPC   GL114039  -7.055   9.314   5.090
  176POPC   GL214040  -7.079   9.275   5.178
  176POPC   C1A14041  -6.862   9.317   5.145
  176POPC   D2A14042  -6.670   9.321   5.199
  176POPC   C3A14043  -6.477   9.324   5.254
  176POPC   C4A14044  -6.285   9.328   5.309
  176POPC   C1B14045  -6.838   9.133   5.070
  176POPC   C2B14046  -6.645   9.137   5.125
  176POPC   C3B14047  -6.453   9.140   5.180
  176POPC   C4B14048  -6.260   9.144   5.235
  177POPC   NC314049  24.554   6.399   0.027
  177POPC   PO414050  24.391   6.436   0.137
  177POPC   GL114051  24.228   6.473   0.247
  177POPC   GL214052  24.177   6.495   0.164
  177POPC   C1A14053  24.065   6.510   0.357
  177POPC   D2A14054  23.903   6.547   0.468
  177POPC   C3A14055  23.740   6.584   0.578
  177POPC   C4A14056  23.577   6.621   0.688
  177POPC   C1B14057  24.010   6.318   0.341
  177POPC   C2B14058  23.848   6.355   0.451
  177POPC   C3B14059  23.685   6.392   0.561
  177POPC   C4B14060  23.522   6.429   0.671
  178POPC   NC314061  20.992   3.396  -2.593
  178POPC   PO414062  20.868   3.471  -2.456
  178POPC   GL114063  20.744   3.546  -2.319
  178POPC   GL214064  20.816   3.607  -2.287
  178POPC   C1A14065  20.619   3.622  -2.182
  178POPC   D2A14066  20.495   3.697  -2.044
  178POPC   C3A14067  20.370   3.773  -1.907
  178POPC   C4A14068  20.246   3.848  -1.770
  178POPC   C1B14069  20.560   3.761  -2.312
  178POPC   C2B14070  20.435   3.837  -2.175
  178POPC   C3B14071  20.311   3.912  -2.038
  178POPC   C4B14072  20.187   3.988  -1.900
  179POPC   NC314073  -2.825   3.550  21.002
  179POPC   PO414074  -2.690   3.622  20.873
  179POPC   GL114075  -2.555   3.694  20.744
  179POPC   GL214076  -2.518   3.602  20.732
  179POPC   C1A14077  -2.420   3.766  20.615
  179POPC   D2A14078  -2.286   3.838  20.486
  179POPC   C3A14079  -2.151   3.910  20.357
  179POPC   C4A14080  -2.016   3.982  20.228
  179POPC   C1B14081  -2.548   3.734  20.464
  179POPC   C2B14082  -2.413   3.806  20.335
  179POPC   C3B14083  -2.278   3.878  20.206
  179POPC   C4B14084  -2.143   3.950  20.077
  180POPC   NC314085   9.070  -3.336  22.082
  180POPC   PO414086   9.074  -3.189  21.946
  180POPC   GL114087   9.078  -3.042  21.810
  180POPC   GL214088   9.081  -2.974  21.884
  180POPC   C1A14089   9.082  -2.895  21.675
  180POPC   D2A14090   9.086  -2.748  21.539
  180POPC   C3A14091   9.090  -2.601  21.404
  180POPC   C4A14092   9.094  -2.454  21.268
  180POPC   C1B14093   9.282  -2.902  21.673
  180POPC   C2B14094   9.286  -2.755  21.537
  180POPC   C3B14095   9.290  -2.608  21.402
  180POPC   C4B14096   9.294  -2.461  21.266
  181POPC   NC314097  18.380  -5.075   4.896
  181POPC   PO414098  18.289  -4.907   4.953
  181POPC   GL114099  18.198  -4.739   5.010
  181POPC   GL214100  18.286  -4.694   5.020
  181POPC   C1A14101  18.106  -4.570   5.068
  181POPC   D2A14102  18.015  -4.402   5.125
  181POPC   C3A14103  17.923  -4.233   5.183
  181POPC   C4A14104  17.832  -4.065   5.240
  181POPC   C1B14105  18.097  -4.510   4.877
  181POPC   C2B14106  18.006  -4.342   4.935
  181POPC   C3B14107  17.914  -4.173   4.992
  181POPC   C4B14108  17.823  -4.005   5.049
  182POPC   NC314109  16.999   0.578  23.610
  182POPC   PO414110  16.918   0.683  23.460
  182POPC   GL114111  16.837   0.788  23.310
  182POPC   GL214112  16.875   0.723  23.244
  182POPC   C1A14113  16.757   0.893  23.160
  182POPC   D2A14114  16.676   0.999  23.011
  182POPC   C3A14115  16.596   1.104  22.861
  182POPC   C4A14116  16.515   1.209  22.711
  182POPC   C1B14117  16.590   0.785  23.174
  182POPC   C2B14118  16.509   0.890  23.024
  182POPC   C3B14119  16.428   0.995  22.874
  182POPC   C4B14120  16.348   1.100  22.725
  183POPC   NC314121  13.090  19.540  24.889
  183POPC   PO414122  13.055  19.438  24.721
  183POPC   GL114123  13.020  19.336  24.553
  183POPC   GL214124  13.113  19.353  24.523
  183POPC   C1A14125  12.984  19.233  24.385
  183POPC   D2A14126  12.949  19.131  24.217
  183POPC   C3A14127  12.913  19.028  24.049
  183POPC   C4A14128  12.878  18.926  23.881
  183POPC   C1B14129  13.045  19.065  24.475
  183POPC   C2B14130  13.009  18.963  24.307
  183POPC   C3B14131  12.974  18.860  24.139
  183POPC   C4B14132  12.938  18.758  23.971
  184POPC   NC314133  20.452  10.748  -4.656
  184POPC   PO414134  20.338  10.740  -4.492
  184POPC   GL114135  20.224  10.732  -4.328
  184POPC   GL214136  20.197  10.827  -4.342
  184POPC   C1A14137  20.109  10.723  -4.164
  184POPC   D2A14138  19.995  10.715  -4.001
  184POPC   C3A14139  19.880  10.706  -3.837
  184POPC   C4A14140  19.766  10.698  -3.673
  184POPC   C1B14141  19.954  10.665  -4.276
  184POPC   C2B14142  19.839  10.657  -4.112
  184POPC   C3B14143  19.725  10.648  -3.948
  184POPC   C4B14144  19.610  10.640  -3.785
  185POPC   NC314145  18.924  23.544  17.506
  185POPC   PO414146  18.819  23.395  17.423
  185POPC   GL114147  18.714  23.246  17.340
  185POPC   GL214148  18.758  23.181  17.402
  185POPC   C1A14149  18.609  23.098  17.258
  185POPC   D2A14150  18.503  22.949  17.175
  185POPC   C3A14151  18.398  22.801  17.093
  185POPC   C4A14152  18.293  22.652  17.010
  185POPC   C1B14153  18.463  23.126  17.392
  185POPC   C2B14154  18.358  22.978  17.309
  185POPC   C3B14155  18.253  22.829  17.227
  185POPC   C4B14156  18.147  22.680  17.144
  186POPC   NC314157   3.316  23.111  20.456
  186POPC   PO414158   3.385  22.965  20.338
  186POPC   GL114159   3.454  22.819  20.220
  186POPC   GL214160   3.516  22.884  20.176
  186POPC   C1A14161   3.523  22.673  20.102
  186POPC   D2A14162   3.593  22.528  19.983
  186POPC   C3A14163   3.662  22.382  19.865
  186POPC   C4A14164   3.731  22.236  19.747
  186POPC   C1B14165   3.665  22.631  20.237
  186POPC   C2B14166   3.734  22.485  20.119
  186POPC   C3B14167   3.803  22.339  20.000
  186POPC   C4B14168   3.872  22.194  19.882
  187POPC   NC314169   4.241   2.149  -5.384
  187POPC   PO414170   4.307   2.236  -5.217
  187POPC   GL114171   4.373   2.323  -5.050
  187POPC   GL214172   4.443   2.252  -5.041
  187POPC   C1A14173   4.440   2.410  -4.883
  187POPC   D2A14174   4.506   2.498  -4.715
  187POPC   C3A14175   4.573   2.585  -4.548
  187POPC   C4A14176   4.639   2.672  -4.381
  187POPC   C1B14177   4.566   2.521  -4.991
  187POPC   C2B14178   4.633   2.608  -4.823
  187POPC   C3B14179   4.699   2.696  -4.656
  187POPC   C4B14180   4.766   2.783  -4.489
  188POPC   NC314181  18.933  15.886  24.292
  188POPC   PO414182  18.823  15.823  24.137
  188POPC   GL114183  18.713  15.760  23.982
  188POPC   GL214184  18.795  15.759  23.925
  188POPC   C1A14185  18.603  15.696  23.828
  188POPC   D2A14186  18.493  15.633  23.673
  188POPC   C3A14187  18.383  15.569  23.519
  188POPC   C4A14188  18.273  15.506  23.364
  188POPC   C1B14189  18.638  15.507  23.881
  188POPC   C2B14190  18.528  15.443  23.726
  188POPC   C3B14191  18.418  15.380  23.571
  188POPC   C4B14192  18.308  15.316  23.417
  189POPC   NC314193  13.034   2.281  -6.087
  189POPC   PO414194  13.001   2.368  -5.910
  189POPC   GL114195  12.968   2.455  -5.733
  189POPC   GL214196  13.061   2.433  -5.705
  189POPC   C1A14197  12.934   2.542  -5.556
  189POPC   D2A14198  12.901   2.628  -5.379
  189POPC   C3A14199  12.867   2.715  -5.202
  189POPC   C4A14200  12.834   2.802  -5.025
  189POPC   C1B14201  12.998   2.716  -5.629
  189POPC   C2B14202  12.965   2.803  -5.452
  189POPC   C3B14203  12.932   2.890  -5.275
  189POPC   C4B14204  12.898   2.977  -5.098
  190POPC   NC314205  11.962  27.339   5.516
  190POPC   PO414206  11.935  27.147   5.566
  190POPC   GL114207  11.908  26.955   5.616
  190POPC   GL214208  11.968  26.968   5.695
  190POPC   C1A14209  11.881  26.764   5.667
  190POPC   D2A14210  11.853  26.572   5.717
  190POPC   C3A14211  11.826  26.381   5.768
  190POPC   C4A14212  11.799  26.189   5.818
  190POPC   C1B14213  11.724  26.816   5.779
  190POPC   C2B14214  11.696  26.624   5.830
  190POPC   C3B14215  11.669  26.432   5.880
  190POPC   C4B14216  11.642  26.241   5.931
  191POPC   NC314217  -6.042   6.636   2.070
  191POPC   PO414218  -5.865   6.668   2.157
  191POPC   GL114219  -5.688   6.700   2.244
  191POPC   GL214220  -5.679   6.601   2.261
  191POPC   C1A14221  -5.511   6.731   2.331
  191POPC   D2A14222  -5.333   6.763   2.418
  191POPC   C3A14223  -5.156   6.794   2.505
  191POPC   C4A14224  -4.979   6.826   2.592
  191POPC   C1B14225  -5.420   6.708   2.154
  191POPC   C2B14226  -5.242   6.740   2.241
  191POPC   C3B14227  -5.065   6.771   2.328
  191POPC   C4B14228  -4.888   6.803   2.415
  192POPC   NC314229  -2.347   5.973  -2.776
  192POPC   PO414230  -2.211   6.015  -2.635
  192POPC   GL114231  -2.075   6.057  -2.494
  192POPC   GL214232  -2.137   6.022  -2.424
  192POPC   C1A14233  -1.939   6.099  -2.354
  192POPC   D2A14234  -1.804   6.142  -2.213
  192POPC   C3A14235  -1.668   6.184  -2.073
  192POPC   C4A14236  -1.532   6.226  -1.932
  192POPC   C1B14237  -1.860   5.917  -2.376
  192POPC   C2B14238  -1.724   5.959  -2.235
  192POPC   C3B14239  -1.588   6.002  -2.095
  192POPC   C4B14240  -1.453   6.044  -1.954
  193POPC   NC314241  -6.837   4.576  14.029
  193POPC   PO414242  -6.651   4.637  13.986
  193POPC   GL114243  -6.465   4.698  13.943
  193POPC   GL214244  -6.457   4.736  14.035
  193POPC   C1A14245  -6.280   4.759  13.900
  193POPC   D2A14246  -6.094   4.819  13.857
  193POPC   C3A14247  -5.909   4.880  13.814
  193POPC   C4A14248  -5.723   4.941  13.771
  193POPC   C1B14249  -6.207   4.584  13.966
  193POPC   C2B14250  -6.022   4.645  13.923
  193POPC   C3B14251  -5.836   4.706  13.880
  193POPC   C4B14252  -5.651   4.767  13.837
  194POPC   NC314253  17.683  -4.817   3.271
  194POPC   PO414254  17.598  -4.651   3.344
  194POPC   GL114255  17.513  -4.485   3.417
  194POPC   GL214256  17.596  -4.465   3.468
  194POPC   C1A14257  17.427  -4.320   3.490
  194POPC   D2A14258  17.342  -4.154   3.562
  194POPC   C3A14259  17.256  -3.989   3.635
  194POPC   C4A14260  17.171  -3.823   3.708
  194POPC   C1B14261  17.496  -4.216   3.334
  194POPC   C2B14262  17.411  -4.050   3.406
  194POPC   C3B14263  17.325  -3.884   3.479
  194POPC   C4B14264  17.240  -3.719   3.552
  195POPC   NC314265   8.737  24.863  -0.172
  195POPC   PO414266   8.752  24.701  -0.056
  195POPC   GL114267   8.767  24.539   0.060
  195POPC   GL214268   8.783  24.597   0.140
  195POPC   C1A14269   8.782  24.376   0.176
  195POPC   D2A14270   8.797  24.214   0.291
  195POPC   C3A14271   8.812  24.051   0.407
  195POPC   C4A14272   8.827  23.889   0.523
  195POPC   C1B14273   8.585  24.382   0.210
  195POPC   C2B14274   8.600  24.220   0.326
  195POPC   C3B14275   8.615  24.058   0.441
  195POPC   C4B14276   8.630  23.895   0.557
  196POPC   NC314277  22.893  22.490   8.805
  196POPC   PO414278  22.749  22.352   8.819
  196POPC   GL114279  22.605  22.214   8.833
  196POPC   GL214280  22.575  22.236   8.740
  196POPC   C1A14281  22.461  22.076   8.847
  196POPC   D2A14282  22.317  21.937   8.861
  196POPC   C3A14283  22.173  21.799   8.875
  196POPC   C4A14284  22.029  21.661   8.889
  196POPC   C1B14285  22.586  21.938   8.774
  196POPC   C2B14286  22.442  21.799   8.788
  196POPC   C3B14287  22.298  21.661   8.802
  196POPC   C4B14288  22.154  21.523   8.816
  197POPC   NC314289  21.727   2.600  -1.403
  197POPC   PO414290  21.596   2.684  -1.277
  197POPC   GL114291  21.465   2.768  -1.151
  197POPC   GL214292  21.512   2.856  -1.161
  197POPC   C1A14293  21.335   2.852  -1.024
  197POPC   D2A14294  21.204   2.935  -0.898
  197POPC   C3A14295  21.074   3.019  -0.771
  197POPC   C4A14296  20.943   3.103  -0.645
  197POPC   C1B14297  21.215   2.897  -1.178
  197POPC   C2B14298  21.084   2.981  -1.051
  197POPC   C3B14299  20.954   3.064  -0.925
  197POPC   C4B14300  20.823   3.148  -0.799
  198POPC   NC314301   1.863   3.416  -4.887
  198POPC   PO414302   1.956   3.493  -4.727
  198POPC   GL114303   2.049   3.570  -4.567
  198POPC   GL214304   2.114   3.494  -4.569
  198POPC   C1A14305   2.141   3.646  -4.407
  198POPC   D2A14306   2.234   3.723  -4.248
  198POPC   C3A14307   2.326   3.799  -4.088
  198POPC   C4A14308   2.419   3.876  -3.928
  198POPC   C1B14309   2.261   3.752  -4.528
  198POPC   C2B14310   2.353   3.829  -4.368
  198POPC   C3B14311   2.446   3.906  -4.208
  198POPC   C4B14312   2.538   3.982  -4.048
  199POPC   NC314313  27.708   8.090  11.342
  199POPC   PO414314  27.509   8.107  11.330
  199POPC   GL114315  27.310   8.124  11.318
  199POPC   GL214316  27.320   8.218  11.285
  199POPC   C1A14317  27.111   8.141  11.306
  199POPC   D2A14318  26.913   8.159  11.294
  199POPC   C3A14319  26.714   8.176  11.282
  199POPC   C4A14320  26.515   8.193  11.270
  199POPC   C1B14321  27.117   8.074  11.118
  199POPC   C2B14322  26.918   8.092  11.106
  199POPC   C3B14323  26.719   8.109  11.094
  199POPC   C4B14324  26.521   8.126  11.082
  200POPC   NC314325  22.836   9.158  22.460
  200POPC   PO414326  22.692   9.167  22.322
  200POPC   GL114327  22.548   9.176  22.184
  200POPC   GL214328  22.600   9.245  22.134
  200POPC   C1A14329  22.404   9.185  22.045
  200POPC   D2A14330  22.259   9.194  21.907
  200POPC   C3A14331  22.115   9.203  21.768
  200POPC   C4A14332  21.971   9.212  21.630
  200POPC   C1B14333  22.495   9.041  21.941
  200POPC   C2B14334  22.350   9.050  21.803
  200POPC   C3B14335  22.206   9.059  21.664
  200POPC   C4B14336  22.062   9.068  21.526
  201POPC   NC314337  -2.681  16.215  21.324
  201POPC   PO414338  -2.547  16.144  21.194
  201POPC   GL114339  -2.413  16.073  21.064
  201POPC   GL214340  -2.369  16.163  21.060
  201POPC   C1A14341  -2.279  16.002  20.934
  201POPC   D2A14342  -2.144  15.932  20.803
  201POPC   C3A14343  -2.010  15.861  20.673
  201POPC   C4A14344  -1.876  15.790  20.543
  201POPC   C1B14345  -2.159  15.951  21.085
  201POPC   C2B14346  -2.024  15.880  20.955
  201POPC   C3B14347  -1.890  15.810  20.825
  201POPC   C4B14348  -1.756  15.739  20.695
  202POPC   NC314349   6.445  17.929  -5.929
  202POPC   PO414350   6.484  17.844  -5.752
  202POPC   GL114351   6.523  17.759  -5.575
  202POPC   GL214352   6.533  17.850  -5.534
  202POPC   C1A14353   6.562  17.675  -5.398
  202POPC   D2A14354   6.601  17.590  -5.221
  202POPC   C3A14355   6.640  17.506  -5.044
  202POPC   C4A14356   6.679  17.421  -4.867
  202POPC   C1B14357   6.367  17.677  -5.354
  202POPC   C2B14358   6.406  17.592  -5.177
  202POPC   C3B14359   6.445  17.508  -5.000
  202POPC   C4B14360   6.484  17.423  -4.823
  203POPC   NC314361  14.515  23.038  21.473
  203POPC   PO414362  14.467  22.891  21.347
  203POPC   GL114363  14.419  22.744  21.221
  203POPC   GL214364  14.505  22.698  21.241
  203POPC   C1A14365  14.371  22.596  21.094
  203POPC   D2A14366  14.322  22.449  20.968
  203POPC   C3A14367  14.274  22.301  20.841
  203POPC   C4A14368  14.226  22.154  20.715
  203POPC   C1B14369  14.283  22.497  21.244
  203POPC   C2B14370  14.235  22.349  21.117
  203POPC   C3B14371  14.186  22.202  20.991
  203POPC   C4B14372  14.138  22.054  20.865
  204POPC   NC314373  24.448  13.302  20.100
  204POPC   PO414374  24.288  13.265  19.986
  204POPC   GL114375  24.128  13.228  19.872
  204POPC   GL214376  24.146  13.129  19.880
  204POPC   C1A14377  23.969  13.190  19.757
  204POPC   D2A14378  23.809  13.153  19.643
  204POPC   C3A14379  23.650  13.115  19.528
  204POPC   C4A14380  23.490  13.078  19.414
  204POPC   C1B14381  23.853  13.183  19.920
  204POPC   C2B14382  23.694  13.146  19.806
  204POPC   C3B14383  23.534  13.108  19.692
  204POPC   C4B14384  23.375  13.071  19.577
  205POPC   NC314385  -2.189  20.477   1.504
  205POPC   PO414386  -2.057  20.359   1.596
  205POPC   GL114387  -1.925  20.241   1.688
  205POPC   GL214388  -1.978  20.247   1.773
  205POPC   C1A14389  -1.792  20.122   1.780
  205POPC   D2A14390  -1.660  20.004   1.872
  205POPC   C3A14391  -1.527  19.885   1.964
  205POPC   C4A14392  -1.395  19.767   2.056
  205POPC   C1B14393  -1.898  19.962   1.726
  205POPC   C2B14394  -1.766  19.843   1.818
  205POPC   C3B14395  -1.633  19.725   1.910
  205POPC   C4B14396  -1.501  19.606   2.002
  206POPC   NC314397  21.746  22.787   5.273
  206POPC   PO414398  21.610  22.650   5.326
  206POPC   GL114399  21.474  22.513   5.379
  206POPC   GL214400  21.545  22.462   5.428
  206POPC   C1A14401  21.338  22.376   5.432
  206POPC   D2A14402  21.203  22.240   5.486
  206POPC   C3A14403  21.067  22.103   5.539
  206POPC   C4A14404  20.931  21.966   5.592
  206POPC   C1B14405  21.299  22.480   5.599
  206POPC   C2B14406  21.163  22.343   5.652
  206POPC   C3B14407  21.027  22.207   5.705
  206POPC   C4B14408  20.892  22.070   5.758
  207POPC   NC314409   7.067  -6.367  17.085
  207POPC   PO414410   7.097  -6.186  17.005
  207POPC   GL114411   7.127  -6.005  16.925
  207POPC   GL214412   7.212  -6.038  16.884
  207POPC   C1A14413   7.158  -5.824  16.846
  207POPC   D2A14414   7.188  -5.643  16.766
  207POPC   C3A14415   7.219  -5.462  16.687
  207POPC   C4A14416   7.249  -5.281  16.607
  207POPC   C1B14417   7.056  -5.879  16.682
  207POPC   C2B14418   7.087  -5.698  16.603
  207POPC   C3B14419   7.117  -5.517  16.523
  207POPC   C4B14420   7.148  -5.336  16.444
  208POPC   NC314421  16.755  26.568  11.206
  208POPC   PO414422  16.673  26.386  11.194
  208POPC   GL114423  16.591  26.204  11.182
  208POPC   GL214424  16.682  26.163  11.182
  208POPC   C1A14425  16.509  26.022  11.170
  208POPC   D2A14426  16.428  25.839  11.159
  208POPC   C3A14427  16.346  25.657  11.147
  208POPC   C4A14428  16.264  25.475  11.135
  208POPC   C1B14429  16.506  26.010  11.370
  208POPC   C2B14430  16.424  25.828  11.358
  208POPC   C3B14431  16.342  25.646  11.346
  208POPC   C4B14432  16.260  25.464  11.335
  209POPC   NC314433  24.204  20.859  11.289
  209POPC   PO414434  24.045  20.739  11.271
  209POPC   GL114435  23.886  20.619  11.253
  209POPC   GL214436  23.845  20.683  11.188
  209POPC   C1A14437  23.727  20.499  11.235
  209POPC   D2A14438  23.569  20.378  11.217
  209POPC   C3A14439  23.410  20.258  11.199
  209POPC   C4A14440  23.251  20.138  11.181
  209POPC   C1B14441  23.817  20.403  11.084
  209POPC   C2B14442  23.658  20.283  11.066
  209POPC   C3B14443  23.499  20.162  11.048
  209POPC   C4B14444  23.341  20.042  11.030
  210POPC   NC314445   4.258  12.339  -7.085
  210POPC   PO414446   4.321  12.315  -6.897
  210POPC   GL114447   4.384  12.291  -6.709
  210POPC   GL214448   4.410  12.387  -6.705
  210POPC   C1A14449   4.447  12.266  -6.521
  210POPC   D2A14450   4.510  12.242  -6.332
  210POPC   C3A14451   4.573  12.217  -6.144
  210POPC   C4A14452   4.636  12.193  -5.956
  210POPC   C1B14453   4.265  12.313  -6.453
  210POPC   C2B14454   4.328  12.289  -6.265
  210POPC   C3B14455   4.391  12.265  -6.077
  210POPC   C4B14456   4.454  12.240  -5.889
  211POPC   NC314457   9.578   7.334  -7.897
  211POPC   PO414458   9.583   7.365  -7.700
  211POPC   GL114459   9.588   7.396  -7.503
  211POPC   GL214460   9.688   7.409  -7.507
  211POPC   C1A14461   9.594   7.427  -7.305
  211POPC   D2A14462   9.599   7.459  -7.108
  211POPC   C3A14463   9.605   7.490  -6.910
  211POPC   C4A14464   9.610   7.521  -6.713
  211POPC   C1B14465   9.567   7.623  -7.335
  211POPC   C2B14466   9.572   7.655  -7.138
  211POPC   C3B14467   9.578   7.686  -6.941
  211POPC   C4B14468   9.583   7.717  -6.743
  212POPC   NC314469  11.901  -1.357  23.761
  212POPC   PO414470  11.872  -1.226  23.612
  212POPC   GL114471  11.843  -1.095  23.463
  212POPC   GL214472  11.928  -1.048  23.488
  212POPC   C1A14473  11.814  -0.965  23.314
  212POPC   D2A14474  11.786  -0.834  23.166
  212POPC   C3A14475  11.757  -0.704  23.017
  212POPC   C4A14476  11.728  -0.573  22.868
  212POPC   C1B14477  11.918  -1.083  23.191
  212POPC   C2B14478  11.889  -0.953  23.042
  212POPC   C3B14479  11.860  -0.822  22.893
  212POPC   C4B14480  11.831  -0.691  22.744
  213POPC   NC314481  12.730  -2.121  -3.140
  213POPC   PO414482  12.697  -1.988  -2.994
  213POPC   GL114483  12.664  -1.855  -2.848
  213POPC   GL214484  12.739  -1.798  -2.883
  213POPC   C1A14485  12.632  -1.722  -2.702
  213POPC   D2A14486  12.599  -1.589  -2.557
  213POPC   C3A14487  12.567  -1.456  -2.411
  213POPC   C4A14488  12.534  -1.323  -2.265
  213POPC   C1B14489  12.503  -1.624  -2.820
  213POPC   C2B14490  12.470  -1.491  -2.674
  213POPC   C3B14491  12.438  -1.358  -2.529
  213POPC   C4B14492  12.405  -1.225  -2.383
  214POPC   NC314493   6.146  27.408  13.119
  214POPC   PO414494   6.188  27.216  13.082
  214POPC   GL114495   6.230  27.024  13.045
  214POPC   GL214496   6.285  27.020  13.129
  214POPC   C1A14497   6.272  26.832  13.009
  214POPC   D2A14498   6.313  26.639  12.972
  214POPC   C3A14499   6.355  26.447  12.936
  214POPC   C4A14500   6.397  26.255  12.899
  214POPC   C1B14501   6.110  26.777  13.114
  214POPC   C2B14502   6.152  26.584  13.077
  214POPC   C3B14503   6.194  26.392  13.040
  214POPC   C4B14504   6.236  26.200  13.004
  215POPC   NC314505  20.152  23.977  14.703
  215POPC   PO414506  20.034  23.827  14.642
  215POPC   GL114507  19.916  23.677  14.581
  215POPC   GL214508  19.952  23.619  14.654
  215POPC   C1A14509  19.798  23.528  14.521
  215POPC   D2A14510  19.679  23.378  14.460
  215POPC   C3A14511  19.561  23.229  14.400
  215POPC   C4A14512  19.443  23.079  14.339
  215POPC   C1B14513  19.653  23.592  14.644
  215POPC   C2B14514  19.535  23.442  14.583
  215POPC   C3B14515  19.417  23.293  14.523
  215POPC   C4B14516  19.299  23.143  14.462
  216POPC   NC314517  20.076  23.258  16.402
  216POPC   PO414518  19.960  23.113  16.328
  216POPC   GL114519  19.844  22.968  16.254
  216POPC   GL214520  19.819  23.027  16.177
  216POPC   C1A14521  19.727  22.823  16.180
  216POPC   D2A14522  19.611  22.679  16.106
  216POPC   C3A14523  19.494  22.534  16.032
  216POPC   C4A14524  19.378  22.389  15.958
  216POPC   C1B14525  19.882  22.752  16.076
  216POPC   C2B14526  19.766  22.607  16.002
  216POPC   C3B14527  19.650  22.462  15.928
  216POPC   C4B14528  19.533  22.317  15.854
  217POPC   NC314529  17.227  -0.310  -2.984
  217POPC   PO414530  17.146  -0.194  -2.843
  217POPC   GL114531  17.065  -0.078  -2.702
  217POPC   GL214532  17.035  -0.013  -2.772
  217POPC   C1A14533  16.984   0.038  -2.561
  217POPC   D2A14534  16.902   0.154  -2.419
  217POPC   C3A14535  16.821   0.270  -2.278
  217POPC   C4A14536  16.740   0.386  -2.137
  217POPC   C1B14537  16.811  -0.061  -2.579
  217POPC   C2B14538  16.729   0.055  -2.438
  217POPC   C3B14539  16.648   0.171  -2.297
  217POPC   C4B14540  16.567   0.287  -2.155
  218POPC   NC314541  15.791  22.885  21.087
  218POPC   PO414542  15.728  22.739  20.966
  218POPC   GL114543  15.665  22.593  20.845
  218POPC   GL214544  15.716  22.526  20.899
  218POPC   C1A14545  15.603  22.447  20.723
  218POPC   D2A14546  15.540  22.300  20.602
  218POPC   C3A14547  15.478  22.154  20.480
  218POPC   C4A14548  15.415  22.008  20.359
  218POPC   C1B14549  15.443  22.419  20.839
  218POPC   C2B14550  15.380  22.272  20.718
  218POPC   C3B14551  15.317  22.126  20.597
  218POPC   C4B14552  15.255  21.980  20.475
  219POPC   NC314553  -4.699  15.376  19.238
  219POPC   PO414554  -4.537  15.319  19.135
  219POPC   GL114555  -4.375  15.262  19.032
  219POPC   GL214556  -4.349  15.201  19.107
  219POPC   C1A14557  -4.213  15.205  18.930
  219POPC   D2A14558  -4.052  15.147  18.827
  219POPC   C3A14559  -3.890  15.090  18.725
  219POPC   C4A14560  -3.728  15.033  18.622
  219POPC   C1B14561  -4.319  15.056  18.846
  219POPC   C2B14562  -4.157  14.999  18.744
  219POPC   C3B14563  -3.995  14.942  18.641
  219POPC   C4B14564  -3.833  14.885  18.539
  220POPC   NC314565  22.506  13.503  22.230
  220POPC   PO414566  22.370  13.460  22.090
  220POPC   GL114567  22.234  13.417  21.950
  220POPC   GL214568  22.292  13.460  21.880
  220POPC   C1A14569  22.098  13.374  21.809
  220POPC   D2A14570  21.963  13.332  21.669
  220POPC   C3A14571  21.827  13.289  21.528
  220POPC   C4A14572  21.691  13.246  21.388
  220POPC   C1B14573  22.189  13.199  21.775
  220POPC   C2B14574  22.053  13.156  21.635
  220POPC   C3B14575  21.917  13.114  21.494
  220POPC   C4B14576  21.781  13.071  21.354
  221POPC   NC314577  13.603  -5.296   1.041
  221POPC   PO414578  13.562  -5.128   1.142
  221POPC   GL114579  13.521  -4.960   1.243
  221POPC   GL214580  13.578  -4.908   1.179
  221POPC   C1A14581  13.480  -4.792   1.343
  221POPC   D2A14582  13.439  -4.624   1.444
  221POPC   C3A14583  13.398  -4.456   1.544
  221POPC   C4A14584  13.357  -4.288   1.645
  221POPC   C1B14585  13.320  -4.761   1.227
  221POPC   C2B14586  13.279  -4.593   1.327
  221POPC   C3B14587  13.238  -4.425   1.428
  221POPC   C4B14588  13.197  -4.257   1.529
  222POPC   NC314589  19.733  21.892   0.757
  222POPC   PO414590  19.622  21.760   0.859
  222POPC   GL114591  19.511  21.628   0.961
  222POPC   GL214592  19.521  21.562   0.886
  222POPC   C1A14593  19.401  21.496   1.063
  222POPC   D2A14594  19.290  21.364   1.164
  222POPC   C3A14595  19.180  21.232   1.266
  222POPC   C4A14596  19.069  21.100   1.368
  222POPC   C1B14597  19.566  21.423   1.147
  222POPC   C2B14598  19.456  21.291   1.249
  222POPC   C3B14599  19.345  21.159   1.351
  222POPC   C4B14600  19.235  21.027   1.453
  223POPC   NC314601   2.869  21.305  -2.355
  223POPC   PO414602   2.945  21.177  -2.221
  223POPC   GL114603   3.021  21.049  -2.087
  223POPC   GL214604   3.103  21.039  -2.143
  223POPC   C1A14605   3.097  20.921  -1.953
  223POPC   D2A14606   3.173  20.794  -1.820
  223POPC   C3A14607   3.249  20.666  -1.686
  223POPC   C4A14608   3.325  20.538  -1.552
  223POPC   C1B14609   3.182  21.074  -1.856
  223POPC   C2B14610   3.258  20.946  -1.722
  223POPC   C3B14611   3.334  20.818  -1.588
  223POPC   C4B14612   3.410  20.691  -1.455
  224POPC   NC314613  18.364  -3.533  18.426
  224POPC   PO414614  18.268  -3.385  18.331
  224POPC   GL114615  18.172  -3.237  18.236
  224POPC   GL214616  18.260  -3.192  18.218
  224POPC   C1A14617  18.076  -3.089  18.141
  224POPC   D2A14618  17.981  -2.942  18.047
  224POPC   C3A14619  17.885  -2.794  17.952
  224POPC   C4A14620  17.789  -2.646  17.857
  224POPC   C1B14621  18.092  -3.190  17.969
  224POPC   C2B14622  17.997  -3.042  17.874
  224POPC   C3B14623  17.901  -2.894  17.779
  224POPC   C4B14624  17.805  -2.746  17.685
  225POPC   NC314625  17.844   2.628  24.362
  225POPC   PO414626  17.754   2.708  24.202
  225POPC   GL114627  17.664   2.788  24.042
  225POPC   GL214628  17.742   2.849  24.029
  225POPC   C1A14629  17.573   2.868  23.883
  225POPC   D2A14630  17.483   2.948  23.723
  225POPC   C3A14631  17.392   3.028  23.564
  225POPC   C4A14632  17.302   3.108  23.404
  225POPC   C1B14633  17.659   2.731  23.765
  225POPC   C2B14634  17.569   2.811  23.606
  225POPC   C3B14635  17.479   2.891  23.446
  225POPC   C4B14636  17.388   2.971  23.287
  226POPC   NC314637  18.113  -4.186  17.567
  226POPC   PO414638  18.021  -4.029  17.484
  226POPC   GL114639  17.929  -3.872  17.401
  226POPC   GL214640  17.968  -3.896  17.312
  226POPC   C1A14641  17.837  -3.715  17.319
  226POPC   D2A14642  17.745  -3.557  17.236
  226POPC   C3A14643  17.653  -3.400  17.154
  226POPC   C4A14644  17.561  -3.243  17.071
  226POPC   C1B14645  17.677  -3.829  17.280
  226POPC   C2B14646  17.585  -3.671  17.197
  226POPC   C3B14647  17.493  -3.514  17.115
  226POPC   C4B14648  17.401  -3.357  17.032
  227POPC   NC314649   8.005  17.256  26.390
  227POPC   PO414650   8.024  17.179  26.207
  227POPC   GL114651   8.043  17.102  26.024
  227POPC   GL214652   8.134  17.144  26.015
  227POPC   C1A14653   8.063  17.024  25.840
  227POPC   D2A14654   8.082  16.947  25.657
  227POPC   C3A14655   8.102  16.869  25.473
  227POPC   C4A14656   8.121  16.792  25.290
  227POPC   C1B14657   8.146  16.860  25.918
  227POPC   C2B14658   8.166  16.783  25.735
  227POPC   C3B14659   8.185  16.705  25.551
  227POPC   C4B14660   8.205  16.628  25.368
  228POPC   NC314661  -4.588   3.662  18.839
  228POPC   PO414662  -4.431   3.737  18.741
  228POPC   GL114663  -4.274   3.812  18.643
  228POPC   GL214664  -4.235   3.720  18.634
  228POPC   C1A14665  -4.117   3.887  18.544
  228POPC   D2A14666  -3.959   3.962  18.446
  228POPC   C3A14667  -3.802   4.037  18.347
  228POPC   C4A14668  -3.645   4.112  18.249
  228POPC   C1B14669  -4.214   3.863  18.371
  228POPC   C2B14670  -4.056   3.938  18.273
  228POPC   C3B14671  -3.899   4.013  18.174
  228POPC   C4B14672  -3.742   4.088  18.076
  229POPC   NC314673  27.284   7.682  14.122
  229POPC   PO414674  27.090   7.708  14.079
  229POPC   GL114675  26.896   7.734  14.036
  229POPC   GL214676  26.905   7.670  13.959
  229POPC   C1A14677  26.703   7.759  13.993
  229POPC   D2A14678  26.509   7.785  13.949
  229POPC   C3A14679  26.316   7.810  13.906
  229POPC   C4A14680  26.122   7.836  13.863
  229POPC   C1B14681  26.656   7.606  14.113
  229POPC   C2B14682  26.462   7.632  14.069
  229POPC   C3B14683  26.268   7.657  14.026
  229POPC   C4B14684  26.075   7.683  13.983
  230POPC   NC314685  16.140  19.451  23.977
  230POPC   PO414686  16.071  19.348  23.820
  230POPC   GL114687  16.002  19.245  23.663
  230POPC   GL214688  16.048  19.162  23.697
  230POPC   C1A14689  15.933  19.142  23.506
  230POPC   D2A14690  15.865  19.038  23.349
  230POPC   C3A14691  15.796  18.935  23.192
  230POPC   C4A14692  15.727  18.832  23.035
  230POPC   C1B14693  15.769  19.094  23.609
  230POPC   C2B14694  15.700  18.991  23.452
  230POPC   C3B14695  15.631  18.888  23.295
  230POPC   C4B14696  15.563  18.784  23.138
  231POPC   NC314697   4.027  12.915  26.691
  231POPC   PO414698   4.086  12.888  26.502
  231POPC   GL114699   4.145  12.861  26.313
  231POPC   GL214700   4.200  12.944  26.318
  231POPC   C1A14701   4.204  12.834  26.124
  231POPC   D2A14702   4.263  12.807  25.934
  231POPC   C3A14703   4.322  12.780  25.745
  231POPC   C4A14704   4.381  12.753  25.556
  231POPC   C1B14705   4.360  12.726  26.188
  231POPC   C2B14706   4.419  12.699  25.998
  231POPC   C3B14707   4.478  12.672  25.809
  231POPC   C4B14708   4.537  12.645  25.620
  232POPC   NC314709  -2.827   1.791  19.820
  232POPC   PO414710  -2.689   1.882  19.707
  232POPC   GL114711  -2.551   1.973  19.594
  232POPC   GL214712  -2.488   1.897  19.609
  232POPC   C1A14713  -2.414   2.064  19.481
  232POPC   D2A14714  -2.276   2.156  19.368
  232POPC   C3A14715  -2.139   2.247  19.255
  232POPC   C4A14716  -2.001   2.338  19.142
  232POPC   C1B14717  -2.486   1.973  19.319
  232POPC   C2B14718  -2.349   2.064  19.206
  232POPC   C3B14719  -2.211   2.155  19.093
  232POPC   C4B14720  -2.073   2.246  18.980
  233POPC   NC314721  14.293  -7.111   6.114
  233POPC   PO414722  14.236  -6.924   6.157
  233POPC   GL114723  14.179  -6.737   6.200
  233POPC   GL214724  14.235  -6.739   6.282
  233POPC   C1A14725  14.121  -6.550   6.242
  233POPC   D2A14726  14.064  -6.364   6.285
  233POPC   C3A14727  14.006  -6.177   6.327
  233POPC   C4A14728  13.949  -5.990   6.370
  233POPC   C1B14729  14.277  -6.479   6.138
  233POPC   C2B14730  14.219  -6.292   6.181
  233POPC   C3B14731  14.162  -6.105   6.224
  233POPC   C4B14732  14.104  -5.919   6.266
  234POPC   NC314733  18.954  -4.128   3.328
  234POPC   PO414734  18.857  -3.969   3.401
  234POPC   GL114735  18.760  -3.810   3.474
  234POPC   GL214736  18.847  -3.766   3.495
  234POPC   C1A14737  18.663  -3.651   3.546
  234POPC   D2A14738  18.565  -3.492   3.619
  234POPC   C3A14739  18.468  -3.333   3.691
  234POPC   C4A14740  18.371  -3.174   3.764
  234POPC   C1B14741  18.665  -3.567   3.365
  234POPC   C2B14742  18.567  -3.408   3.437
  234POPC   C3B14743  18.470  -3.249   3.510
  234POPC   C4B14744  18.373  -3.090   3.583
  235POPC   NC314745   7.429  14.067  -7.506
  235POPC   PO414746   7.455  14.022  -7.313
  235POPC   GL114747   7.481  13.977  -7.120
  235POPC   GL214748   7.445  14.067  -7.094
  235POPC   C1A14749   7.506  13.932  -6.927
  235POPC   D2A14750   7.532  13.887  -6.733
  235POPC   C3A14751   7.557  13.842  -6.540
  235POPC   C4A14752   7.583  13.797  -6.347
  235POPC   C1B14753   7.321  13.858  -6.919
  235POPC   C2B14754   7.346  13.813  -6.726
  235POPC   C3B14755   7.372  13.768  -6.533
  235POPC   C4B14756   7.397  13.723  -6.340
  236POPC   NC314757   0.636   1.056  22.581
  236POPC   PO414758   0.742   1.151  22.441
  236POPC   GL114759   0.848   1.246  22.301
  236POPC   GL214760   0.930   1.239  22.358
  236POPC   C1A14761   0.955   1.341  22.160
  236POPC   D2A14762   1.061   1.435  22.020
  236POPC   C3A14763   1.168   1.530  21.879
  236POPC   C4A14764   1.274   1.625  21.739
  236POPC   C1B14765   0.999   1.165  22.075
  236POPC   C2B14766   1.105   1.260  21.935
  236POPC   C3B14767   1.212   1.355  21.794
  236POPC   C4B14768   1.318   1.449  21.654
  237POPC   NC314769   4.863  13.025  -7.174
  237POPC   PO414770   4.919  12.993  -6.985
  237POPC   GL114771   4.975  12.961  -6.796
  237POPC   GL214772   4.879  12.968  -6.766
  237POPC   C1A14773   5.031  12.929  -6.606
  237POPC   D2A14774   5.086  12.898  -6.417
  237POPC   C3A14775   5.142  12.866  -6.227
  237POPC   C4A14776   5.198  12.834  -6.038
  237POPC   C1B14777   5.008  12.732  -6.633
  237POPC   C2B14778   5.064  12.701  -6.443
  237POPC   C3B14779   5.120  12.669  -6.254
  237POPC   C4B14780   5.176  12.637  -6.064
  238POPC   NC314781  -0.683  24.291  13.353
  238POPC   PO414782  -0.570  24.131  13.312
  238POPC   GL114783  -0.457  23.971  13.271
  238POPC   GL214784  -0.378  24.030  13.258
  238POPC   C1A14785  -0.345  23.811  13.231
  238POPC   D2A14786  -0.232  23.650  13.190
  238POPC   C3A14787  -0.120  23.490  13.150
  238POPC   C4A14788  -0.007  23.330  13.109
  238POPC   C1B14789  -0.300  23.793  13.425
  238POPC   C2B14790  -0.187  23.633  13.384
  238POPC   C3B14791  -0.075  23.473  13.344
  238POPC   C4B14792   0.038  23.312  13.303
  239POPC   NC314793  26.510   9.113  16.952
  239POPC   PO414794  26.327   9.124  16.871
  239POPC   GL114795  26.144   9.135  16.790
  239POPC   GL214796  26.168   9.062  16.726
  239POPC   C1A14797  25.961   9.147  16.710
  239POPC   D2A14798  25.779   9.158  16.629
  239POPC   C3A14799  25.596   9.170  16.549
  239POPC   C4A14800  25.413   9.181  16.468
  239POPC   C1B14801  25.895   9.011  16.841
  239POPC   C2B14802  25.712   9.022  16.760
  239POPC   C3B14803  25.530   9.034  16.680
  239POPC   C4B14804  25.347   9.045  16.599
  240POPC   NC314805  25.771   3.544   4.227
  240POPC   PO414806  25.594   3.615   4.288
  240POPC   GL114807  25.417   3.686   4.349
  240POPC   GL214808  25.460   3.774   4.371
  240POPC   C1A14809  25.241   3.757   4.410
  240POPC   D2A14810  25.064   3.828   4.472
  240POPC   C3A14811  24.888   3.899   4.533
  240POPC   C4A14812  24.711   3.970   4.594
  240POPC   C1B14813  25.203   3.823   4.225
  240POPC   C2B14814  25.026   3.894   4.286
  240POPC   C3B14815  24.850   3.965   4.348
  240POPC   C4B14816  24.673   4.036   4.409
  241POPC   NC314817   8.345   9.067  -8.023
  241POPC   PO414818   8.361   9.079  -7.824
  241POPC   GL114819   8.377   9.091  -7.625
  241POPC   GL214820   8.300   9.028  -7.615
  241POPC   C1A14821   8.393   9.103  -7.426
  241POPC   D2A14822   8.410   9.115  -7.227
  241POPC   C3A14823   8.426   9.127  -7.028
  241POPC   C4A14824   8.442   9.139  -6.829
  241POPC   C1B14825   8.520   8.948  -7.427
  241POPC   C2B14826   8.536   8.960  -7.228
  241POPC   C3B14827   8.552   8.972  -7.029
  241POPC   C4B14828   8.568   8.984  -6.830
  242POPC   NC314829  13.514  26.225  16.933
  242POPC   PO414830  13.473  26.046  16.854
  242POPC   GL114831  13.432  25.867  16.775
  242POPC   GL214832  13.523  25.864  16.735
  242POPC   C1A14833  13.391  25.687  16.697
  242POPC   D2A14834  13.351  25.508  16.618
  242POPC   C3A14835  13.310  25.328  16.540
  242POPC   C4A14836  13.269  25.149  16.461
  242POPC   C1B14837  13.462  25.599  16.862
  242POPC   C2B14838  13.422  25.419  16.783
  242POPC   C3B14839  13.381  25.240  16.704
  242POPC   C4B14840  13.340  25.061  16.626
  243POPC   NC314841  -6.784  14.651   4.944
  243POPC   PO414842  -6.599  14.599   5.001
  243POPC   GL114843  -6.414  14.547   5.058
  243POPC   GL214844  -6.430  14.588   5.147
  243POPC   C1A14845  -6.230  14.495   5.114
  243POPC   D2A14846  -6.045  14.443   5.171
  243POPC   C3A14847  -5.861  14.391   5.227
  243POPC   C4A14848  -5.676  14.339   5.284
  243POPC   C1B14849  -6.300  14.320   5.182
  243POPC   C2B14850  -6.115  14.268   5.239
  243POPC   C3B14851  -5.931  14.216   5.295
  243POPC   C4B14852  -5.746  14.164   5.352
  244POPC   NC314853   5.292   5.547  -6.986
  244POPC   PO414854   5.339   5.594  -6.797
  244POPC   GL114855   5.386   5.641  -6.608
  244POPC   GL214856   5.397   5.544  -6.587
  244POPC   C1A14857   5.432   5.688  -6.419
  244POPC   D2A14858   5.479   5.735  -6.231
  244POPC   C3A14859   5.525   5.782  -6.042
  244POPC   C4A14860   5.572   5.829  -5.853
  244POPC   C1B14861   5.625   5.699  -6.470
  244POPC   C2B14862   5.672   5.746  -6.281
  244POPC   C3B14863   5.719   5.793  -6.092
  244POPC   C4B14864   5.765   5.840  -5.903
  245POPC   NC314865  16.401  21.211  22.513
  245POPC   PO414866  16.330  21.087  22.373
  245POPC   GL114867  16.259  20.963  22.233
  245POPC   GL214868  16.346  20.969  22.184
  245POPC   C1A14869  16.188  20.839  22.093
  245POPC   D2A14870  16.117  20.716  21.953
  245POPC   C3A14871  16.046  20.592  21.813
  245POPC   C4A14872  15.975  20.468  21.673
  245POPC   C1B14873  16.258  20.683  22.196
  245POPC   C2B14874  16.187  20.559  22.056
  245POPC   C3B14875  16.116  20.435  21.916
  245POPC   C4B14876  16.045  20.311  21.776
  246POPC   NC314877  -6.217  17.827   7.349
  246POPC   PO414878  -6.038  17.745   7.382
  246POPC   GL114879  -5.859  17.663   7.415
  246POPC   GL214880  -5.816  17.753   7.406
  246POPC   C1A14881  -5.680  17.581   7.448
  246POPC   D2A14882  -5.500  17.498   7.482
  246POPC   C3A14883  -5.321  17.416   7.515
  246POPC   C4A14884  -5.142  17.334   7.548
  246POPC   C1B14885  -5.702  17.612   7.645
  246POPC   C2B14886  -5.522  17.530   7.678
  246POPC   C3B14887  -5.343  17.447   7.711
  246POPC   C4B14888  -5.164  17.365   7.744
  247POPC   NC314889  -7.215   6.252   5.280
  247POPC   PO414890  -7.026   6.292   5.333
  247POPC   GL114891  -6.837   6.332   5.386
  247POPC   GL214892  -6.870   6.376   5.469
  247POPC   C1A14893  -6.648   6.372   5.438
  247POPC   D2A14894  -6.460   6.413   5.491
  247POPC   C3A14895  -6.271   6.453   5.543
  247POPC   C4A14896  -6.082   6.493   5.596
  247POPC   C1B14897  -6.638   6.197   5.534
  247POPC   C2B14898  -6.449   6.237   5.587
  247POPC   C3B14899  -6.260   6.278   5.639
  247POPC   C4B14900  -6.072   6.318   5.692
  248POPC   NC314901  -7.860  11.374  13.202
  248POPC   PO414902  -7.664  11.362  13.163
  248POPC   GL114903  -7.468  11.350  13.124
  248POPC   GL214904  -7.451  11.426  13.186
  248POPC   C1A14905  -7.272  11.337  13.085
  248POPC   D2A14906  -7.077  11.325  13.045
  248POPC   C3A14907  -6.881  11.312  13.006
  248POPC   C4A14908  -6.685  11.300  12.967
  248POPC   C1B14909  -7.250  11.209  13.236
  248POPC   C2B14910  -7.054  11.197  13.197
  248POPC   C3B14911  -6.859  11.184  13.158
  248POPC   C4B14912  -6.663  11.172  13.119
  249POPC   NC314913   5.667  -2.801  -2.083
  249POPC   PO414914   5.712  -2.660  -1.949
  249POPC   GL114915   5.757  -2.519  -1.815
  249POPC   GL214916   5.723  -2.577  -1.742
  249POPC   C1A14917   5.802  -2.378  -1.681
  249POPC   D2A14918   5.848  -2.236  -1.546
  249POPC   C3A14919   5.893  -2.095  -1.412
  249POPC   C4A14920   5.938  -1.954  -1.278
  249POPC   C1B14921   5.985  -2.457  -1.659
  249POPC   C2B14922   6.030  -2.316  -1.525
  249POPC   C3B14923   6.075  -2.174  -1.390
  249POPC   C4B14924   6.120  -2.033  -1.256
  250POPC   NC314925   7.955   9.074  -7.987
  250POPC   PO414926   7.976   9.085  -7.788
  250POPC   GL114927   7.997   9.096  -7.589
  250POPC   GL214928   7.917   9.037  -7.578
  250POPC   C1A14929   8.018   9.107  -7.391
  250POPC   D2A14930   8.038   9.119  -7.192
  250POPC   C3A14931   8.059   9.130  -6.994
  250POPC   C4A14932   8.080   9.141  -6.795
  250POPC   C1B14933   8.137   8.947  -7.394
  250POPC   C2B14934   8.157   8.958  -7.196
  250POPC   C3B14935   8.178   8.969  -6.997
  250POPC   C4B14936   8.199   8.980  -6.798
  251POPC   NC314937   2.170   7.212  -6.195
  251POPC   PO414938   2.255   7.241  -6.016
  251POPC   GL114939   2.340   7.270  -5.837
  251POPC   GL214940   2.346   7.171  -5.824
  251POPC   C1A14941   2.425   7.299  -5.658
  251POPC   D2A14942   2.510   7.327  -5.480
  251POPC   C3A14943   2.595   7.356  -5.301
  251POPC   C4A14944   2.680   7.385  -5.122
  251POPC   C1B14945   2.606   7.298  -5.744
  251POPC   C2B14946   2.691   7.326  -5.565
  251POPC   C3B14947   2.776   7.355  -5.386
  251POPC   C4B14948   2.861   7.384  -5.208
  252POPC   NC314949  20.676  21.793   1.740
  252POPC   PO414950  20.557  21.663   1.833
  252POPC   GL114951  20.438  21.533   1.926
  252POPC   GL214952  20.392  21.513   1.840
  252POPC   C1A14953  20.318  21.402   2.020
  252POPC   D2A14954  20.199  21.272   2.113
  252POPC   C3A14955  20.079  21.141   2.207
  252POPC   C4A14956  19.960  21.011   2.300
  252POPC   C1B14957  20.450  21.256   1.984
  252POPC   C2B14958  20.330  21.126   2.077
  252POPC   C3B14959  20.211  20.995   2.170
  252POPC   C4B14960  20.092  20.865   2.264
  253POPC   NC314961   6.350  26.062  17.378
  253POPC   PO414962   6.390  25.883  17.298
  253POPC   GL114963   6.430  25.704  17.218
  253POPC   GL214964   6.494  25.747  17.154
  253POPC   C1A14965   6.470  25.525  17.138
  253POPC   D2A14966   6.511  25.347  17.058
  253POPC   C3A14967   6.551  25.168  16.978
  253POPC   C4A14968   6.591  24.989  16.898
  253POPC   C1B14969   6.619  25.500  17.269
  253POPC   C2B14970   6.659  25.321  17.189
  253POPC   C3B14971   6.699  25.142  17.109
  253POPC   C4B14972   6.740  24.964  17.029
  254POPC   NC314973   3.597  -3.206  -0.661
  254POPC   PO414974   3.670  -3.064  -0.540
  254POPC   GL114975   3.743  -2.922  -0.419
  254POPC   GL214976   3.708  -2.971  -0.340
  254POPC   C1A14977   3.815  -2.780  -0.299
  254POPC   D2A14978   3.888  -2.637  -0.178
  254POPC   C3A14979   3.960  -2.495  -0.058
  254POPC   C4A14980   4.033  -2.353   0.063
  254POPC   C1B14981   3.988  -2.880  -0.285
  254POPC   C2B14982   4.060  -2.737  -0.164
  254POPC   C3B14983   4.133  -2.595  -0.044
  254POPC   C4B14984   4.206  -2.453   0.077
  255POPC   NC314985  22.115  -2.615   5.771
  255POPC   PO414986  21.979  -2.476   5.817
  255POPC   GL114987  21.843  -2.337   5.863
  255POPC   GL214988  21.844  -2.304   5.768
  255POPC   C1A14989  21.707  -2.197   5.908
  255POPC   D2A14990  21.571  -2.058   5.954
  255POPC   C3A14991  21.435  -1.918   5.999
  255POPC   C4A14992  21.299  -1.779   6.045
  255POPC   C1B14993  21.560  -2.325   5.863
  255POPC   C2B14994  21.424  -2.186   5.909
  255POPC   C3B14995  21.288  -2.047   5.954
  255POPC   C4B14996  21.152  -1.907   6.000
  256POPC   NC314997   1.787  -2.454  20.261
  256POPC   PO414998   1.876  -2.316  20.147
  256POPC   GL114999   1.965  -2.178  20.033
  256POPC   GL215000   2.055  -2.213  20.061
  256POPC   C1A15001   2.054  -2.040  19.918
  256POPC   D2A15002   2.144  -1.903  19.804
  256POPC   C3A15003   2.233  -1.765  19.689
  256POPC   C4A15004   2.322  -1.627  19.575
  256POPC   C1B15005   2.054  -2.168  19.764
  256POPC   C2B15006   2.143  -2.030  19.650
  256POPC   C3B15007   2.232  -1.892  19.535
  256POPC   C4B15008   2.321  -1.754  19.421
  257POPC   NC315009  22.778  -2.595  11.208
  257POPC   PO415010  22.637  -2.454  11.192
  257POPC   GL115011  22.496  -2.313  11.176
  257POPC   GL215012  22.566  -2.242  11.180
  257POPC   C1A15013  22.354  -2.173  11.159
  257POPC   D2A15014  22.213  -2.032  11.143
  257POPC   C3A15015  22.071  -1.892  11.126
  257POPC   C4A15016  21.930  -1.751  11.110
  257POPC   C1B15017  22.372  -2.178  10.960
  257POPC   C2B15018  22.231  -2.038  10.944
  257POPC   C3B15019  22.089  -1.897  10.927
  257POPC   C4B15020  21.948  -1.756  10.911
  258POPC   NC315021  -2.290   1.780  20.430
  258POPC   PO415022  -2.158   1.870  20.310
  258POPC   GL115023  -2.026   1.960  20.190
  258POPC   GL215024  -1.955   1.897  20.221
  258POPC   C1A15025  -1.894   2.050  20.070
  258POPC   D2A15026  -1.761   2.140  19.950
  258POPC   C3A15027  -1.629   2.230  19.830
  258POPC   C4A15028  -1.497   2.320  19.710
  258POPC   C1B15029  -1.941   1.923  19.923
  258POPC   C2B15030  -1.809   2.013  19.803
  258POPC   C3B15031  -1.677   2.103  19.683
  258POPC   C4B15032  -1.545   2.193  19.563
  259POPC   NC315033  13.753  26.289  16.652
  259POPC   PO415034  13.710  26.109  16.577
  259POPC   GL115035  13.667  25.929  16.502
  259POPC   GL215036  13.746  25.935  16.441
  259POPC   C1A15037  13.623  25.749  16.427
  259POPC   D2A15038  13.580  25.568  16.351
  259POPC   C3A15039  13.536  25.388  16.276
  259POPC   C4A15040  13.493  25.208  16.201
  259POPC   C1B15041  13.738  25.663  16.566
  259POPC   C2B15042  13.694  25.483  16.491
  259POPC   C3B15043  13.651  25.302  16.416
  259POPC   C4B15044  13.608  25.122  16.341
  260POPC   NC315045  12.267  23.928  21.081
  260POPC   PO415046  12.237  23.774  20.957
  260POPC   GL115047  12.207  23.620  20.833
  260POPC   GL215048  12.303  23.596  20.839
  260POPC   C1A15049  12.176  23.466  20.709
  260POPC   D2A15050  12.146  23.312  20.585
  260POPC   C3A15051  12.115  23.158  20.461
  260POPC   C4A15052  12.085  23.004  20.337
  260POPC   C1B15053  12.137  23.348  20.865
  260POPC   C2B15054  12.106  23.194  20.741
  260POPC   C3B15055  12.076  23.040  20.617
  260POPC   C4B15056  12.045  22.886  20.493
  261POPC   NC315057  -4.548  10.564  20.729
  261POPC   PO415058  -4.389  10.555  20.608
  261POPC   GL115059  -4.230  10.546  20.487
  261POPC   GL215060  -4.218  10.450  20.510
  261POPC   C1A15061  -4.071  10.537  20.366
  261POPC   D2A15062  -3.912  10.528  20.245
  261POPC   C3A15063  -3.753  10.519  20.124
  261POPC   C4A15064  -3.594  10.510  20.003
  261POPC   C1B15065  -4.190  10.485  20.214
  261POPC   C2B15066  -4.031  10.476  20.093
  261POPC   C3B15067  -3.872  10.467  19.972
  261POPC   C4B15068  -3.713  10.458  19.851
  262POPC   NC315069  19.340  18.226  22.841
  262POPC   PO415070  19.232  18.141  22.696
  262POPC   GL115071  19.124  18.056  22.551
  262POPC   GL215072  19.197  18.075  22.485
  262POPC   C1A15073  19.016  17.971  22.405
  262POPC   D2A15074  18.908  17.886  22.260
  262POPC   C3A15075  18.800  17.801  22.114
  262POPC   C4A15076  18.692  17.716  21.969
  262POPC   C1B15077  19.099  17.794  22.447
  262POPC   C2B15078  18.991  17.709  22.302
  262POPC   C3B15079  18.883  17.624  22.157
  262POPC   C4B15080  18.775  17.539  22.011
  263POPC   NC315081  20.936  -4.267  10.531
  263POPC   PO415082  20.815  -4.108  10.521
  263POPC   GL115083  20.694  -3.949  10.511
  263POPC   GL215084  20.769  -3.894  10.475
  263POPC   C1A15085  20.573  -3.790  10.501
  263POPC   D2A15086  20.452  -3.631  10.491
  263POPC   C3A15087  20.331  -3.472  10.481
  263POPC   C4A15088  20.210  -3.313  10.471
  263POPC   C1B15089  20.521  -3.841  10.315
  263POPC   C2B15090  20.400  -3.682  10.305
  263POPC   C3B15091  20.279  -3.523  10.295
  263POPC   C4B15092  20.158  -3.364  10.285
  264POPC   NC315093   7.977  15.296  -7.237
  264POPC   PO415094   7.996  15.237  -7.047
  264POPC   GL115095   8.015  15.178  -6.857
  264POPC   GL215096   8.115  15.181  -6.866
  264POPC   C1A15097   8.034  15.119  -6.667
  264POPC   D2A15098   8.054  15.059  -6.477
  264POPC   C3A15099   8.073  15.000  -6.287
  264POPC   C4A15100   8.092  14.941  -6.097
  264POPC   C1B15101   8.033  15.310  -6.607
  264POPC   C2B15102   8.053  15.250  -6.417
  264POPC   C3B15103   8.072  15.191  -6.227
  264POPC   C4B15104   8.091  15.132  -6.037
  265POPC   NC315105  -0.704   3.665  23.004
  265POPC   PO415106  -0.586   3.735  22.858
  265POPC   GL115107  -0.468   3.805  22.712
  265POPC   GL215108  -0.401   3.734  22.732
  265POPC   C1A15109  -0.350   3.876  22.567
  265POPC   D2A15110  -0.233   3.946  22.421
  265POPC   C3A15111  -0.115   4.017  22.276
  265POPC   C4A15112   0.003   4.087  22.130
  265POPC   C1B15113  -0.440   3.755  22.435
  265POPC   C2B15114  -0.323   3.825  22.290
  265POPC   C3B15115  -0.205   3.896  22.144
  265POPC   C4B15116  -0.087   3.966  21.999
  266POPC   NC315117   4.265   2.961  25.615
  266POPC   PO415118   4.321   3.036  25.438
  266POPC   GL115119   4.377   3.111  25.261
  266POPC   GL215120   4.392   3.018  25.226
  266POPC   C1A15121   4.433   3.186  25.084
  266POPC   D2A15122   4.488   3.261  24.908
  266POPC   C3A15123   4.544   3.336  24.731
  266POPC   C4A15124   4.600   3.411  24.554
  266POPC   C1B15125   4.243   3.179  25.022
  266POPC   C2B15126   4.299   3.254  24.845
  266POPC   C3B15127   4.354   3.329  24.668
  266POPC   C4B15128   4.410   3.404  24.491
  267POPC   NC315129   2.201  -2.832  -0.154
  267POPC   PO415130   2.288  -2.695  -0.037
  267POPC   GL115131   2.375  -2.558   0.080
  267POPC   GL215132   2.351  -2.612   0.161
  267POPC   C1A15133   2.462  -2.422   0.198
  267POPC   D2A15134   2.549  -2.285   0.315
  267POPC   C3A15135   2.636  -2.149   0.433
  267POPC   C4A15136   2.723  -2.012   0.550
  267POPC   C1B15137   2.635  -2.520   0.184
  267POPC   C2B15138   2.722  -2.384   0.301
  267POPC   C3B15139   2.809  -2.247   0.419
  267POPC   C4B15140   2.896  -2.111   0.536
  268POPC   NC315141   4.437  -5.849   3.153
  268POPC   PO415142   4.494  -5.672   3.227
  268POPC   GL115143   4.551  -5.495   3.301
  268POPC   GL215144   4.627  -5.539   3.348
  268POPC   C1A15145   4.608  -5.318   3.375
  268POPC   D2A15146   4.664  -5.142   3.449
  268POPC   C3A15147   4.721  -4.965   3.523
  268POPC   C4A15148   4.778  -4.788   3.597
  268POPC   C1B15149   4.724  -5.289   3.215
  268POPC   C2B15150   4.780  -5.112   3.289
  268POPC   C3B15151   4.837  -4.935   3.363
  268POPC   C4B15152   4.894  -4.758   3.437
  269POPC   NC315153   0.306  -0.166  -1.442
  269POPC   PO415154   0.409  -0.052  -1.314
  269POPC   GL115155   0.512   0.062  -1.186
  269POPC   GL215156   0.442   0.046  -1.116
  269POPC   C1A15157   0.615   0.176  -1.058
  269POPC   D2A15158   0.717   0.290  -0.929
  269POPC   C3A15159   0.820   0.404  -0.801
  269POPC   C4A15160   0.923   0.518  -0.673
  269POPC   C1B15161   0.715   0.015  -0.995
  269POPC   C2B15162   0.818   0.129  -0.867
  269POPC   C3B15163   0.921   0.243  -0.739
  269POPC   C4B15164   1.024   0.357  -0.610
  270POPC   NC315165  15.592  26.541  14.313
  270POPC   PO415166  15.529  26.358  14.265
  270POPC   GL115167  15.466  26.175  14.217
  270POPC   GL215168  15.529  26.173  14.140
  270POPC   C1A15169  15.402  25.991  14.169
  270POPC   D2A15170  15.339  25.808  14.120
  270POPC   C3A15171  15.275  25.624  14.072
  270POPC   C4A15172  15.212  25.441  14.024
  270POPC   C1B15173  15.543  25.912  14.286
  270POPC   C2B15174  15.479  25.728  14.238
  270POPC   C3B15175  15.416  25.545  14.190
  270POPC   C4B15176  15.353  25.361  14.142
  271POPC   NC315177  -0.542  11.626  -4.641
  271POPC   PO415178  -0.426  11.608  -4.479
  271POPC   GL115179  -0.310  11.590  -4.317
  271POPC   GL215180  -0.369  11.654  -4.268
  271POPC   C1A15181  -0.194  11.572  -4.155
  271POPC   D2A15182  -0.079  11.554  -3.993
  271POPC   C3A15183   0.037  11.536  -3.831
  271POPC   C4A15184   0.153  11.518  -3.669
  271POPC   C1B15185  -0.308  11.420  -4.091
  271POPC   C2B15186  -0.192  11.402  -3.929
  271POPC   C3B15187  -0.076  11.384  -3.767
  271POPC   C4B15188   0.040  11.366  -3.605
  272POPC   NC315189  -6.424  10.614  17.743
  272POPC   PO415190  -6.244  10.611  17.656
  272POPC   GL115191  -6.064  10.608  17.569
  272POPC   GL215192  -6.035  10.536  17.632
  272POPC   C1A15193  -5.884  10.605  17.482
  272POPC   D2A15194  -5.703  10.603  17.396
  272POPC   C3A15195  -5.523  10.600  17.309
  272POPC   C4A15196  -5.343  10.597  17.222
  272POPC   C1B15197  -5.948  10.467  17.353
  272POPC   C2B15198  -5.768  10.464  17.267
  272POPC   C3B15199  -5.588  10.461  17.180
  272POPC   C4B15200  -5.407  10.458  17.093
  273POPC   NC315201  -0.286   7.330  24.638
  273POPC   PO415202  -0.171   7.365  24.479
  273POPC   GL115203  -0.056   7.400  24.320
  273POPC   GL215204   0.025   7.400  24.378
  273POPC   C1A15205   0.060   7.436  24.160
  273POPC   D2A15206   0.175   7.471  24.001
  273POPC   C3A15207   0.291   7.507  23.841
  273POPC   C4A15208   0.406   7.542  23.682
  273POPC   C1B15209   0.080   7.239  24.132
  273POPC   C2B15210   0.196   7.274  23.972
  273POPC   C3B15211   0.311   7.310  23.813
  273POPC   C4B15212   0.427   7.345  23.653
  274POPC   NC315213  -1.441  12.051  -3.910
  274POPC   PO415214  -1.317  12.030  -3.754
  274POPC   GL115215  -1.193  12.009  -3.598
  274POPC   GL215216  -1.238  12.085  -3.552
  274POPC   C1A15217  -1.069  11.987  -3.443
  274POPC   D2A15218  -0.946  11.966  -3.287
  274POPC   C3A15219  -0.822  11.944  -3.132
  274POPC   C4A15220  -0.698  11.923  -2.976
  274POPC   C1B15221  -1.198  11.860  -3.358
  274POPC   C2B15222  -1.074  11.839  -3.202
  274POPC   C3B15223  -0.951  11.817  -3.047
  274POPC   C4B15224  -0.827  11.796  -2.891
  275POPC   NC315225  -1.336   0.581  20.490
  275POPC   PO415226  -1.212   0.683  20.370
  275POPC   GL115227  -1.088   0.785  20.250
  275POPC   GL215228  -1.013   0.725  20.278
  275POPC   C1A15229  -0.965   0.887  20.130
  275POPC   D2A15230  -0.841   0.988  20.011
  275POPC   C3A15231  -0.718   1.090  19.891
  275POPC   C4A15232  -0.594   1.192  19.771
  275POPC   C1B15233  -1.008   0.762  19.980
  275POPC   C2B15234  -0.884   0.864  19.860
  275POPC   C3B15235  -0.761   0.966  19.740
  275POPC   C4B15236  -0.637   1.067  19.621
  276POPC   NC315237  -2.322   3.855  -1.911
  276POPC   PO415238  -2.190   3.926  -1.778
  276POPC   GL115239  -2.058   3.997  -1.645
  276POPC   GL215240  -2.091   3.930  -1.578
  276POPC   C1A15241  -1.926   4.067  -1.512
  276POPC   D2A15242  -1.795   4.138  -1.380
  276POPC   C3A15243  -1.663   4.208  -1.247
  276POPC   C4A15244  -1.531   4.279  -1.114
  276POPC   C1B15245  -1.791   3.935  -1.577
  276POPC   C2B15246  -1.659   4.006  -1.444
  276POPC   C3B15247  -1.527   4.076  -1.311
  276POPC   C4B15248  -1.395   4.147  -1.178
  277POPC   NC315249   9.374  -5.440   0.576
  277POPC   PO415250   9.381  -5.269   0.680
  277POPC   GL115251   9.388  -5.098   0.784
  277POPC   GL215252   9.447  -5.142   0.852
  277POPC   C1A15253   9.396  -4.927   0.887
  277POPC   D2A15254   9.403  -4.757   0.991
  277POPC   C3A15255   9.411  -4.586   1.094
  277POPC   C4A15256   9.418  -4.415   1.198
  277POPC   C1B15257   9.557  -4.871   0.783
  277POPC   C2B15258   9.565  -4.701   0.887
  277POPC   C3B15259   9.572  -4.530   0.991
  277POPC   C4B15260   9.580  -4.359   1.094
  278POPC   NC315261  25.777   4.539  16.496
  278POPC   PO415262  25.600   4.595  16.422
  278POPC   GL115263  25.423   4.651  16.348
  278POPC   GL215264  25.458   4.743  16.334
  278POPC   C1A15265  25.245   4.707  16.274
  278POPC   D2A15266  25.068   4.762  16.201
  278POPC   C3A15267  24.890   4.818  16.127
  278POPC   C4A15268  24.713   4.874  16.053
  278POPC   C1B15269  25.306   4.656  16.091
  278POPC   C2B15270  25.128   4.712  16.017
  278POPC   C3B15271  24.951   4.768  15.943
  278POPC   C4B15272  24.774   4.823  15.869
  279POPC   NC315273  15.562  27.059   9.002
  279POPC   PO415274  15.494  26.871   9.013
  279POPC   GL115275  15.426  26.683   9.024
  279POPC   GL215276  15.437  26.674   8.925
  279POPC   C1A15277  15.357  26.496   9.035
  279POPC   D2A15278  15.289  26.308   9.045
  279POPC   C3A15279  15.220  26.121   9.056
  279POPC   C4A15280  15.152  25.933   9.067
  279POPC   C1B15281  15.544  26.429   9.062
  279POPC   C2B15282  15.475  26.242   9.073
  279POPC   C3B15283  15.407  26.054   9.083
  279POPC   C4B15284  15.339  25.867   9.094
  280POPC   NC315285   7.338  -0.072  -4.900
  280POPC   PO415286   7.365   0.041  -4.737
  280POPC   GL115287   7.392   0.154  -4.574
  280POPC   GL215288   7.470   0.098  -4.548
  280POPC   C1A15289   7.418   0.267  -4.411
  280POPC   D2A15290   7.445   0.381  -4.249
  280POPC   C3A15291   7.471   0.494  -4.086
  280POPC   C4A15292   7.498   0.607  -3.923
  280POPC   C1B15293   7.539   0.388  -4.515
  280POPC   C2B15294   7.566   0.501  -4.352
  280POPC   C3B15295   7.592   0.615  -4.190
  280POPC   C4B15296   7.619   0.728  -4.027
  281POPC   NC315297  22.539   7.592  22.550
  281POPC   PO415298  22.397   7.621  22.412
  281POPC   GL115299  22.255   7.650  22.274
  281POPC   GL215300  22.316   7.616  22.203
  281POPC   C1A15301  22.113   7.680  22.137
  281POPC   D2A15302  21.970   7.709  21.999
  281POPC   C3A15303  21.828   7.739  21.862
  281POPC   C4A15304  21.686   7.768  21.724
  281POPC   C1B15305  22.045   7.494  22.167
  281POPC   C2B15306  21.903   7.524  22.030
  281POPC   C3B15307  21.760   7.553  21.892
  281POPC   C4B15308  21.618   7.582  21.754
  282POPC   NC315309  22.673  21.377  15.345
  282POPC   PO415310  22.535  21.246  15.283
  282POPC   GL115311  22.397  21.115  15.221
  282POPC   GL215312  22.468  21.048  15.204
  282POPC   C1A15313  22.258  20.985  15.160
  282POPC   D2A15314  22.120  20.854  15.098
  282POPC   C3A15315  21.981  20.724  15.037
  282POPC   C4A15316  21.843  20.593  14.975
  282POPC   C1B15317  22.240  20.916  15.347
  282POPC   C2B15318  22.101  20.786  15.285
  282POPC   C3B15319  21.963  20.655  15.224
  282POPC   C4B15320  21.825  20.524  15.162
  283POPC   NC315321   5.784  -6.541  16.026
  283POPC   PO415322   5.828  -6.358  15.958
  283POPC   GL115323   5.872  -6.175  15.890
  283POPC   GL215324   5.924  -6.215  15.815
  283POPC   C1A15325   5.915  -5.992  15.822
  283POPC   D2A15326   5.959  -5.809  15.755
  283POPC   C3A15327   6.002  -5.626  15.687
  283POPC   C4A15328   6.046  -5.443  15.619
  283POPC   C1B15329   5.751  -5.995  15.708
  283POPC   C2B15330   5.795  -5.812  15.641
  283POPC   C3B15331   5.838  -5.629  15.573
  283POPC   C4B15332   5.882  -5.446  15.505
  284POPC   NC315333  -3.747   1.430   1.547
  284POPC   PO415334  -3.598   1.527   1.639
  284POPC   GL115335  -3.449   1.624   1.731
  284POPC   GL215336  -3.394   1.540   1.730
  284POPC   C1A15337  -3.301   1.721   1.823
  284POPC   D2A15338  -3.152   1.818   1.916
  284POPC   C3A15339  -3.004   1.915   2.008
  284POPC   C4A15340  -2.855   2.012   2.100
  284POPC   C1B15341  -3.225   1.773   1.646
  284POPC   C2B15342  -3.076   1.870   1.738
  284POPC   C3B15343  -2.927   1.967   1.830
  284POPC   C4B15344  -2.779   2.064   1.922
  285POPC   NC315345  -8.119   8.339   8.619
  285POPC   PO415346  -7.920   8.357   8.634
  285POPC   GL115347  -7.721   8.375   8.649
  285POPC   GL215348  -7.733   8.457   8.705
  285POPC   C1A15349  -7.523   8.392   8.665
  285POPC   D2A15350  -7.324   8.410   8.680
  285POPC   C3A15351  -7.126   8.427   8.696
  285POPC   C4A15352  -6.927   8.445   8.711
  285POPC   C1B15353  -7.526   8.280   8.830
  285POPC   C2B15354  -7.327   8.297   8.845
  285POPC   C3B15355  -7.128   8.315   8.861
  285POPC   C4B15356  -6.930   8.332   8.876
  286POPC   NC315357  -7.838   8.950  13.303
  286POPC   PO415358  -7.642   8.963  13.265
  286POPC   GL115359  -7.446   8.976  13.227
  286POPC   GL215360  -7.426   8.949  13.321
  286POPC   C1A15361  -7.250   8.989  13.189
  286POPC   D2A15362  -7.054   9.003  13.151
  286POPC   C3A15363  -6.858   9.016  13.113
  286POPC   C4A15364  -6.662   9.029  13.075
  286POPC   C1B15365  -7.248   8.797  13.133
  286POPC   C2B15366  -7.052   8.811  13.095
  286POPC   C3B15367  -6.856   8.824  13.057
  286POPC   C4B15368  -6.660   8.837  13.019
  287POPC   NC315369  26.228  12.697  17.011
  287POPC   PO415370  26.046  12.665  16.935
  287POPC   GL115371  25.864  12.633  16.859
  287POPC   GL215372  25.889  12.539  16.838
  287POPC   C1A15373  25.681  12.601  16.784
  287POPC   D2A15374  25.499  12.569  16.708
  287POPC   C3A15375  25.316  12.537  16.633
  287POPC   C4A15376  25.134  12.505  16.557
  287POPC   C1B15377  25.617  12.542  16.964
  287POPC   C2B15378  25.434  12.510  16.888
  287POPC   C3B15379  25.252  12.478  16.813
  287POPC   C4B15380  25.070  12.446  16.737
  288POPC   NC315381  18.535  22.968  18.900
  288POPC   PO415382  18.436  22.823  18.805
  288POPC   GL115383  18.337  22.678  18.710
  288POPC   GL215384  18.384  22.609  18.766
  288POPC   C1A15385  18.238  22.533  18.615
  288POPC   D2A15386  18.138  22.387  18.519
  288POPC   C3A15387  18.039  22.242  18.424
  288POPC   C4A15388  17.940  22.097  18.329
  288POPC   C1B15389  18.091  22.543  18.751
  288POPC   C2B15390  17.992  22.398  18.656
  288POPC   C3B15391  17.893  22.253  18.560
  288POPC   C4B15392  17.794  22.108  18.465
  289POPC   NC315393   3.914   6.589  -6.802
  289POPC   PO415394   3.979   6.625  -6.616
  289POPC   GL115395   4.044   6.661  -6.430
  289POPC   GL215396   4.091   6.573  -6.430
  289POPC   C1A15397   4.109   6.697  -6.244
  289POPC   D2A15398   4.173   6.732  -6.059
  289POPC   C3A15399   4.238   6.768  -5.873
  289POPC   C4A15400   4.303   6.804  -5.687
  289POPC   C1B15401   4.272   6.785  -6.318
  289POPC   C2B15402   4.337   6.821  -6.133
  289POPC   C3B15403   4.402   6.857  -5.947
  289POPC   C4B15404   4.466   6.893  -5.761
  290POPC   NC315405  -0.751   1.417  21.689
  290POPC   PO415406  -0.633   1.509  21.556
  290POPC   GL115407  -0.515   1.601  21.423
  290POPC   GL215408  -0.434   1.573  21.476
  290POPC   C1A15409  -0.397   1.692  21.290
  290POPC   D2A15410  -0.278   1.784  21.158
  290POPC   C3A15411  -0.160   1.875  21.025
  290POPC   C4A15412  -0.042   1.967  20.892
  290POPC   C1B15413  -0.385   1.523  21.184
  290POPC   C2B15414  -0.267   1.615  21.051
  290POPC   C3B15415  -0.149   1.706  20.918
  290POPC   C4B15416  -0.031   1.798  20.786
  291POPC   NC315417  24.121  -1.114  10.208
  291POPC   PO415418  23.962  -0.992  10.209
  291POPC   GL115419  23.803  -0.870  10.210
  291POPC   GL215420  23.785  -0.893  10.115
  291POPC   C1A15421  23.645  -0.748  10.211
  291POPC   D2A15422  23.486  -0.626  10.213
  291POPC   C3A15423  23.328  -0.504  10.214
  291POPC   C4A15424  23.169  -0.382  10.215
  291POPC   C1B15425  23.528  -0.900  10.270
  291POPC   C2B15426  23.370  -0.778  10.271
  291POPC   C3B15427  23.211  -0.656  10.272
  291POPC   C4B15428  23.053  -0.534  10.273
  292POPC   NC315429  27.782   9.862  11.433
  292POPC   PO415430  27.583   9.862  11.419
  292POPC   GL115431  27.384   9.862  11.405
  292POPC   GL215432  27.390   9.916  11.321
  292POPC   C1A15433  27.184   9.863  11.390
  292POPC   D2A15434  26.985   9.863  11.376
  292POPC   C3A15435  26.785   9.864  11.361
  292POPC   C4A15436  26.586   9.864  11.347
  292POPC   C1B15437  27.192   9.694  11.283
  292POPC   C2B15438  26.992   9.695  11.268
  292POPC   C3B15439  26.793   9.695  11.254
  292POPC   C4B15440  26.593   9.696  11.239
  293POPC   NC315441   8.396  23.885  -1.415
  293POPC   PO415442   8.413  23.730  -1.289
  293POPC   GL115443   8.430  23.575  -1.163
  293POPC   GL215444   8.469  23.636  -1.094
  293POPC   C1A15445   8.448  23.421  -1.038
  293POPC   D2A15446   8.465  23.266  -0.912
  293POPC   C3A15447   8.483  23.112  -0.787
  293POPC   C4A15448   8.500  22.957  -0.661
  293POPC   C1B15449   8.264  23.458  -0.967
  293POPC   C2B15450   8.282  23.303  -0.841
  293POPC   C3B15451   8.299  23.148  -0.716
  293POPC   C4B15452   8.317  22.994  -0.590
  294POPC   NC315453  20.980  21.748   2.075
  294POPC   PO415454  20.858  21.618   2.165
  294POPC   GL115455  20.736  21.488   2.255
  294POPC   GL215456  20.797  21.413   2.230
  294POPC   C1A15457  20.614  21.358   2.346
  294POPC   D2A15458  20.492  21.228   2.436
  294POPC   C3A15459  20.370  21.098   2.527
  294POPC   C4A15460  20.248  20.968   2.617
  294POPC   C1B15461  20.715  21.382   2.517
  294POPC   C2B15462  20.593  21.252   2.607
  294POPC   C3B15463  20.471  21.122   2.697
  294POPC   C4B15464  20.349  20.992   2.788
  295POPC   NC315465  -4.887  13.980  19.598
  295POPC   PO415466  -4.723  13.939  19.490
  295POPC   GL115467  -4.559  13.898  19.382
  295POPC   GL215468  -4.510  13.970  19.430
  295POPC   C1A15469  -4.396  13.857  19.275
  295POPC   D2A15470  -4.232  13.816  19.167
  295POPC   C3A15471  -4.069  13.775  19.060
  295POPC   C4A15472  -3.905  13.734  18.952
  295POPC   C1B15473  -4.338  13.725  19.414
  295POPC   C2B15474  -4.174  13.684  19.306
  295POPC   C3B15475  -4.010  13.643  19.198
  295POPC   C4B15476  -3.847  13.602  19.091
  296POPC   NC315477   3.698  14.411  -6.469
  296POPC   PO415478   3.768  14.361  -6.288
  296POPC   GL115479   3.838  14.311  -6.107
  296POPC   GL215480   3.771  14.372  -6.065
  296POPC   C1A15481   3.908  14.262  -5.926
  296POPC   D2A15482   3.977  14.212  -5.746
  296POPC   C3A15483   4.047  14.163  -5.565
  296POPC   C4A15484   4.117  14.113  -5.384
  296POPC   C1B15485   3.776  14.111  -5.917
  296POPC   C2B15486   3.846  14.062  -5.736
  296POPC   C3B15487   3.916  14.012  -5.555
  296POPC   C4B15488   3.985  13.963  -5.374
  297POPC   NC315489   8.060  13.015  -7.788
  297POPC   PO415490   8.079  12.983  -7.592
  297POPC   GL115491   8.098  12.951  -7.396
  297POPC   GL215492   8.193  12.924  -7.409
  297POPC   C1A15493   8.117  12.918  -7.199
  297POPC   D2A15494   8.136  12.886  -7.003
  297POPC   C3A15495   8.155  12.853  -6.806
  297POPC   C4A15496   8.174  12.821  -6.610
  297POPC   C1B15497   8.173  13.108  -7.173
  297POPC   C2B15498   8.192  13.076  -6.977
  297POPC   C3B15499   8.211  13.044  -6.780
  297POPC   C4B15500   8.230  13.011  -6.584
  298POPC   NC315501   4.367  25.068   1.672
  298POPC   PO415502   4.429  24.903   1.767
  298POPC   GL115503   4.491  24.738   1.862
  298POPC   GL215504   4.540  24.795   1.928
  298POPC   C1A15505   4.552  24.574   1.958
  298POPC   D2A15506   4.614  24.409   2.053
  298POPC   C3A15507   4.675  24.245   2.149
  298POPC   C4A15508   4.737  24.080   2.244
  298POPC   C1B15509   4.390  24.581   2.075
  298POPC   C2B15510   4.452  24.416   2.170
  298POPC   C3B15511   4.513  24.252   2.266
  298POPC   C4B15512   4.575  24.087   2.361
  299POPC   NC315513  20.384   2.668  -2.721
  299POPC   PO415514  20.264   2.749  -2.583
  299POPC   GL115515  20.144   2.830  -2.445
  299POPC   GL215516  20.209   2.906  -2.433
  299POPC   C1A15517  20.024   2.912  -2.307
  299POPC   D2A15518  19.905   2.993  -2.169
  299POPC   C3A15519  19.785   3.075  -2.031
  299POPC   C4A15520  19.665   3.156  -1.893
  299POPC   C1B15521  19.930   3.015  -2.450
  299POPC   C2B15522  19.810   3.096  -2.312
  299POPC   C3B15523  19.690   3.177  -2.174
  299POPC   C4B15524  19.570   3.259  -2.036
  300POPC   NC315525   6.491  16.399  -6.618
  300POPC   PO415526   6.529  16.326  -6.436
  300POPC   GL115527   6.567  16.253  -6.254
  300POPC   GL215528   6.574  16.346  -6.218
  300POPC   C1A15529   6.605  16.180  -6.071
  300POPC   D2A15530   6.643  16.108  -5.889
  300POPC   C3A15531   6.681  16.035  -5.706
  300POPC   C4A15532   6.719  15.962  -5.524
  300POPC   C1B15533   6.409  16.179  -6.031
  300POPC   C2B15534   6.447  16.106  -5.849
  300POPC   C3B15535   6.485  16.033  -5.666
  300POPC   C4B15536   6.523  15.961  -5.484
  301POPC   NC315537  20.541  24.387  12.143
  301POPC   PO415538  20.422  24.228  12.119
  301POPC   GL115539  20.303  24.069  12.095
  301POPC   GL215540  20.366  24.032  12.026
  301POPC   C1A15541  20.185  23.909  12.071
  301POPC   D2A15542  20.066  23.750  12.047
  301POPC   C3A15543  19.948  23.590  12.023
  301POPC   C4A15544  19.829  23.431  11.999
  301POPC   C1B15545  20.286  23.813  12.214
  301POPC   C2B15546  20.167  23.653  12.190
  301POPC   C3B15547  20.049  23.494  12.166
  301POPC   C4B15548  19.930  23.334  12.142
  302POPC   NC315549  -4.439  10.824  -1.041
  302POPC   PO415550  -4.284  10.820  -0.915
  302POPC   GL115551  -4.129  10.816  -0.789
  302POPC   GL215552  -4.142  10.717  -0.777
  302POPC   C1A15553  -3.973  10.811  -0.663
  302POPC   D2A15554  -3.818  10.807  -0.538
  302POPC   C3A15555  -3.662  10.802  -0.412
  302POPC   C4A15556  -3.507  10.798  -0.286
  302POPC   C1B15557  -3.850  10.775  -0.817
  302POPC   C2B15558  -3.695  10.771  -0.691
  302POPC   C3B15559  -3.539  10.767  -0.565
  302POPC   C4B15560  -3.384  10.762  -0.439
  303POPC   NC315561  22.747  10.574  22.544
  303POPC   PO415562  22.607  10.564  22.402
  303POPC   GL115563  22.467  10.554  22.260
  303POPC   GL215564  22.527  10.602  22.197
  303POPC   C1A15565  22.326  10.544  22.118
  303POPC   D2A15566  22.186  10.535  21.976
  303POPC   C3A15567  22.045  10.525  21.834
  303POPC   C4A15568  21.905  10.515  21.692
  303POPC   C1B15569  22.400  10.369  22.057
  303POPC   C2B15570  22.260  10.359  21.915
  303POPC   C3B15571  22.120  10.349  21.773
  303POPC   C4B15572  21.979  10.340  21.631
  304POPC   NC315573  -2.991   4.823  -1.684
  304POPC   PO415574  -2.850   4.880  -1.554
  304POPC   GL115575  -2.709   4.937  -1.424
  304POPC   GL215576  -2.760   4.895  -1.350
  304POPC   C1A15577  -2.568   4.994  -1.295
  304POPC   D2A15578  -2.426   5.052  -1.165
  304POPC   C3A15579  -2.285   5.109  -1.036
  304POPC   C4A15580  -2.144   5.166  -0.906
  304POPC   C1B15581  -2.470   4.823  -1.325
  304POPC   C2B15582  -2.329   4.880  -1.196
  304POPC   C3B15583  -2.188   4.937  -1.066
  304POPC   C4B15584  -2.046   4.994  -0.936
  305POPC   NC315585  -6.639   3.045  12.065
  305POPC   PO415586  -6.456   3.121  12.040
  305POPC   GL115587  -6.273   3.197  12.015
  305POPC   GL215588  -6.233   3.110  12.044
  305POPC   C1A15589  -6.089   3.272  11.989
  305POPC   D2A15590  -5.906   3.348  11.964
  305POPC   C3A15591  -5.722   3.423  11.938
  305POPC   C4A15592  -5.539   3.499  11.913
  305POPC   C1B15593  -6.089   3.207  11.800
  305POPC   C2B15594  -5.905   3.283  11.775
  305POPC   C3B15595  -5.722   3.359  11.749
  305POPC   C4B15596  -5.538   3.434  11.724
  306POPC   NC315597  13.885  25.576   1.852
  306POPC   PO415598  13.841  25.401   1.938
  306POPC   GL115599  13.797  25.226   2.024
  306POPC   GL215600  13.892  25.198   2.016
  306POPC   C1A15601  13.753  25.051   2.109
  306POPC   D2A15602  13.708  24.875   2.195
  306POPC   C3A15603  13.664  24.700   2.280
  306POPC   C4A15604  13.620  24.525   2.366
  306POPC   C1B15605  13.791  25.129   2.289
  306POPC   C2B15606  13.746  24.954   2.375
  306POPC   C3B15607  13.702  24.778   2.460
  306POPC   C4B15608  13.658  24.603   2.546
  307POPC   NC315609  -5.944  18.509  11.950
  307POPC   PO415610  -5.769  18.415  11.926
  307POPC   GL115611  -5.594  18.321  11.902
  307POPC   GL215612  -5.592  18.300  12.000
  307POPC   C1A15613  -5.419  18.227  11.879
  307POPC   D2A15614  -5.244  18.133  11.855
  307POPC   C3A15615  -5.069  18.039  11.832
  307POPC   C4A15616  -4.894  17.945  11.808
  307POPC   C1B15617  -5.516  18.056  11.844
  307POPC   C2B15618  -5.341  17.962  11.821
  307POPC   C3B15619  -5.166  17.868  11.797
  307POPC   C4B15620  -4.991  17.774  11.773
  308POPC   NC315621  11.039  27.530  13.943
  308POPC   PO415622  11.024  27.335  13.901
  308POPC   GL115623  11.009  27.140  13.859
  308POPC   GL215624  11.063  27.154  13.776
  308POPC   C1A15625  10.994  26.945  13.817
  308POPC   D2A15626  10.978  26.750  13.775
  308POPC   C3A15627  10.963  26.555  13.733
  308POPC   C4A15628  10.948  26.360  13.691
  308POPC   C1B15629  11.161  26.910  13.921
  308POPC   C2B15630  11.145  26.715  13.879
  308POPC   C3B15631  11.130  26.520  13.837
  308POPC   C4B15632  11.115  26.325  13.795
  309POPC   NC315633  -4.525  20.054   5.566
  309POPC   PO415634  -4.365  19.946   5.618
  309POPC   GL115635  -4.205  19.838   5.670
  309POPC   GL215636  -4.237  19.837   5.765
  309POPC   C1A15637  -4.046  19.729   5.722
  309POPC   D2A15638  -3.886  19.621   5.775
  309POPC   C3A15639  -3.727  19.512   5.827
  309POPC   C4A15640  -3.567  19.404   5.879
  309POPC   C1B15641  -4.148  19.561   5.687
  309POPC   C2B15642  -3.989  19.453   5.739
  309POPC   C3B15643  -3.829  19.344   5.791
  309POPC   C4B15644  -3.669  19.236   5.843
  310POPC   NC315645  20.899   1.738  21.540
  310POPC   PO415646  20.775   1.826  21.410
  310POPC   GL115647  20.651   1.914  21.280
  310POPC   GL215648  20.722   1.911  21.210
  310POPC   C1A15649  20.527   2.002  21.151
  310POPC   D2A15650  20.402   2.091  21.021
  310POPC   C3A15651  20.278   2.179  20.892
  310POPC   C4A15652  20.154   2.267  20.762
  310POPC   C1B15653  20.461   1.823  21.092
  310POPC   C2B15654  20.337   1.911  20.962
  310POPC   C3B15655  20.212   1.999  20.832
  310POPC   C4B15656  20.088   2.088  20.703
  311POPC   NC315657  22.388   2.833  20.716
  311POPC   PO415658  22.250   2.909  20.593
  311POPC   GL115659  22.112   2.985  20.470
  311POPC   GL215660  22.131   2.913  20.404
  311POPC   C1A15661  21.974   3.061  20.347
  311POPC   D2A15662  21.837   3.138  20.223
  311POPC   C3A15663  21.699   3.214  20.100
  311POPC   C4A15664  21.561   3.290  19.977
  311POPC   C1B15665  21.834   2.947  20.432
  311POPC   C2B15666  21.697   3.023  20.309
  311POPC   C3B15667  21.559   3.099  20.186
  311POPC   C4B15668  21.421   3.176  20.063
  312POPC   NC315669  24.629  19.062  14.961
  312POPC   PO415670  24.466  18.960  14.906
  312POPC   GL115671  24.303  18.858  14.851
  312POPC   GL215672  24.274  18.934  14.794
  312POPC   C1A15673  24.140  18.755  14.796
  312POPC   D2A15674  23.978  18.653  14.742
  312POPC   C3A15675  23.815  18.550  14.687
  312POPC   C4A15676  23.652  18.448  14.632
  312POPC   C1B15677  24.241  18.678  14.642
  312POPC   C2B15678  24.078  18.576  14.587
  312POPC   C3B15679  23.915  18.473  14.532
  312POPC   C4B15680  23.753  18.371  14.477
  313POPC   NC315681   4.203   5.007  26.345
  313POPC   PO415682   4.259   5.064  26.162
  313POPC   GL115683   4.315   5.121  25.979
  313POPC   GL215684   4.320   5.216  26.010
  313POPC   C1A15685   4.370   5.178  25.795
  313POPC   D2A15686   4.426   5.235  25.612
  313POPC   C3A15687   4.481   5.292  25.428
  313POPC   C4A15688   4.537   5.349  25.245
  313POPC   C1B15689   4.562   5.150  25.845
  313POPC   C2B15690   4.618   5.207  25.661
  313POPC   C3B15691   4.673   5.264  25.478
  313POPC   C4B15692   4.729   5.321  25.294
  314POPC   NC315693  -1.863  17.965  21.075
  314POPC   PO415694  -1.736  17.878  20.948
  314POPC   GL115695  -1.609  17.791  20.821
  314POPC   GL215696  -1.559  17.877  20.812
  314POPC   C1A15697  -1.482  17.703  20.694
  314POPC   D2A15698  -1.354  17.616  20.566
  314POPC   C3A15699  -1.227  17.528  20.439
  314POPC   C4A15700  -1.100  17.441  20.312
  314POPC   C1B15701  -1.364  17.651  20.847
  314POPC   C2B15702  -1.237  17.564  20.720
  314POPC   C3B15703  -1.110  17.477  20.592
  314POPC   C4B15704  -0.982  17.389  20.465
  315POPC   NC315705   5.128  -5.126  18.661
  315POPC   PO415706   5.180  -4.959  18.564
  315POPC   GL115707   5.232  -4.792  18.467
  315POPC   GL215708   5.275  -4.757  18.550
  315POPC   C1A15709   5.284  -4.625  18.369
  315POPC   D2A15710   5.335  -4.459  18.272
  315POPC   C3A15711   5.387  -4.292  18.174
  315POPC   C4A15712   5.439  -4.125  18.077
  315POPC   C1B15713   5.456  -4.710  18.315
  315POPC   C2B15714   5.508  -4.544  18.218
  315POPC   C3B15715   5.560  -4.377  18.120
  315POPC   C4B15716   5.612  -4.210  18.023
  316POPC   NC315717   7.242  -4.690  20.136
  316POPC   PO415718   7.270  -4.527  20.024
  316POPC   GL115719   7.298  -4.364  19.912
  316POPC   GL215720   7.397  -4.380  19.913
  316POPC   C1A15721   7.326  -4.200  19.800
  316POPC   D2A15722   7.354  -4.037  19.688
  316POPC   C3A15723   7.382  -3.873  19.576
  316POPC   C4A15724   7.410  -3.710  19.464
  316POPC   C1B15725   7.311  -4.311  19.634
  316POPC   C2B15726   7.339  -4.148  19.522
  316POPC   C3B15727   7.367  -3.984  19.410
  316POPC   C4B15728   7.395  -3.821  19.298
  317POPC   NC315729  18.163  25.701   7.089
  317POPC   PO415730  18.072  25.525   7.117
  317POPC   GL115731  17.981  25.349   7.145
  317POPC   GL215732  18.061  25.302   7.108
  317POPC   C1A15733  17.890  25.173   7.173
  317POPC   D2A15734  17.798  24.998   7.201
  317POPC   C3A15735  17.707  24.822   7.229
  317POPC   C4A15736  17.616  24.646   7.257
  317POPC   C1B15737  17.968  25.162   7.357
  317POPC   C2B15738  17.877  24.986   7.385
  317POPC   C3B15739  17.785  24.811   7.413
  317POPC   C4B15740  17.694  24.635   7.441
  318POPC   NC315741  26.968  15.032  12.675
  318POPC   PO415742  26.777  14.979  12.645
  318POPC   GL115743  26.586  14.926  12.615
  318POPC   GL215744  26.613  14.830  12.616
  318POPC   C1A15745  26.396  14.874  12.585
  318POPC   D2A15746  26.205  14.821  12.556
  318POPC   C3A15747  26.015  14.769  12.526
  318POPC   C4A15748  25.824  14.716  12.496
  318POPC   C1B15749  26.367  14.867  12.783
  318POPC   C2B15750  26.176  14.815  12.753
  318POPC   C3B15751  25.986  14.762  12.724
  318POPC   C4B15752  25.795  14.709  12.694
  319POPC   NC315753  -8.096  10.458  11.994
  319POPC   PO415754  -7.898  10.455  11.969
  319POPC   GL115755  -7.700  10.452  11.944
  319POPC   GL215756  -7.695  10.550  11.965
  319POPC   C1A15757  -7.501  10.449  11.918
  319POPC   D2A15758  -7.303  10.446  11.893
  319POPC   C3A15759  -7.104  10.443  11.867
  319POPC   C4A15760  -6.906  10.440  11.842
  319POPC   C1B15761  -7.477  10.404  12.112
  319POPC   C2B15762  -7.279  10.401  12.086
  319POPC   C3B15763  -7.080  10.398  12.061
  319POPC   C4B15764  -6.882  10.395  12.035
  320POPC   NC315765  -0.167  24.590  13.539
  320POPC   PO415766  -0.061  24.427  13.494
  320POPC   GL115767   0.045  24.264  13.449
  320POPC   GL215768   0.124  24.321  13.428
  320POPC   C1A15769   0.152  24.101  13.404
  320POPC   D2A15770   0.258  23.937  13.360
  320POPC   C3A15771   0.365  23.774  13.315
  320POPC   C4A15772   0.471  23.611  13.270
  320POPC   C1B15773   0.212  24.088  13.595
  320POPC   C2B15774   0.318  23.925  13.550
  320POPC   C3B15775   0.425  23.761  13.505
  320POPC   C4B15776   0.531  23.598  13.460
  321POPC   NC315777  17.702  -4.958   3.624
  321POPC   PO415778  17.616  -4.791   3.693
  321POPC   GL115779  17.530  -4.624   3.762
  321POPC   GL215780  17.605  -4.570   3.724
  321POPC   C1A15781  17.445  -4.457   3.831
  321POPC   D2A15782  17.359  -4.290   3.901
  321POPC   C3A15783  17.274  -4.123   3.970
  321POPC   C4A15784  17.188  -3.956   4.039
  321POPC   C1B15785  17.343  -4.438   3.660
  321POPC   C2B15786  17.258  -4.271   3.729
  321POPC   C3B15787  17.172  -4.104   3.798
  321POPC   C4B15788  17.087  -3.937   3.868
  322POPC   NC315789   7.513  -7.211   4.956
  322POPC   PO415790   7.539  -7.021   5.012
  322POPC   GL115791   7.565  -6.831   5.068
  322POPC   GL215792   7.659  -6.833   5.033
  322POPC   C1A15793   7.591  -6.641   5.124
  322POPC   D2A15794   7.618  -6.450   5.181
  322POPC   C3A15795   7.644  -6.260   5.237
  322POPC   C4A15796   7.670  -6.070   5.293
  322POPC   C1B15797   7.526  -6.579   4.946
  322POPC   C2B15798   7.553  -6.389   5.002
  322POPC   C3B15799   7.579  -6.198   5.058
  322POPC   C4B15800   7.605  -6.008   5.114
  323POPC   NC315801  -2.374  22.030   4.384
  323POPC   PO415802  -2.244  21.891   4.446
  323POPC   GL115803  -2.114  21.752   4.508
  323POPC   GL215804  -2.168  21.739   4.592
  323POPC   C1A15805  -1.984  21.613   4.571
  323POPC   D2A15806  -1.855  21.475   4.633
  323POPC   C3A15807  -1.725  21.336   4.696
  323POPC   C4A15808  -1.595  21.197   4.758
  323POPC   C1B15809  -2.092  21.472   4.480
  323POPC   C2B15810  -1.963  21.333   4.542
  323POPC   C3B15811  -1.833  21.194   4.605
  323POPC   C4B15812  -1.703  21.055   4.667
  324POPC   NC315813  14.455  21.875  -2.933
  324POPC   PO415814  14.407  21.745  -2.789
  324POPC   GL115815  14.359  21.615  -2.645
  324POPC   GL215816  14.403  21.542  -2.696
  324POPC   C1A15817  14.311  21.485  -2.500
  324POPC   D2A15818  14.262  21.356  -2.356
  324POPC   C3A15819  14.214  21.226  -2.211
  324POPC   C4A15820  14.166  21.096  -2.067
  324POPC   C1B15821  14.483  21.525  -2.407
  324POPC   C2B15822  14.435  21.395  -2.263
  324POPC   C3B15823  14.387  21.265  -2.118
  324POPC   C4B15824  14.339  21.135  -1.974
  325POPC   NC315825  18.917   3.962  -4.451
  325POPC   PO415826  18.816   4.028  -4.291
  325POPC   GL115827  18.715   4.094  -4.131
  325POPC   GL215828  18.767   4.180  -4.134
  325POPC   C1A15829  18.614   4.160  -3.972
  325POPC   D2A15830  18.514   4.226  -3.812
  325POPC   C3A15831  18.413   4.292  -3.653
  325POPC   C4A15832  18.312   4.358  -3.493
  325POPC   C1B15833  18.476   4.239  -4.092
  325POPC   C2B15834  18.375   4.305  -3.933
  325POPC   C3B15835  18.274   4.371  -3.773
  325POPC   C4B15836  18.173   4.437  -3.613
  326POPC   NC315837  10.186  -0.614  -4.677
  326POPC   PO415838  10.179  -0.498  -4.514
  326POPC   GL115839  10.172  -0.382  -4.351
  326POPC   GL215840  10.267  -0.403  -4.332
  326POPC   C1A15841  10.164  -0.266  -4.189
  326POPC   D2A15842  10.157  -0.150  -4.026
  326POPC   C3A15843  10.149  -0.034  -3.864
  326POPC   C4A15844  10.142   0.082  -3.701
  326POPC   C1B15845  10.220  -0.108  -4.299
  326POPC   C2B15846  10.213   0.008  -4.136
  326POPC   C3B15847  10.205   0.124  -3.973
  326POPC   C4B15848  10.198   0.240  -3.811
  327POPC   NC315849  22.060  23.315   9.068
  327POPC   PO415850  21.928  23.165   9.078
  327POPC   GL115851  21.796  23.015   9.088
  327POPC   GL215852  21.776  23.026   8.990
  327POPC   C1A15853  21.663  22.866   9.098
  327POPC   D2A15854  21.531  22.716   9.107
  327POPC   C3A15855  21.398  22.567   9.117
  327POPC   C4A15856  21.266  22.417   9.127
  327POPC   C1B15857  21.808  22.735   9.055
  327POPC   C2B15858  21.676  22.585   9.065
  327POPC   C3B15859  21.543  22.436   9.075
  327POPC   C4B15860  21.411  22.286   9.085
  328POPC   NC315861  -3.937  13.735  -1.211
  328POPC   PO415862  -3.787  13.696  -1.085
  328POPC   GL115863  -3.637  13.657  -0.959
  328POPC   GL215864  -3.692  13.587  -0.914
  328POPC   C1A15865  -3.487  13.619  -0.832
  328POPC   D2A15866  -3.336  13.580  -0.706
  328POPC   C3A15867  -3.186  13.542  -0.579
  328POPC   C4A15868  -3.036  13.503  -0.453
  328POPC   C1B15869  -3.414  13.483  -0.960
  328POPC   C2B15870  -3.264  13.444  -0.833
  328POPC   C3B15871  -3.114  13.405  -0.707
  328POPC   C4B15872  -2.964  13.367  -0.580
  329POPC   NC315873  18.464   8.603  -5.827
  329POPC   PO415874  18.371   8.621  -5.651
  329POPC   GL115875  18.278   8.639  -5.475
  329POPC   GL215876  18.194   8.667  -5.522
  329POPC   C1A15877  18.185   8.658  -5.299
  329POPC   D2A15878  18.091   8.676  -5.123
  329POPC   C3A15879  17.998   8.695  -4.947
  329POPC   C4A15880  17.905   8.713  -4.771
  329POPC   C1B15881  18.127   8.467  -5.309
  329POPC   C2B15882  18.034   8.485  -5.133
  329POPC   C3B15883  17.941   8.503  -4.957
  329POPC   C4B15884  17.848   8.522  -4.781
  330POPC   NC315885  16.594  20.718  22.834
  330POPC   PO415886  16.521  20.601  22.690
  330POPC   GL115887  16.448  20.484  22.546
  330POPC   GL215888  16.540  20.469  22.510
  330POPC   C1A15889  16.374  20.366  22.402
  330POPC   D2A15890  16.301  20.249  22.257
  330POPC   C3A15891  16.227  20.131  22.113
  330POPC   C4A15892  16.154  20.014  21.969
  330POPC   C1B15893  16.395  20.207  22.521
  330POPC   C2B15894  16.322  20.089  22.376
  330POPC   C3B15895  16.249  19.972  22.232
  330POPC   C4B15896  16.175  19.855  22.088
  331POPC   NC315897  13.024  27.233   5.812
  331POPC   PO415898  12.986  27.043   5.862
  331POPC   GL115899  12.948  26.853   5.912
  331POPC   GL215900  13.030  26.852   5.970
  331POPC   C1A15901  12.911  26.663   5.962
  331POPC   D2A15902  12.873  26.473   6.011
  331POPC   C3A15903  12.836  26.283   6.061
  331POPC   C4A15904  12.798  26.093   6.111
  331POPC   C1B15905  12.801  26.725   6.117
  331POPC   C2B15906  12.763  26.535   6.167
  331POPC   C3B15907  12.726  26.345   6.216
  331POPC   C4B15908  12.688  26.155   6.266
  332POPC   NC315909   3.585  17.506  -5.231
  332POPC   PO415910   3.655  17.424  -5.063
  332POPC   GL115911   3.725  17.342  -4.895
  332POPC   GL215912   3.744  17.433  -4.858
  332POPC   C1A15913   3.795  17.259  -4.726
  332POPC   D2A15914   3.864  17.177  -4.558
  332POPC   C3A15915   3.934  17.094  -4.389
  332POPC   C4A15916   4.004  17.012  -4.221
  332POPC   C1B15917   3.611  17.265  -4.647
  332POPC   C2B15918   3.681  17.183  -4.479
  332POPC   C3B15919   3.751  17.100  -4.311
  332POPC   C4B15920   3.820  17.018  -4.142
  333POPC   NC315921   5.781  -4.077  20.520
  333POPC   PO415922   5.827  -3.923  20.402
  333POPC   GL115923   5.873  -3.769  20.284
  333POPC   GL215924   5.944  -3.740  20.349
  333POPC   C1A15925   5.920  -3.614  20.166
  333POPC   D2A15926   5.966  -3.460  20.047
  333POPC   C3A15927   6.013  -3.305  19.929
  333POPC   C4A15928   6.059  -3.151  19.811
  333POPC   C1B15929   6.054  -3.727  20.070
  333POPC   C2B15930   6.101  -3.573  19.952
  333POPC   C3B15931   6.147  -3.419  19.834
  333POPC   C4B15932   6.194  -3.264  19.716
  334POPC   NC315933   8.489  -6.796   3.437
  334POPC   PO415934   8.505  -6.611   3.511
  334POPC   GL115935   8.521  -6.426   3.585
  334POPC   GL215936   8.614  -6.447   3.617
  334POPC   C1A15937   8.538  -6.241   3.658
  334POPC   D2A15938   8.554  -6.055   3.732
  334POPC   C3A15939   8.571  -5.870   3.805
  334POPC   C4A15940   8.587  -5.685   3.879
  334POPC   C1B15941   8.613  -6.178   3.484
  334POPC   C2B15942   8.630  -5.993   3.557
  334POPC   C3B15943   8.646  -5.808   3.631
  334POPC   C4B15944   8.662  -5.622   3.705
  335POPC   NC315945  -0.435  23.485   4.025
  335POPC   PO415946  -0.322  23.333   4.091
  335POPC   GL115947  -0.209  23.181   4.157
  335POPC   GL215948  -0.129  23.240   4.154
  335POPC   C1A15949  -0.097  23.030   4.223
  335POPC   D2A15950   0.016  22.878   4.288
  335POPC   C3A15951   0.128  22.727   4.354
  335POPC   C4A15952   0.241  22.575   4.420
  335POPC   C1B15953  -0.131  23.086   4.411
  335POPC   C2B15954  -0.018  22.935   4.477
  335POPC   C3B15955   0.094  22.783   4.543
  335POPC   C4B15956   0.207  22.632   4.609
  336POPC   NC315957  25.220  13.332  18.865
  336POPC   PO415958  25.048  13.295  18.769
  336POPC   GL115959  24.876  13.258  18.673
  336POPC   GL215960  24.889  13.160  18.688
  336POPC   C1A15961  24.704  13.221  18.578
  336POPC   D2A15962  24.533  13.184  18.482
  336POPC   C3A15963  24.361  13.147  18.387
  336POPC   C4A15964  24.189  13.110  18.291
  336POPC   C1B15965  24.605  13.233  18.751
  336POPC   C2B15966  24.434  13.196  18.656
  336POPC   C3B15967  24.262  13.159  18.560
  336POPC   C4B15968  24.090  13.122  18.464
  337POPC   NC315969  15.219  20.136  23.885
  337POPC   PO415970  15.160  20.025  23.729
  337POPC   GL115971  15.101  19.914  23.573
  337POPC   GL215972  15.161  19.840  23.603
  337POPC   C1A15973  15.042  19.804  23.417
  337POPC   D2A15974  14.982  19.693  23.262
  337POPC   C3A15975  14.923  19.583  23.106
  337POPC   C4A15976  14.864  19.472  22.950
  337POPC   C1B15977  14.894  19.727  23.528
  337POPC   C2B15978  14.835  19.616  23.372
  337POPC   C3B15979  14.776  19.505  23.217
  337POPC   C4B15980  14.716  19.395  23.061
  338POPC   NC315981   8.635   5.753  27.421
  338POPC   PO415982   8.652   5.806  27.229
  338POPC   GL115983   8.669   5.859  27.037
  338POPC   GL215984   8.763   5.826  27.036
  338POPC   C1A15985   8.685   5.911  26.845
  338POPC   D2A15986   8.702   5.964  26.652
  338POPC   C3A15987   8.718   6.016  26.460
  338POPC   C4A15988   8.735   6.069  26.268
  338POPC   C1B15989   8.623   5.729  26.789
  338POPC   C2B15990   8.639   5.782  26.597
  338POPC   C3B15991   8.656   5.835  26.405
  338POPC   C4B15992   8.673   5.887  26.213
  339POPC   NC315993  14.849  23.163  21.193
  339POPC   PO415994  14.797  23.014  21.070
  339POPC   GL115995  14.745  22.865  20.947
  339POPC   GL215996  14.783  22.799  21.011
  339POPC   C1A15997  14.694  22.717  20.823
  339POPC   D2A15998  14.642  22.568  20.700
  339POPC   C3A15999  14.591  22.420  20.576
  339POPC   C4A16000  14.539  22.271  20.453
  339POPC   C1B16001  14.516  22.704  20.913
  339POPC   C2B16002  14.464  22.555  20.790
  339POPC   C3B16003  14.413  22.406  20.667
  339POPC   C4B16004  14.361  22.258  20.543
  340POPC   NC316005  16.389   0.632  -4.139
  340POPC   PO416006  16.318   0.739  -3.986
  340POPC   GL116007  16.247   0.846  -3.833
  340POPC   GL216008  16.174   0.882  -3.891
  340POPC   C1A16009  16.175   0.952  -3.679
  340POPC   D2A16010  16.104   1.059  -3.526
  340POPC   C3A16011  16.032   1.165  -3.372
  340POPC   C4A16012  15.961   1.272  -3.219
  340POPC   C1B16013  16.057   0.799  -3.628
  340POPC   C2B16014  15.986   0.906  -3.474
  340POPC   C3B16015  15.914   1.012  -3.321
  340POPC   C4B16016  15.843   1.119  -3.167
  341POPC   NC316017  11.660   7.680  -7.909
  341POPC   PO416018  11.645   7.707  -7.711
  341POPC   GL116019  11.630   7.734  -7.513
  341POPC   GL216020  11.560   7.803  -7.528
  341POPC   C1A16021  11.614   7.760  -7.316
  341POPC   D2A16022  11.599   7.787  -7.118
  341POPC   C3A16023  11.583   7.813  -6.921
  341POPC   C4A16024  11.568   7.840  -6.723
  341POPC   C1B16025  11.472   7.620  -7.308
  341POPC   C2B16026  11.457   7.646  -7.110
  341POPC   C3B16027  11.441   7.673  -6.913
  341POPC   C4B16028  11.426   7.699  -6.715
  342POPC   NC316029  26.231   5.639   3.602
  342POPC   PO416030  26.048   5.684   3.670
  342POPC   GL116031  25.865   5.729   3.738
  342POPC   GL216032  25.884   5.826   3.725
  342POPC   C1A16033  25.682   5.774   3.805
  342POPC   D2A16034  25.500   5.818   3.873
  342POPC   C3A16035  25.317   5.863   3.940
  342POPC   C4A16036  25.134   5.908   4.008
  342POPC   C1B16037  25.611   5.763   3.619
  342POPC   C2B16038  25.428   5.807   3.686
  342POPC   C3B16039  25.245   5.852   3.754
  342POPC   C4B16040  25.062   5.897   3.822
  343POPC   NC316041  23.562   1.268   2.006
  343POPC   PO416042  23.412   1.365   2.097
  343POPC   GL116043  23.262   1.462   2.188
  343POPC   GL216044  23.316   1.546   2.186
  343POPC   C1A16045  23.112   1.559   2.278
  343POPC   D2A16046  22.963   1.655   2.369
  343POPC   C3A16047  22.813   1.752   2.459
  343POPC   C4A16048  22.663   1.849   2.550
  343POPC   C1B16049  23.035   1.605   2.100
  343POPC   C2B16050  22.885   1.702   2.191
  343POPC   C3B16051  22.735   1.799   2.281
  343POPC   C4B16052  22.585   1.896   2.372
  344POPC   NC316053  11.797  23.777  -1.560
  344POPC   PO416054  11.781  23.625  -1.431
  344POPC   GL116055  11.765  23.473  -1.302
  344POPC   GL216056  11.865  23.465  -1.299
  344POPC   C1A16057  11.749  23.321  -1.173
  344POPC   D2A16058  11.734  23.168  -1.045
  344POPC   C3A16059  11.718  23.016  -0.916
  344POPC   C4A16060  11.702  22.864  -0.787
  344POPC   C1B16061  11.753  23.449  -1.021
  344POPC   C2B16062  11.738  23.297  -0.892
  344POPC   C3B16063  11.722  23.145  -0.763
  344POPC   C4B16064  11.706  22.993  -0.634
  345POPC   NC316065  19.171  25.005  13.756
  345POPC   PO416066  19.066  24.841  13.712
  345POPC   GL116067  18.961  24.677  13.668
  345POPC   GL216068  19.039  24.640  13.618
  345POPC   C1A16069  18.856  24.512  13.624
  345POPC   D2A16070  18.751  24.348  13.581
  345POPC   C3A16071  18.646  24.183  13.537
  345POPC   C4A16072  18.541  24.019  13.493
  345POPC   C1B16073  18.922  24.425  13.792
  345POPC   C2B16074  18.817  24.261  13.748
  345POPC   C3B16075  18.712  24.097  13.704
  345POPC   C4B16076  18.607  23.932  13.661
  346POPC   NC316077  -5.886  15.993   3.657
  346POPC   PO416078  -5.711  15.926   3.726
  346POPC   GL116079  -5.536  15.859   3.795
  346POPC   GL216080  -5.545  15.918   3.875
  346POPC   C1A16081  -5.360  15.792   3.864
  346POPC   D2A16082  -5.185  15.725   3.932
  346POPC   C3A16083  -5.009  15.658   4.001
  346POPC   C4A16084  -4.834  15.591   4.070
  346POPC   C1B16085  -5.454  15.644   3.960
  346POPC   C2B16086  -5.279  15.577   4.029
  346POPC   C3B16087  -5.104  15.510   4.098
  346POPC   C4B16088  -4.928  15.443   4.167
  347POPC   NC316089   7.917  13.684  -7.649
  347POPC   PO416090   7.937  13.643  -7.454
  347POPC   GL116091   7.957  13.602  -7.259
  347POPC   GL216092   8.053  13.579  -7.274
  347POPC   C1A16093   7.977  13.561  -7.064
  347POPC   D2A16094   7.998  13.521  -6.870
  347POPC   C3A16095   8.018  13.480  -6.675
  347POPC   C4A16096   8.038  13.439  -6.480
  347POPC   C1B16097   8.029  13.752  -7.030
  347POPC   C2B16098   8.049  13.711  -6.835
  347POPC   C3B16099   8.069  13.670  -6.640
  347POPC   C4B16100   8.089  13.629  -6.446
  348POPC   NC316101  22.911  -2.496   9.428
  348POPC   PO416102  22.767  -2.358   9.435
  348POPC   GL116103  22.623  -2.220   9.442
  348POPC   GL216104  22.590  -2.249   9.352
  348POPC   C1A16105  22.479  -2.081   9.449
  348POPC   D2A16106  22.334  -1.943   9.457
  348POPC   C3A16107  22.190  -1.804   9.464
  348POPC   C4A16108  22.046  -1.666   9.471
  348POPC   C1B16109  22.356  -2.213   9.536
  348POPC   C2B16110  22.212  -2.075   9.544
  348POPC   C3B16111  22.068  -1.936   9.551
  348POPC   C4B16112  21.924  -1.798   9.558
  349POPC   NC316113  13.526  -7.712  10.645
  349POPC   PO416114  13.487  -7.516  10.635
  349POPC   GL116115  13.448  -7.320  10.625
  349POPC   GL216116  13.443  -7.327  10.525
  349POPC   C1A16117  13.409  -7.124  10.614
  349POPC   D2A16118  13.370  -6.929  10.604
  349POPC   C3A16119  13.331  -6.733  10.593
  349POPC   C4A16120  13.292  -6.537  10.583
  349POPC   C1B16121  13.213  -7.163  10.628
  349POPC   C2B16122  13.174  -6.967  10.617
  349POPC   C3B16123  13.135  -6.771  10.607
  349POPC   C4B16124  13.096  -6.575  10.596
  350POPC   NC316125  -0.749  -1.843  18.548
  350POPC   PO416126  -0.632  -1.712  18.453
  350POPC   GL116127  -0.515  -1.581  18.358
  350POPC   GL216128  -0.440  -1.602  18.421
  350POPC   C1A16129  -0.398  -1.449  18.263
  350POPC   D2A16130  -0.281  -1.318  18.168
  350POPC   C3A16131  -0.164  -1.186  18.073
  350POPC   C4A16132  -0.047  -1.055  17.978
  350POPC   C1B16133  -0.336  -1.594  18.139
  350POPC   C2B16134  -0.219  -1.462  18.044
  350POPC   C3B16135  -0.102  -1.331  17.949
  350POPC   C4B16136   0.015  -1.199  17.854
  351POPC   NC316137  -6.172   3.867   4.225
  351POPC   PO416138  -5.994   3.937   4.283
  351POPC   GL116139  -5.816   4.007   4.341
  351POPC   GL216140  -5.862   4.073   4.401
  351POPC   C1A16141  -5.638   4.078   4.399
  351POPC   D2A16142  -5.460   4.148   4.458
  351POPC   C3A16143  -5.282   4.219   4.516
  351POPC   C4A16144  -5.104   4.289   4.574
  351POPC   C1B16145  -5.634   3.944   4.548
  351POPC   C2B16146  -5.456   4.015   4.607
  351POPC   C3B16147  -5.278   4.085   4.665
  351POPC   C4B16148  -5.100   4.156   4.723
  352POPC   NC316149  22.124  -1.341   3.003
  352POPC   PO416150  21.988  -1.216   3.080
  352POPC   GL116151  21.852  -1.091   3.157
  352POPC   GL216152  21.919  -1.017   3.156
  352POPC   C1A16153  21.716  -0.966   3.234
  352POPC   D2A16154  21.580  -0.842   3.310
  352POPC   C3A16155  21.444  -0.717   3.387
  352POPC   C4A16156  21.308  -0.592   3.464
  352POPC   C1B16157  21.658  -0.916   3.049
  352POPC   C2B16158  21.522  -0.791   3.126
  352POPC   C3B16159  21.386  -0.666   3.203
  352POPC   C4B16160  21.250  -0.541   3.279
  353POPC   NC316161  16.886  26.473   8.353
  353POPC   PO416162  16.804  26.291   8.369
  353POPC   GL116163  16.722  26.109   8.385
  353POPC   GL216164  16.800  26.070   8.335
  353POPC   C1A16165  16.641  25.927   8.401
  353POPC   D2A16166  16.559  25.745   8.418
  353POPC   C3A16167  16.478  25.563   8.434
  353POPC   C4A16168  16.396  25.381   8.450
  353POPC   C1B16169  16.738  25.899   8.574
  353POPC   C2B16170  16.656  25.717   8.590
  353POPC   C3B16171  16.575  25.535   8.606
  353POPC   C4B16172  16.493  25.353   8.623
  354POPC   NC316173  17.534  26.236   9.606
  354POPC   PO416174  17.446  26.057   9.610
  354POPC   GL116175  17.358  25.878   9.614
  354POPC   GL216176  17.435  25.838   9.564
  354POPC   C1A16177  17.270  25.698   9.618
  354POPC   D2A16178  17.181  25.519   9.621
  354POPC   C3A16179  17.093  25.339   9.625
  354POPC   C4A16180  17.005  25.160   9.629
  354POPC   C1B16181  17.361  25.657   9.791
  354POPC   C2B16182  17.273  25.478   9.795
  354POPC   C3B16183  17.184  25.298   9.798
  354POPC   C4B16184  17.096  25.119   9.802
  355POPC   NC316185  17.969  18.709  -3.635
  355POPC   PO416186  17.878  18.614  -3.484
  355POPC   GL116187  17.787  18.519  -3.333
  355POPC   GL216188  17.811  18.431  -3.374
  355POPC   C1A16189  17.696  18.424  -3.183
  355POPC   D2A16190  17.604  18.330  -3.032
  355POPC   C3A16191  17.513  18.235  -2.882
  355POPC   C4A16192  17.422  18.140  -2.731
  355POPC   C1B16193  17.867  18.423  -3.080
  355POPC   C2B16194  17.776  18.328  -2.929
  355POPC   C3B16195  17.685  18.234  -2.778
  355POPC   C4B16196  17.593  18.139  -2.628
  356POPC   NC316197  18.237  25.197  14.898
  356POPC   PO416198  18.143  25.031  14.837
  356POPC   GL116199  18.049  24.865  14.776
  356POPC   GL216200  18.120  24.850  14.707
  356POPC   C1A16201  17.955  24.699  14.716
  356POPC   D2A16202  17.860  24.534  14.655
  356POPC   C3A16203  17.766  24.368  14.595
  356POPC   C4A16204  17.672  24.202  14.534
  356POPC   C1B16205  18.060  24.591  14.847
  356POPC   C2B16206  17.966  24.426  14.786
  356POPC   C3B16207  17.872  24.260  14.726
  356POPC   C4B16208  17.778  24.094  14.665
  357POPC   NC316209  17.608   6.549  -5.931
  357POPC   PO416210  17.523   6.587  -5.754
  357POPC   GL116211  17.438   6.625  -5.577
  357POPC   GL216212  17.347   6.613  -5.618
  357POPC   C1A16213  17.353   6.662  -5.400
  357POPC   D2A16214  17.268   6.700  -5.223
  357POPC   C3A16215  17.183   6.737  -5.046
  357POPC   C4A16216  17.098   6.775  -4.869
  357POPC   C1B16217  17.358   6.467  -5.356
  357POPC   C2B16218  17.273   6.505  -5.179
  357POPC   C3B16219  17.188   6.542  -5.002
  357POPC   C4B16220  17.103   6.580  -4.825
  358POPC   NC316221   2.588  16.389  25.202
  358POPC   PO416222   2.676  16.319  25.037
  358POPC   GL116223   2.764  16.249  24.872
  358POPC   GL216224   2.804  16.340  24.855
  358POPC   C1A16225   2.853  16.180  24.706
  358POPC   D2A16226   2.941  16.110  24.541
  358POPC   C3A16227   3.030  16.041  24.375
  358POPC   C4A16228   3.118  15.971  24.210
  358POPC   C1B16229   3.014  16.129  24.814
  358POPC   C2B16230   3.102  16.060  24.648
  358POPC   C3B16231   3.191  15.990  24.483
  358POPC   C4B16232   3.279  15.920  24.317
  359POPC   NC316233  20.953  20.593   0.538
  359POPC   PO416234  20.831  20.471   0.640
  359POPC   GL116235  20.709  20.349   0.742
  359POPC   GL216236  20.684  20.303   0.657
  359POPC   C1A16237  20.587  20.227   0.844
  359POPC   D2A16238  20.466  20.106   0.945
  359POPC   C3A16239  20.344  19.984   1.047
  359POPC   C4A16240  20.222  19.862   1.149
  359POPC   C1B16241  20.738  20.098   0.869
  359POPC   C2B16242  20.616  19.976   0.971
  359POPC   C3B16243  20.494  19.855   1.073
  359POPC   C4B16244  20.373  19.733   1.175
  360POPC   NC316245  24.412  18.113  16.981
  360POPC   PO416246  24.251  18.020  16.906
  360POPC   GL116247  24.090  17.927  16.831
  360POPC   GL216248  24.134  17.925  16.741
  360POPC   C1A16249  23.930  17.834  16.756
  360POPC   D2A16250  23.769  17.742  16.682
  360POPC   C3A16251  23.609  17.649  16.607
  360POPC   C4A16252  23.448  17.556  16.532
  360POPC   C1B16253  24.012  17.657  16.800
  360POPC   C2B16254  23.851  17.564  16.725
  360POPC   C3B16255  23.691  17.472  16.650
  360POPC   C4B16256  23.530  17.379  16.576
  361POPC   NC316257  10.636  27.909  11.726
  361POPC   PO416258  10.627  27.710  11.707
  361POPC   GL116259  10.618  27.511  11.688
  361POPC   GL216260  10.716  27.509  11.665
  361POPC   C1A16261  10.609  27.312  11.668
  361POPC   D2A16262  10.600  27.114  11.649
  361POPC   C3A16263  10.591  26.915  11.629
  361POPC   C4A16264  10.582  26.716  11.610
  361POPC   C1B16265  10.653  27.292  11.862
  361POPC   C2B16266  10.644  27.093  11.843
  361POPC   C3B16267  10.635  26.894  11.823
  361POPC   C4B16268  10.626  26.695  11.804
  362POPC   NC316269  -3.767  21.781  11.217
  362POPC   PO416270  -3.615  21.651  11.203
  362POPC   GL116271  -3.463  21.521  11.189
  362POPC   GL216272  -3.410  21.577  11.252
  362POPC   C1A16273  -3.311  21.392  11.176
  362POPC   D2A16274  -3.160  21.262  11.162
  362POPC   C3A16275  -3.008  21.133  11.149
  362POPC   C4A16276  -2.856  21.003  11.135
  362POPC   C1B16277  -3.386  21.289  11.330
  362POPC   C2B16278  -3.234  21.159  11.317
  362POPC   C3B16279  -3.082  21.030  11.303
  362POPC   C4B16280  -2.930  20.900  11.290
  363POPC   NC316281  23.557  17.312  19.233
  363POPC   PO416282  23.411  17.228  19.125
  363POPC   GL116283  23.265  17.144  19.017
  363POPC   GL216284  23.319  17.061  19.009
  363POPC   C1A16285  23.119  17.061  18.909
  363POPC   D2A16286  22.973  16.977  18.801
  363POPC   C3A16287  22.827  16.894  18.693
  363POPC   C4A16288  22.681  16.810  18.585
  363POPC   C1B16289  23.035  16.991  19.077
  363POPC   C2B16290  22.889  16.907  18.969
  363POPC   C3B16291  22.743  16.823  18.861
  363POPC   C4B16292  22.597  16.740  18.753
  364POPC   NC316293   1.210  11.167  -5.820
  364POPC   PO416294   1.311  11.152  -5.648
  364POPC   GL116295   1.412  11.137  -5.476
  364POPC   GL216296   1.366  11.219  -5.442
  364POPC   C1A16297   1.512  11.122  -5.304
  364POPC   D2A16298   1.613  11.106  -5.131
  364POPC   C3A16299   1.713  11.091  -4.959
  364POPC   C4A16300   1.814  11.076  -4.787
  364POPC   C1B16301   1.366  11.009  -5.228
  364POPC   C2B16302   1.466  10.993  -5.056
  364POPC   C3B16303   1.567  10.978  -4.884
  364POPC   C4B16304   1.667  10.963  -4.711
  365POPC   NC316305  -1.149  23.697   6.183
  365POPC   PO416306  -1.030  23.542   6.224
  365POPC   GL116307  -0.911  23.387   6.265
  365POPC   GL216308  -0.830  23.445   6.251
  365POPC   C1A16309  -0.791  23.232   6.305
  365POPC   D2A16310  -0.672  23.076   6.346
  365POPC   C3A16311  -0.552  22.921   6.386
  365POPC   C4A16312  -0.433  22.766   6.427
  365POPC   C1B16313  -0.794  23.280   6.499
  365POPC   C2B16314  -0.675  23.125   6.540
  365POPC   C3B16315  -0.555  22.970   6.580
  365POPC   C4B16316  -0.436  22.814   6.621
  366POPC   NC316317  -8.206  10.707  10.572
  366POPC   PO416318  -8.006  10.700  10.564
  366POPC   GL116319  -7.806  10.693  10.556
  366POPC   GL216320  -7.801  10.760  10.629
  366POPC   C1A16321  -7.606  10.685  10.548
  366POPC   D2A16322  -7.407  10.678  10.541
  366POPC   C3A16323  -7.207  10.670  10.533
  366POPC   C4A16324  -7.007  10.663  10.525
  366POPC   C1B16325  -7.607  10.538  10.684
  366POPC   C2B16326  -7.407  10.531  10.676
  366POPC   C3B16327  -7.207  10.523  10.669
  366POPC   C4B16328  -7.007  10.516  10.661
  367POPC   NC316329   9.513  24.556  20.631
  367POPC   PO416330   9.516  24.397  20.510
  367POPC   GL116331   9.519  24.238  20.389
  367POPC   GL216332   9.577  24.288  20.324
  367POPC   C1A16333   9.521  24.079  20.267
  367POPC   D2A16334   9.524  23.920  20.146
  367POPC   C3A16335   9.526  23.761  20.024
  367POPC   C4A16336   9.529  23.602  19.903
  367POPC   C1B16337   9.684  24.010  20.361
  367POPC   C2B16338   9.686  23.851  20.240
  367POPC   C3B16339   9.689  23.692  20.118
  367POPC   C4B16340   9.691  23.533  19.997
  368POPC   NC316341  -2.743  19.422   1.064
  368POPC   PO416342  -2.602  19.318   1.161
  368POPC   GL116343  -2.461  19.214   1.258
  368POPC   GL216344  -2.498  19.246   1.345
  368POPC   C1A16345  -2.321  19.110   1.355
  368POPC   D2A16346  -2.180  19.006   1.453
  368POPC   C3A16347  -2.040  18.902   1.550
  368POPC   C4A16348  -1.899  18.798   1.647
  368POPC   C1B16349  -2.443  18.952   1.362
  368POPC   C2B16350  -2.302  18.848   1.460
  368POPC   C3B16351  -2.162  18.744   1.557
  368POPC   C4B16352  -2.021  18.640   1.654
  369POPC   NC316353   6.999  -2.261  -3.011
  369POPC   PO416354   7.031  -2.125  -2.868
  369POPC   GL116355   7.063  -1.989  -2.725
  369POPC   GL216356   7.161  -1.988  -2.749
  369POPC   C1A16357   7.095  -1.852  -2.583
  369POPC   D2A16358   7.128  -1.716  -2.440
  369POPC   C3A16359   7.160  -1.579  -2.298
  369POPC   C4A16360   7.192  -1.443  -2.155
  369POPC   C1B16361   7.062  -1.706  -2.715
  369POPC   C2B16362   7.094  -1.570  -2.573
  369POPC   C3B16363   7.127  -1.433  -2.430
  369POPC   C4B16364   7.159  -1.297  -2.287
  370POPC   NC316365  -4.043  13.674  20.857
  370POPC   PO416366  -3.889  13.639  20.734
  370POPC   GL116367  -3.735  13.604  20.611
  370POPC   GL216368  -3.698  13.538  20.677
  370POPC   C1A16369  -3.581  13.568  20.489
  370POPC   D2A16370  -3.427  13.533  20.366
  370POPC   C3A16371  -3.273  13.497  20.244
  370POPC   C4A16372  -3.119  13.462  20.121
  370POPC   C1B16373  -3.685  13.421  20.401
  370POPC   C2B16374  -3.531  13.386  20.278
  370POPC   C3B16375  -3.377  13.351  20.156
  370POPC   C4B16376  -3.223  13.315  20.033
  371POPC   NC316377   1.978  12.589  25.962
  371POPC   PO416378   2.061  12.559  25.783
  371POPC   GL116379   2.144  12.529  25.604
  371POPC   GL216380   2.171  12.626  25.600
  371POPC   C1A16381   2.228  12.500  25.424
  371POPC   D2A16382   2.311  12.470  25.245
  371POPC   C3A16383   2.395  12.441  25.065
  371POPC   C4A16384   2.478  12.411  24.886
  371POPC   C1B16385   2.402  12.456  25.512
  371POPC   C2B16386   2.485  12.426  25.333
  371POPC   C3B16387   2.569  12.397  25.154
  371POPC   C4B16388   2.652  12.367  24.974
  372POPC   NC316389  18.063  -5.442   5.514
  372POPC   PO416390  17.974  -5.270   5.565
  372POPC   GL116391  17.885  -5.098   5.616
  372POPC   GL216392  17.973  -5.051   5.610
  372POPC   C1A16393  17.796  -4.926   5.667
  372POPC   D2A16394  17.708  -4.755   5.718
  372POPC   C3A16395  17.619  -4.583   5.769
  372POPC   C4A16396  17.530  -4.411   5.820
  372POPC   C1B16397  17.763  -4.886   5.474
  372POPC   C2B16398  17.674  -4.714   5.525
  372POPC   C3B16399  17.585  -4.543   5.576
  372POPC   C4B16400  17.497  -4.371   5.627
  373POPC   NC316401  -6.965   9.983  16.457
  373POPC   PO416402  -6.779   9.984  16.384
  373POPC   GL116403  -6.593   9.985  16.311
  373POPC   GL216404  -6.575  10.072  16.358
  373POPC   C1A16405  -6.406   9.986  16.239
  373POPC   D2A16406  -6.220   9.987  16.166
  373POPC   C3A16407  -6.033   9.988  16.094
  373POPC   C4A16408  -5.847   9.989  16.021
  373POPC   C1B16409  -6.343   9.886  16.400
  373POPC   C2B16410  -6.156   9.887  16.327
  373POPC   C3B16411  -5.970   9.888  16.255
  373POPC   C4B16412  -5.784   9.889  16.182
  374POPC   NC316413  11.035  23.936  21.322
  374POPC   PO416414  11.018  23.782  21.195
  374POPC   GL116415  11.001  23.628  21.068
  374POPC   GL216416  11.005  23.564  21.145
  374POPC   C1A16417  10.984  23.474  20.942
  374POPC   D2A16418  10.966  23.320  20.815
  374POPC   C3A16419  10.949  23.166  20.689
  374POPC   C4A16420  10.932  23.012  20.562
  374POPC   C1B16421  10.785  23.482  20.960
  374POPC   C2B16422  10.767  23.328  20.833
  374POPC   C3B16423  10.750  23.174  20.706
  374POPC   C4B16424  10.733  23.020  20.580
  375POPC   NC316425  -0.392  19.005  -1.945
  375POPC   PO416426  -0.278  18.907  -1.813
  375POPC   GL116427  -0.164  18.809  -1.681
  375POPC   GL216428  -0.082  18.852  -1.720
  375POPC   C1A16429  -0.050  18.711  -1.549
  375POPC   D2A16430   0.064  18.612  -1.418
  375POPC   C3A16431   0.178  18.514  -1.286
  375POPC   C4A16432   0.292  18.416  -1.154
  375POPC   C1B16433  -0.069  18.862  -1.420
  375POPC   C2B16434   0.045  18.764  -1.288
  375POPC   C3B16435   0.159  18.665  -1.156
  375POPC   C4B16436   0.273  18.567  -1.025
  376POPC   NC316437  19.668  -1.196  -0.313
  376POPC   PO416438  19.556  -1.074  -0.200
  376POPC   GL116439  19.444  -0.952  -0.087
  376POPC   GL216440  19.376  -0.948  -0.160
  376POPC   C1A16441  19.333  -0.830   0.026
  376POPC   D2A16442  19.221  -0.709   0.138
  376POPC   C3A16443  19.110  -0.587   0.251
  376POPC   C4A16444  18.998  -0.465   0.364
  376POPC   C1B16445  19.240  -0.989   0.104
  376POPC   C2B16446  19.128  -0.867   0.217
  376POPC   C3B16447  19.016  -0.745   0.330
  376POPC   C4B16448  18.905  -0.623   0.443
  377POPC   NC316449  15.845  24.091   0.379
  377POPC   PO416450  15.776  23.934   0.482
  377POPC   GL116451  15.707  23.777   0.585
  377POPC   GL216452  15.675  23.735   0.500
  377POPC   C1A16453  15.638  23.620   0.688
  377POPC   D2A16454  15.568  23.463   0.791
  377POPC   C3A16455  15.499  23.306   0.894
  377POPC   C4A16456  15.430  23.149   0.997
  377POPC   C1B16457  15.814  23.529   0.668
  377POPC   C2B16458  15.745  23.372   0.771
  377POPC   C3B16459  15.676  23.215   0.874
  377POPC   C4B16460  15.607  23.058   0.977
  378POPC   NC316461   5.454  27.532  10.446
  378POPC   PO416462   5.502  27.338  10.441
  378POPC   GL116463   5.550  27.144  10.436
  378POPC   GL216464   5.587  27.151  10.529
  378POPC   C1A16465   5.598  26.950  10.431
  378POPC   D2A16466   5.647  26.756  10.427
  378POPC   C3A16467   5.695  26.562  10.422
  378POPC   C4A16468   5.743  26.368  10.417
  378POPC   C1B16469   5.419  26.903  10.506
  378POPC   C2B16470   5.467  26.709  10.501
  378POPC   C3B16471   5.515  26.515  10.496
  378POPC   C4B16472   5.563  26.321  10.492
  379POPC   NC316473  16.190  -6.875  11.285
  379POPC   PO416474  16.117  -6.689  11.270
  379POPC   GL116475  16.044  -6.503  11.255
  379POPC   GL216476  16.111  -6.472  11.323
  379POPC   C1A16477  15.971  -6.318  11.240
  379POPC   D2A16478  15.898  -6.132  11.226
  379POPC   C3A16479  15.825  -5.947  11.211
  379POPC   C4A16480  15.752  -5.761  11.196
  379POPC   C1B16481  16.101  -6.278  11.094
  379POPC   C2B16482  16.028  -6.093  11.079
  379POPC   C3B16483  15.955  -5.907  11.064
  379POPC   C4B16484  15.882  -5.722  11.049
  380POPC   NC316485  11.512  -4.475  20.554
  380POPC   PO416486  11.489  -4.320  20.430
  380POPC   GL116487  11.466  -4.165  20.306
  380POPC   GL216488  11.529  -4.207  20.241
  380POPC   C1A16489  11.442  -4.010  20.182
  380POPC   D2A16490  11.419  -3.855  20.057
  380POPC   C3A16491  11.395  -3.700  19.933
  380POPC   C4A16492  11.372  -3.545  19.809
  380POPC   C1B16493  11.290  -4.104  20.093
  380POPC   C2B16494  11.266  -3.949  19.969
  380POPC   C3B16495  11.243  -3.794  19.844
  380POPC   C4B16496  11.220  -3.639  19.720
  381POPC   NC316497  -3.129   8.870  22.421
  381POPC   PO416498  -2.984   8.878  22.283
  381POPC   GL116499  -2.839   8.886  22.145
  381POPC   GL216500  -2.771   8.863  22.215
  381POPC   C1A16501  -2.694   8.894  22.007
  381POPC   D2A16502  -2.550   8.903  21.870
  381POPC   C3A16503  -2.405   8.911  21.732
  381POPC   C4A16504  -2.260   8.919  21.594
  381POPC   C1B16505  -2.720   8.700  21.969
  381POPC   C2B16506  -2.575   8.708  21.831
  381POPC   C3B16507  -2.430   8.716  21.693
  381POPC   C4B16508  -2.286   8.724  21.555
  382POPC   NC316509   8.417  -4.565  20.544
  382POPC   PO416510   8.433  -4.404  20.427
  382POPC   GL116511   8.449  -4.243  20.310
  382POPC   GL216512   8.547  -4.260  20.300
  382POPC   C1A16513   8.465  -4.082  20.193
  382POPC   D2A16514   8.481  -3.920  20.075
  382POPC   C3A16515   8.497  -3.759  19.958
  382POPC   C4A16516   8.513  -3.598  19.841
  382POPC   C1B16517   8.428  -4.195  20.032
  382POPC   C2B16518   8.444  -4.034  19.915
  382POPC   C3B16519   8.460  -3.872  19.797
  382POPC   C4B16520   8.476  -3.711  19.680
  383POPC   NC316521  14.600   8.094  -7.407
  383POPC   PO416522  14.541   8.117  -7.217
  383POPC   GL116523  14.482   8.140  -7.027
  383POPC   GL216524  14.495   8.239  -7.035
  383POPC   C1A16525  14.422   8.163  -6.838
  383POPC   D2A16526  14.363   8.185  -6.648
  383POPC   C3A16527  14.303   8.208  -6.459
  383POPC   C4A16528  14.244   8.231  -6.269
  383POPC   C1B16529  14.233   8.183  -6.899
  383POPC   C2B16530  14.174   8.205  -6.710
  383POPC   C3B16531  14.114   8.228  -6.520
  383POPC   C4B16532  14.055   8.251  -6.331
  384POPC   NC316533  -4.085   9.605  -1.451
  384POPC   PO416534  -3.933   9.611  -1.321
  384POPC   GL116535  -3.781   9.617  -1.191
  384POPC   GL216536  -3.828   9.689  -1.140
  384POPC   C1A16537  -3.630   9.623  -1.060
  384POPC   D2A16538  -3.478   9.630  -0.930
  384POPC   C3A16539  -3.327   9.636  -0.799
  384POPC   C4A16540  -3.175   9.642  -0.669
  384POPC   C1B16541  -3.721   9.485  -0.948
  384POPC   C2B16542  -3.569   9.492  -0.817
  384POPC   C3B16543  -3.418   9.498  -0.687
  384POPC   C4B16544  -3.266   9.504  -0.556
  385POPC   NC316545   1.327  21.624  -0.965
  385POPC   PO416546   1.422  21.492  -0.849
  385POPC   GL116547   1.517  21.360  -0.733
  385POPC   GL216548   1.603  21.379  -0.782
  385POPC   C1A16549   1.612  21.228  -0.617
  385POPC   D2A16550   1.708  21.095  -0.501
  385POPC   C3A16551   1.803  20.963  -0.385
  385POPC   C4A16552   1.898  20.831  -0.269
  385POPC   C1B16553   1.655  21.373  -0.486
  385POPC   C2B16554   1.750  21.241  -0.370
  385POPC   C3B16555   1.846  21.108  -0.254
  385POPC   C4B16556   1.941  20.976  -0.138
  386POPC   NC316557  26.070  14.059   3.040
  386POPC   PO416558  25.892  14.015   3.120
  386POPC   GL116559  25.714  13.971   3.200
  386POPC   GL216560  25.670  14.037   3.138
  386POPC   C1A16561  25.536  13.927   3.279
  386POPC   D2A16562  25.358  13.882   3.359
  386POPC   C3A16563  25.180  13.838   3.438
  386POPC   C4A16564  25.002  13.794   3.518
  386POPC   C1B16565  25.511  13.783   3.142
  386POPC   C2B16566  25.333  13.739   3.222
  386POPC   C3B16567  25.155  13.694   3.302
  386POPC   C4B16568  24.977  13.650   3.381
  387POPC   NC316569  -5.617   9.384  19.210
  387POPC   PO416570  -5.447   9.390  19.104
  387POPC   GL116571  -5.277   9.396  18.998
  387POPC   GL216572  -5.255   9.303  19.030
  387POPC   C1A16573  -5.107   9.401  18.893
  387POPC   D2A16574  -4.938   9.407  18.787
  387POPC   C3A16575  -4.768   9.412  18.682
  387POPC   C4A16576  -4.598   9.418  18.576
  387POPC   C1B16577  -5.203   9.324  18.735
  387POPC   C2B16578  -5.033   9.329  18.630
  387POPC   C3B16579  -4.863   9.335  18.524
  387POPC   C4B16580  -4.693   9.340  18.418
  388POPC   NC316581  -4.008  20.589  14.482
  388POPC   PO416582  -3.853  20.472  14.433
  388POPC   GL116583  -3.698  20.355  14.384
  388POPC   GL216584  -3.652  20.433  14.342
  388POPC   C1A16585  -3.544  20.238  14.335
  388POPC   D2A16586  -3.389  20.120  14.286
  388POPC   C3A16587  -3.235  20.003  14.237
  388POPC   C4A16588  -3.080  19.886  14.188
  388POPC   C1B16589  -3.456  20.280  14.510
  388POPC   C2B16590  -3.302  20.163  14.461
  388POPC   C3B16591  -3.147  20.046  14.412
  388POPC   C4B16592  -2.992  19.928  14.363
  389POPC   NC316593  -6.743   5.043   4.737
  389POPC   PO416594  -6.559   5.099   4.792
  389POPC   GL116595  -6.375   5.155   4.847
  389POPC   GL216596  -6.414   5.231   4.899
  389POPC   C1A16597  -6.191   5.211   4.903
  389POPC   D2A16598  -6.008   5.266   4.958
  389POPC   C3A16599  -5.824   5.322   5.014
  389POPC   C4A16600  -5.640   5.378   5.069
  389POPC   C1B16601  -6.205   5.094   5.065
  389POPC   C2B16602  -6.021   5.150   5.120
  389POPC   C3B16603  -5.837   5.206   5.175
  389POPC   C4B16604  -5.653   5.261   5.231
  390POPC   NC316605  13.869  27.210   6.454
  390POPC   PO416606  13.824  27.020   6.497
  390POPC   GL116607  13.779  26.830   6.540
  390POPC   GL216608  13.876  26.806   6.537
  390POPC   C1A16609  13.734  26.640   6.583
  390POPC   D2A16610  13.689  26.449   6.625
  390POPC   C3A16611  13.644  26.259   6.668
  390POPC   C4A16612  13.599  26.069   6.711
  390POPC   C1B16613  13.749  26.680   6.778
  390POPC   C2B16614  13.704  26.490   6.821
  390POPC   C3B16615  13.659  26.299   6.864
  390POPC   C4B16616  13.614  26.109   6.906
  391POPC   NC316617  10.151  -7.952   7.936
  391POPC   PO416618  10.153  -7.753   7.954
  391POPC   GL116619  10.155  -7.554   7.972
  391POPC   GL216620  10.243  -7.550   7.925
  391POPC   C1A16621  10.157  -7.355   7.990
  391POPC   D2A16622  10.158  -7.155   8.007
  391POPC   C3A16623  10.160  -6.956   8.025
  391POPC   C4A16624  10.162  -6.757   8.043
  391POPC   C1B16625  10.063  -7.338   7.814
  391POPC   C2B16626  10.065  -7.139   7.831
  391POPC   C3B16627  10.067  -6.940   7.849
  391POPC   C4B16628  10.069  -6.740   7.867
  392POPC   NC316629  27.686  10.552   7.413
  392POPC   PO416630  27.488  10.549   7.440
  392POPC   GL116631  27.290  10.546   7.467
  392POPC   GL216632  27.291  10.446   7.463
  392POPC   C1A16633  27.092  10.543   7.494
  392POPC   D2A16634  26.893  10.540   7.520
  392POPC   C3A16635  26.695  10.537   7.547
  392POPC   C4A16636  26.497  10.534   7.574
  392POPC   C1B16637  27.118  10.537   7.692
  392POPC   C2B16638  26.920  10.534   7.718
  392POPC   C3B16639  26.722  10.531   7.745
  392POPC   C4B16640  26.524  10.528   7.772
  393POPC   NC316641  15.138  19.935  -4.197
  393POPC   PO416642  15.081  19.828  -4.038
  393POPC   GL116643  15.024  19.721  -3.879
  393POPC   GL216644  15.018  19.639  -3.936
  393POPC   C1A16645  14.968  19.614  -3.720
  393POPC   D2A16646  14.911  19.506  -3.561
  393POPC   C3A16647  14.855  19.399  -3.402
  393POPC   C4A16648  14.798  19.292  -3.243
  393POPC   C1B16649  15.159  19.571  -3.681
  393POPC   C2B16650  15.103  19.463  -3.522
  393POPC   C3B16651  15.046  19.356  -3.363
  393POPC   C4B16652  14.989  19.249  -3.204
  394POPC   NC316653  15.262   3.548  -6.057
  394POPC   PO416654  15.200   3.612  -5.878
  394POPC   GL116655  15.138   3.676  -5.699
  394POPC   GL216656  15.091   3.753  -5.743
  394POPC   C1A16657  15.076   3.740  -5.520
  394POPC   D2A16658  15.014   3.805  -5.341
  394POPC   C3A16659  14.952   3.869  -5.162
  394POPC   C4A16660  14.890   3.933  -4.983
  394POPC   C1B16661  14.911   3.629  -5.537
  394POPC   C2B16662  14.849   3.693  -5.358
  394POPC   C3B16663  14.787   3.757  -5.179
  394POPC   C4B16664  14.725   3.821  -5.000
  395POPC   NC316665  -3.044   7.565  -2.417
  395POPC   PO416666  -2.899   7.587  -2.281
  395POPC   GL116667  -2.754   7.609  -2.145
  395POPC   GL216668  -2.800   7.543  -2.085
  395POPC   C1A16669  -2.609   7.631  -2.009
  395POPC   D2A16670  -2.465   7.652  -1.872
  395POPC   C3A16671  -2.320   7.674  -1.736
  395POPC   C4A16672  -2.175   7.696  -1.600
  395POPC   C1B16673  -2.507   7.481  -2.093
  395POPC   C2B16674  -2.362   7.503  -1.957
  395POPC   C3B16675  -2.217   7.525  -1.821
  395POPC   C4B16676  -2.073   7.547  -1.685
  396POPC   NC316677   8.770  27.879   7.884
  396POPC   PO416678   8.781  27.680   7.905
  396POPC   GL116679   8.792  27.481   7.926
  396POPC   GL216680   8.885  27.490   7.962
  396POPC   C1A16681   8.803  27.283   7.946
  396POPC   D2A16682   8.815  27.084   7.967
  396POPC   C3A16683   8.826  26.886   7.987
  396POPC   C4A16684   8.837  26.687   8.008
  396POPC   C1B16685   8.730  27.298   8.132
  396POPC   C2B16686   8.741  27.099   8.152
  396POPC   C3B16687   8.753  26.901   8.173
  396POPC   C4B16688   8.764  26.702   8.194
  397POPC   NC316689  22.096  22.059   4.447
  397POPC   PO416690  21.957  21.929   4.509
  397POPC   GL116691  21.818  21.799   4.571
  397POPC   GL216692  21.843  21.737   4.497
  397POPC   C1A16693  21.679  21.669   4.633
  397POPC   D2A16694  21.540  21.540   4.694
  397POPC   C3A16695  21.401  21.410   4.756
  397POPC   C4A16696  21.262  21.280   4.818
  397POPC   C1B16697  21.813  21.582   4.752
  397POPC   C2B16698  21.674  21.452   4.814
  397POPC   C3B16699  21.535  21.323   4.876
  397POPC   C4B16700  21.396  21.193   4.938
  398POPC   NC316701  23.849   3.119   0.799
  398POPC   PO416702  23.698   3.199   0.904
  398POPC   GL116703  23.547   3.279   1.009
  398POPC   GL216704  23.563   3.367   0.964
  398POPC   C1A16705  23.397   3.359   1.114
  398POPC   D2A16706  23.246   3.438   1.218
  398POPC   C3A16707  23.096   3.518   1.323
  398POPC   C4A16708  22.945   3.598   1.428
  398POPC   C1B16709  23.269   3.308   0.968
  398POPC   C2B16710  23.118   3.388   1.073
  398POPC   C3B16711  22.968   3.467   1.178
  398POPC   C4B16712  22.817   3.547   1.283
  399POPC   NC316713  12.888  -4.011  20.812
  399POPC   PO416714  12.856  -3.859  20.685
  399POPC   GL116715  12.824  -3.707  20.558
  399POPC   GL216716  12.923  -3.701  20.542
  399POPC   C1A16717  12.792  -3.556  20.432
  399POPC   D2A16718  12.761  -3.404  20.305
  399POPC   C3A16719  12.729  -3.253  20.179
  399POPC   C4A16720  12.697  -3.101  20.052
  399POPC   C1B16721  12.776  -3.686  20.281
  399POPC   C2B16722  12.744  -3.534  20.154
  399POPC   C3B16723  12.712  -3.382  20.027
  399POPC   C4B16724  12.680  -3.231  19.901
  400POPC   NC316725  22.014   2.662  -1.141
  400POPC   PO416726  21.881   2.745  -1.017
  400POPC   GL116727  21.748   2.828  -0.893
  400POPC   GL216728  21.785   2.919  -0.914
  400POPC   C1A16729  21.615   2.912  -0.770
  400POPC   D2A16730  21.481   2.995  -0.646
  400POPC   C3A16731  21.348   3.079  -0.523
  400POPC   C4A16732  21.215   3.162  -0.399
  400POPC   C1B16733  21.486   2.931  -0.921
  400POPC   C2B16734  21.352   3.014  -0.798
  400POPC   C3B16735  21.219   3.097  -0.674
  400POPC   C4B16736  21.086   3.181  -0.551
  401POPC   NC316737  11.828  -3.676  21.441
  401POPC   PO416738  11.802  -3.527  21.310
  401POPC   GL116739  11.776  -3.378  21.179
  401POPC   GL216740  11.852  -3.329  21.220
  401POPC   C1A16741  11.750  -3.229  21.048
  401POPC   D2A16742  11.724  -3.081  20.916
  401POPC   C3A16743  11.698  -2.932  20.785
  401POPC   C4A16744  11.672  -2.783  20.654
  401POPC   C1B16745  11.876  -3.319  20.921
  401POPC   C2B16746  11.850  -3.170  20.790
  401POPC   C3B16747  11.824  -3.021  20.658
  401POPC   C4B16748  11.798  -2.873  20.527
  402POPC   NC316749  24.232  20.918   9.815
  402POPC   PO416750  24.069  20.802   9.820
  402POPC   GL116751  23.906  20.686   9.825
  402POPC   GL216752  23.964  20.605   9.824
  402POPC   C1A16753  23.743  20.570   9.830
  402POPC   D2A16754  23.580  20.455   9.834
  402POPC   C3A16755  23.417  20.339   9.839
  402POPC   C4A16756  23.254  20.223   9.844
  402POPC   C1B16757  23.748  20.572  10.030
  402POPC   C2B16758  23.585  20.456  10.034
  402POPC   C3B16759  23.422  20.341  10.039
  402POPC   C4B16760  23.259  20.225  10.044
  403POPC   NC316761  20.775  15.790  22.940
  403POPC   PO416762  20.654  15.728  22.793
  403POPC   GL116763  20.533  15.666  22.646
  403POPC   GL216764  20.613  15.633  22.595
  403POPC   C1A16765  20.413  15.603  22.499
  403POPC   D2A16766  20.292  15.541  22.353
  403POPC   C3A16767  20.172  15.478  22.206
  403POPC   C4A16768  20.051  15.416  22.059
  403POPC   C1B16769  20.397  15.425  22.589
  403POPC   C2B16770  20.276  15.363  22.442
  403POPC   C3B16771  20.155  15.300  22.295
  403POPC   C4B16772  20.035  15.238  22.148
  404POPC   NC316773   5.891  -6.776  15.425
  404POPC   PO416774   5.934  -6.590  15.364
  404POPC   GL116775   5.977  -6.404  15.303
  404POPC   GL216776   6.013  -6.441  15.218
  404POPC   C1A16777   6.019  -6.218  15.242
  404POPC   D2A16778   6.062  -6.033  15.182
  404POPC   C3A16779   6.104  -5.847  15.121
  404POPC   C4A16780   6.147  -5.661  15.060
  404POPC   C1B16781   5.838  -6.204  15.159
  404POPC   C2B16782   5.881  -6.018  15.098
  404POPC   C3B16783   5.923  -5.833  15.037
  404POPC   C4B16784   5.966  -5.647  14.977
  405POPC   NC316785  15.081  -2.183  22.136
  405POPC   PO416786  15.026  -2.047  22.000
  405POPC   GL116787  14.971  -1.911  21.864
  405POPC   GL216788  14.991  -1.838  21.929
  405POPC   C1A16789  14.917  -1.775  21.728
  405POPC   D2A16790  14.862  -1.639  21.591
  405POPC   C3A16791  14.808  -1.503  21.455
  405POPC   C4A16792  14.753  -1.367  21.319
  405POPC   C1B16793  15.105  -1.767  21.660
  405POPC   C2B16794  15.050  -1.631  21.524
  405POPC   C3B16795  14.996  -1.495  21.388
  405POPC   C4B16796  14.941  -1.359  21.252
  406POPC   NC316797  -4.571   4.402   0.503
  406POPC   PO416798  -4.413   4.461   0.610
  406POPC   GL116799  -4.255   4.520   0.717
  406POPC   GL216800  -4.259   4.436   0.770
  406POPC   C1A16801  -4.097   4.580   0.824
  406POPC   D2A16802  -3.938   4.639   0.930
  406POPC   C3A16803  -3.780   4.699   1.037
  406POPC   C4A16804  -3.622   4.758   1.144
  406POPC   C1B16805  -3.975   4.492   0.692
  406POPC   C2B16806  -3.816   4.551   0.799
  406POPC   C3B16807  -3.658   4.610   0.905
  406POPC   C4B16808  -3.500   4.670   1.012
  407POPC   NC316809  -5.321  15.616  17.996
  407POPC   PO416810  -5.152  15.555  17.908
  407POPC   GL116811  -4.983  15.494  17.820
  407POPC   GL216812  -4.933  15.510  17.905
  407POPC   C1A16813  -4.814  15.434  17.732
  407POPC   D2A16814  -4.645  15.373  17.644
  407POPC   C3A16815  -4.476  15.313  17.556
  407POPC   C4A16816  -4.307  15.252  17.468
  407POPC   C1B16817  -4.852  15.246  17.789
  407POPC   C2B16818  -4.683  15.185  17.701
  407POPC   C3B16819  -4.514  15.125  17.613
  407POPC   C4B16820  -4.345  15.064  17.525
  408POPC   NC316821  24.281   1.438  16.743
  408POPC   PO416822  24.121   1.533  16.670
  408POPC   GL116823  23.961   1.628  16.597
  408POPC   GL216824  24.021   1.693  16.550
  408POPC   C1A16825  23.801   1.723  16.524
  408POPC   D2A16826  23.640   1.818  16.452
  408POPC   C3A16827  23.480   1.913  16.379
  408POPC   C4A16828  23.320   2.008  16.306
  408POPC   C1B16829  23.802   1.603  16.364
  408POPC   C2B16830  23.642   1.698  16.291
  408POPC   C3B16831  23.482   1.793  16.219
  408POPC   C4B16832  23.322   1.888  16.146
  409POPC   NC316833  -6.308   5.216  16.528
  409POPC   PO416834  -6.127   5.269  16.462
  409POPC   GL116835  -5.946   5.322  16.396
  409POPC   GL216836  -5.909   5.310  16.488
  409POPC   C1A16837  -5.765   5.374  16.330
  409POPC   D2A16838  -5.583   5.427  16.263
  409POPC   C3A16839  -5.402   5.479  16.197
  409POPC   C4A16840  -5.221   5.532  16.131
  409POPC   C1B16841  -5.724   5.183  16.288
  409POPC   C2B16842  -5.543   5.235  16.222
  409POPC   C3B16843  -5.362   5.288  16.156
  409POPC   C4B16844  -5.181   5.341  16.090
  410POPC   NC316845  -6.683   3.241   7.776
  410POPC   PO416846  -6.499   3.316   7.801
  410POPC   GL116847  -6.315   3.391   7.826
  410POPC   GL216848  -6.292   3.315   7.886
  410POPC   C1A16849  -6.132   3.466   7.851
  410POPC   D2A16850  -5.948   3.541   7.877
  410POPC   C3A16851  -5.765   3.616   7.902
  410POPC   C4A16852  -5.581   3.691   7.927
  410POPC   C1B16853  -6.067   3.361   7.694
  410POPC   C2B16854  -5.884   3.436   7.719
  410POPC   C3B16855  -5.700   3.511   7.744
  410POPC   C4B16856  -5.516   3.586   7.770
  411POPC   NC316857  24.689   7.334  -0.032
  411POPC   PO416858  24.525   7.358   0.079
  411POPC   GL116859  24.361   7.382   0.190
  411POPC   GL216860  24.304   7.364   0.110
  411POPC   C1A16861  24.196   7.407   0.301
  411POPC   D2A16862  24.032   7.431   0.413
  411POPC   C3A16863  23.867   7.456   0.524
  411POPC   C4A16864  23.703   7.480   0.635
  411POPC   C1B16865  24.197   7.212   0.346
  411POPC   C2B16866  24.033   7.236   0.457
  411POPC   C3B16867  23.868   7.261   0.568
  411POPC   C4B16868  23.704   7.285   0.679
  412POPC   NC316869  20.577  18.465  21.683
  412POPC   PO416870  20.458  18.375  21.550
  412POPC   GL116871  20.339  18.285  21.417
  412POPC   GL216872  20.418  18.240  21.376
  412POPC   C1A16873  20.219  18.196  21.284
  412POPC   D2A16874  20.100  18.106  21.150
  412POPC   C3A16875  19.980  18.017  21.017
  412POPC   C4A16876  19.861  17.927  20.884
  412POPC   C1B16877  20.195  18.042  21.409
  412POPC   C2B16878  20.076  17.952  21.276
  412POPC   C3B16879  19.956  17.862  21.142
  412POPC   C4B16880  19.837  17.773  21.009
  413POPC   NC316881  24.560   1.063   4.359
  413POPC   PO416882  24.397   1.163   4.418
  413POPC   GL116883  24.234   1.263   4.477
  413POPC   GL216884  24.288   1.347   4.483
  413POPC   C1A16885  24.072   1.364   4.535
  413POPC   D2A16886  23.909   1.464   4.594
  413POPC   C3A16887  23.747   1.565   4.652
  413POPC   C4A16888  23.584   1.665   4.711
  413POPC   C1B16889  24.029   1.406   4.344
  413POPC   C2B16890  23.867   1.507   4.403
  413POPC   C3B16891  23.704   1.607   4.462
  413POPC   C4B16892  23.542   1.707   4.520
  414POPC   NC316893   5.223  27.463  10.715
  414POPC   PO416894   5.275  27.270  10.707
  414POPC   GL116895   5.327  27.077  10.699
  414POPC   GL216896   5.361  27.082  10.792
  414POPC   C1A16897   5.379  26.884  10.690
  414POPC   D2A16898   5.430  26.691  10.682
  414POPC   C3A16899   5.482  26.498  10.673
  414POPC   C4A16900   5.534  26.305  10.665
  414POPC   C1B16901   5.198  26.833  10.760
  414POPC   C2B16902   5.250  26.640  10.752
  414POPC   C3B16903   5.302  26.447  10.743
  414POPC   C4B16904   5.354  26.254  10.735
  415POPC   NC316905  -2.052  19.592  19.517
  415POPC   PO416906  -1.920  19.486  19.411
  415POPC   GL116907  -1.788  19.380  19.305
  415POPC   GL216908  -1.720  19.451  19.318
  415POPC   C1A16909  -1.656  19.274  19.198
  415POPC   D2A16910  -1.525  19.167  19.092
  415POPC   C3A16911  -1.393  19.061  18.985
  415POPC   C4A16912  -1.261  18.955  18.879
  415POPC   C1B16913  -1.594  19.183  19.365
  415POPC   C2B16914  -1.462  19.077  19.259
  415POPC   C3B16915  -1.331  18.971  19.153
  415POPC   C4B16916  -1.199  18.865  19.046
  416POPC   NC316917   1.591  14.495  -5.454
  416POPC   PO416918   1.685  14.447  -5.284
  416POPC   GL116919   1.779  14.399  -5.114
  416POPC   GL216920   1.701  14.430  -5.062
  416POPC   C1A16921   1.874  14.351  -4.945
  416POPC   D2A16922   1.968  14.303  -4.775
  416POPC   C3A16923   2.063  14.255  -4.606
  416POPC   C4A16924   2.157  14.207  -4.436
  416POPC   C1B16925   1.795  14.167  -4.953
  416POPC   C2B16926   1.889  14.119  -4.783
  416POPC   C3B16927   1.984  14.071  -4.614
  416POPC   C4B16928   2.078  14.023  -4.444
  417POPC   NC316929  22.093  18.252  20.315
  417POPC   PO416930  21.960  18.162  20.196
  417POPC   GL116931  21.827  18.072  20.077
  417POPC   GL216932  21.900  18.019  20.035
  417POPC   C1A16933  21.693  17.982  19.958
  417POPC   D2A16934  21.560  17.892  19.840
  417POPC   C3A16935  21.426  17.802  19.721
  417POPC   C4A16936  21.293  17.712  19.602
  417POPC   C1B16937  21.668  17.839  20.095
  417POPC   C2B16938  21.535  17.749  19.977
  417POPC   C3B16939  21.401  17.659  19.858
  417POPC   C4B16940  21.268  17.569  19.739
  418POPC   NC316941  23.945  -0.526   5.841
  418POPC   PO416942  23.788  -0.410   5.885
  418POPC   GL116943  23.631  -0.294   5.929
  418POPC   GL216944  23.656  -0.232   5.854
  418POPC   C1A16945  23.474  -0.179   5.972
  418POPC   D2A16946  23.316  -0.063   6.016
  418POPC   C3A16947  23.159   0.052   6.059
  418POPC   C4A16948  23.002   0.168   6.103
  418POPC   C1B16949  23.361  -0.284   5.845
  418POPC   C2B16950  23.204  -0.169   5.889
  418POPC   C3B16951  23.046  -0.053   5.932
  418POPC   C4B16952  22.889   0.062   5.976
  419POPC   NC316953  24.285  19.628   5.181
  419POPC   PO416954  24.124  19.520   5.231
  419POPC   GL116955  23.963  19.412   5.281
  419POPC   GL216956  23.958  19.377   5.187
  419POPC   C1A16957  23.802  19.304   5.331
  419POPC   D2A16958  23.642  19.197   5.381
  419POPC   C3A16959  23.481  19.089   5.431
  419POPC   C4A16960  23.320  18.981   5.481
  419POPC   C1B16961  23.921  19.151   5.381
  419POPC   C2B16962  23.760  19.043   5.431
  419POPC   C3B16963  23.599  18.936   5.481
  419POPC   C4B16964  23.438  18.828   5.531
  420POPC   NC316965  -5.579  14.278   1.626
  420POPC   PO416966  -5.405  14.226   1.710
  420POPC   GL116967  -5.231  14.174   1.794
  420POPC   GL216968  -5.269  14.195   1.885
  420POPC   C1A16969  -5.057  14.123   1.879
  420POPC   D2A16970  -4.884  14.071   1.963
  420POPC   C3A16971  -4.710  14.020   2.048
  420POPC   C4A16972  -4.536  13.968   2.132
  420POPC   C1B16973  -5.122  13.934   1.896
  420POPC   C2B16974  -4.948  13.882   1.980
  420POPC   C3B16975  -4.774  13.831   2.064
  420POPC   C4B16976  -4.600  13.779   2.149
  421POPC   NC316977   5.035  24.434   0.308
  421POPC   PO416978   5.087  24.275   0.417
  421POPC   GL116979   5.139  24.116   0.526
  421POPC   GL216980   5.167  24.176   0.601
  421POPC   C1A16981   5.192  23.957   0.635
  421POPC   D2A16982   5.244  23.798   0.745
  421POPC   C3A16983   5.297  23.639   0.854
  421POPC   C4A16984   5.349  23.480   0.963
  421POPC   C1B16985   5.007  23.947   0.710
  421POPC   C2B16986   5.059  23.788   0.819
  421POPC   C3B16987   5.111  23.629   0.929
  421POPC   C4B16988   5.164  23.470   1.038
  422POPC   NC316989  21.061  19.461  20.455
  422POPC   PO416990  20.936  19.359  20.337
  422POPC   GL116991  20.811  19.257  20.219
  422POPC   GL216992  20.889  19.208  20.179
  422POPC   C1A16993  20.686  19.154  20.101
  422POPC   D2A16994  20.562  19.052  19.982
  422POPC   C3A16995  20.437  18.949  19.864
  422POPC   C4A16996  20.312  18.847  19.746
  422POPC   C1B16997  20.669  19.013  20.241
  422POPC   C2B16998  20.544  18.911  20.123
  422POPC   C3B16999  20.419  18.808  20.005
  422POPC   C4B17000  20.295  18.706  19.887
  423POPC   NC317001   2.899  21.964  21.507
  423POPC   PO417002   2.973  21.830  21.378
  423POPC   GL117003   3.047  21.696  21.249
  423POPC   GL217004   3.073  21.637  21.325
  423POPC   C1A17005   3.121  21.563  21.120
  423POPC   D2A17006   3.196  21.429  20.990
  423POPC   C3A17007   3.270  21.296  20.861
  423POPC   C4A17008   3.344  21.162  20.732
  423POPC   C1B17009   2.943  21.472  21.111
  423POPC   C2B17010   3.017  21.339  20.982
  423POPC   C3B17011   3.092  21.205  20.852
  423POPC   C4B17012   3.166  21.072  20.723
  424POPC   NC317013  26.853  15.872   8.620
  424POPC   PO417014  26.667  15.800   8.636
  424POPC   GL117015  26.481  15.728   8.652
  424POPC   GL217016  26.484  15.699   8.556
  424POPC   C1A17017  26.295  15.656   8.667
  424POPC   D2A17018  26.109  15.585   8.683
  424POPC   C3A17019  25.923  15.513   8.698
  424POPC   C4A17020  25.737  15.441   8.714
  424POPC   C1B17021  26.368  15.479   8.723
  424POPC   C2B17022  26.182  15.407   8.739
  424POPC   C3B17023  25.996  15.335   8.754
  424POPC   C4B17024  25.810  15.263   8.770
  425POPC   NC317025  27.706  10.138   7.555
  425POPC   PO417026  27.508  10.139   7.580
  425POPC   GL117027  27.310  10.140   7.605
  425POPC   GL217028  27.307  10.041   7.591
  425POPC   C1A17029  27.111  10.141   7.630
  425POPC   D2A17030  26.913  10.142   7.654
  425POPC   C3A17031  26.714  10.143   7.679
  425POPC   C4A17032  26.516  10.144   7.704
  425POPC   C1B17033  27.136  10.114   7.826
  425POPC   C2B17034  26.937  10.115   7.851
  425POPC   C3B17035  26.739  10.116   7.876
  425POPC   C4B17036  26.541  10.117   7.901
  426POPC   NC317037  -0.937  23.358  15.457
  426POPC   PO417038  -0.821  23.208  15.394
  426POPC   GL117039  -0.705  23.058  15.331
  426POPC   GL217040  -0.681  23.037  15.426
  426POPC   C1A17041  -0.589  22.908  15.268
  426POPC   D2A17042  -0.473  22.757  15.206
  426POPC   C3A17043  -0.357  22.607  15.143
  426POPC   C4A17044  -0.241  22.457  15.080
  426POPC   C1B17045  -0.745  22.782  15.281
  426POPC   C2B17046  -0.629  22.632  15.218
  426POPC   C3B17047  -0.513  22.482  15.155
  426POPC   C4B17048  -0.397  22.332  15.092
  427POPC   NC317049   0.254  -2.313  19.045
  427POPC   PO417050   0.360  -2.176  18.945
  427POPC   GL117051   0.466  -2.039  18.845
  427POPC   GL217052   0.540  -2.047  18.912
  427POPC   C1A17053   0.571  -1.902  18.745
  427POPC   D2A17054   0.677  -1.765  18.644
  427POPC   C3A17055   0.782  -1.628  18.544
  427POPC   C4A17056   0.888  -1.491  18.444
  427POPC   C1B17057   0.654  -2.047  18.634
  427POPC   C2B17058   0.760  -1.910  18.534
  427POPC   C3B17059   0.866  -1.773  18.434
  427POPC   C4B17060   0.971  -1.636  18.334
  428POPC   NC317061  23.233  16.350  -0.439
  428POPC   PO417062  23.083  16.281  -0.327
  428POPC   GL117063  22.933  16.212  -0.215
  428POPC   GL217064  22.867  16.251  -0.279
  428POPC   C1A17065  22.782  16.143  -0.102
  428POPC   D2A17066  22.632  16.074   0.010
  428POPC   C3A17067  22.481  16.005   0.123
  428POPC   C4A17068  22.331  15.936   0.235
  428POPC   C1B17069  22.783  15.972  -0.206
  428POPC   C2B17070  22.632  15.903  -0.094
  428POPC   C3B17071  22.482  15.834   0.019
  428POPC   C4B17072  22.332  15.765   0.131
  429POPC   NC317073   4.342  25.575  17.173
  429POPC   PO417074   4.402  25.401  17.095
  429POPC   GL117075   4.462  25.227  17.017
  429POPC   GL217076   4.488  25.195  17.108
  429POPC   C1A17077   4.521  25.053  16.939
  429POPC   D2A17078   4.581  24.878  16.862
  429POPC   C3A17079   4.640  24.704  16.784
  429POPC   C4A17080   4.700  24.530  16.706
  429POPC   C1B17081   4.338  24.977  16.967
  429POPC   C2B17082   4.398  24.803  16.890
  429POPC   C3B17083   4.457  24.629  16.812
  429POPC   C4B17084   4.517  24.455  16.734
  430POPC   NC317085  17.774  18.506  -3.876
  430POPC   PO417086  17.685  18.413  -3.723
  430POPC   GL117087  17.596  18.320  -3.570
  430POPC   GL217088  17.609  18.232  -3.616
  430POPC   C1A17089  17.507  18.227  -3.417
  430POPC   D2A17090  17.418  18.133  -3.264
  430POPC   C3A17091  17.329  18.040  -3.111
  430POPC   C4A17092  17.240  17.947  -2.958
  430POPC   C1B17093  17.684  18.205  -3.327
  430POPC   C2B17094  17.595  18.112  -3.174
  430POPC   C3B17095  17.506  18.019  -3.021
  430POPC   C4B17096  17.417  17.926  -2.868
  431POPC   NC317097  24.224  12.811  20.539
  431POPC   PO417098  24.068  12.780  20.418
  431POPC   GL117099  23.912  12.749  20.297
  431POPC   GL217100  23.929  12.836  20.252
  431POPC   C1A17101  23.756  12.717  20.176
  431POPC   D2A17102  23.600  12.686  20.054
  431POPC   C3A17103  23.444  12.654  19.933
  431POPC   C4A17104  23.288  12.623  19.812
  431POPC   C1B17105  23.876  12.627  20.044
  431POPC   C2B17106  23.720  12.595  19.923
  431POPC   C3B17107  23.564  12.564  19.802
  431POPC   C4B17108  23.408  12.532  19.680
  432POPC   NC317109  22.318  21.063  16.649
  432POPC   PO417110  22.183  20.935  16.576
  432POPC   GL117111  22.048  20.807  16.503
  432POPC   GL217112  22.105  20.793  16.422
  432POPC   C1A17113  21.912  20.680  16.430
  432POPC   D2A17114  21.777  20.552  16.356
  432POPC   C3A17115  21.641  20.425  16.283
  432POPC   C4A17116  21.506  20.297  16.210
  432POPC   C1B17117  22.004  20.529  16.523
  432POPC   C2B17118  21.869  20.401  16.450
  432POPC   C3B17119  21.733  20.274  16.377
  432POPC   C4B17120  21.598  20.146  16.304
  433POPC   NC317121  23.331  20.520  15.584
  433POPC   PO417122  23.186  20.398  15.521
  433POPC   GL117123  23.041  20.276  15.458
  433POPC   GL217124  23.017  20.342  15.386
  433POPC   C1A17125  22.896  20.154  15.394
  433POPC   D2A17126  22.750  20.031  15.331
  433POPC   C3A17127  22.605  19.909  15.267
  433POPC   C4A17128  22.460  19.787  15.204
  433POPC   C1B17129  23.024  20.065  15.269
  433POPC   C2B17130  22.879  19.943  15.206
  433POPC   C3B17131  22.734  19.821  15.142
  433POPC   C4B17132  22.589  19.699  15.079
  434POPC   NC317133  22.415  -1.012   2.997
  434POPC   PO417134  22.276  -0.891   3.074
  434POPC   GL117135  22.137  -0.770   3.151
  434POPC   GL217136  22.203  -0.695   3.153
  434POPC   C1A17137  21.998  -0.648   3.228
  434POPC   D2A17138  21.859  -0.527   3.305
  434POPC   C3A17139  21.720  -0.405   3.382
  434POPC   C4A17140  21.581  -0.284   3.459
  434POPC   C1B17141  21.944  -0.594   3.043
  434POPC   C2B17142  21.805  -0.472   3.120
  434POPC   C3B17143  21.666  -0.351   3.197
  434POPC   C4B17144  21.527  -0.229   3.274
  435POPC   NC317145   1.051  23.260   1.557
  435POPC   PO417146   1.151  23.112   1.647
  435POPC   GL117147   1.251  22.964   1.737
  435POPC   GL217148   1.330  23.023   1.747
  435POPC   C1A17149   1.350  22.815   1.827
  435POPC   D2A17150   1.450  22.667   1.916
  435POPC   C3A17151   1.549  22.518   2.006
  435POPC   C4A17152   1.649  22.370   2.096
  435POPC   C1B17153   1.281  22.876   2.004
  435POPC   C2B17154   1.381  22.728   2.094
  435POPC   C3B17155   1.480  22.579   2.184
  435POPC   C4B17156   1.580  22.431   2.274
  436POPC   NC317157  19.077  14.387  -4.963
  436POPC   PO417158  18.972  14.337  -4.801
  436POPC   GL117159  18.867  14.287  -4.639
  436POPC   GL217160  18.783  14.318  -4.683
  436POPC   C1A17161  18.761  14.236  -4.476
  436POPC   D2A17162  18.656  14.186  -4.314
  436POPC   C3A17163  18.550  14.135  -4.151
  436POPC   C4A17164  18.445  14.085  -3.989
  436POPC   C1B17165  18.733  14.053  -4.551
  436POPC   C2B17166  18.628  14.003  -4.389
  436POPC   C3B17167  18.522  13.952  -4.226
  436POPC   C4B17168  18.417  13.902  -4.064
  437POPC   NC317169  18.404  25.246  14.490
  437POPC   PO417170  18.308  25.079  14.434
  437POPC   GL117171  18.212  24.912  14.378
  437POPC   GL217172  18.278  24.900  14.303
  437POPC   C1A17173  18.117  24.746  14.322
  437POPC   D2A17174  18.021  24.579  14.266
  437POPC   C3A17175  17.926  24.413  14.210
  437POPC   C4A17176  17.830  24.246  14.154
  437POPC   C1B17177  18.234  24.638  14.443
  437POPC   C2B17178  18.139  24.471  14.387
  437POPC   C3B17179  18.043  24.305  14.331
  437POPC   C4B17180  17.947  24.138  14.275
  438POPC   NC317181  23.564  -1.431  12.707
  438POPC   PO417182  23.413  -1.305  12.670
  438POPC   GL117183  23.262  -1.179  12.633
  438POPC   GL217184  23.272  -1.195  12.535
  438POPC   C1A17185  23.112  -1.053  12.596
  438POPC   D2A17186  22.961  -0.926  12.560
  438POPC   C3A17187  22.811  -0.800  12.523
  438POPC   C4A17188  22.660  -0.674  12.486
  438POPC   C1B17189  22.982  -1.204  12.609
  438POPC   C2B17190  22.831  -1.078  12.572
  438POPC   C3B17191  22.681  -0.952  12.535
  438POPC   C4B17192  22.530  -0.826  12.498
  439POPC   NC317193  21.799  20.869  17.865
  439POPC   PO417194  21.667  20.743  17.783
  439POPC   GL117195  21.535  20.617  17.701
  439POPC   GL217196  21.536  20.671  17.617
  439POPC   C1A17197  21.404  20.491  17.618
  439POPC   D2A17198  21.272  20.365  17.536
  439POPC   C3A17199  21.141  20.239  17.453
  439POPC   C4A17200  21.009  20.113  17.371
  439POPC   C1B17201  21.554  20.380  17.547
  439POPC   C2B17202  21.423  20.254  17.465
  439POPC   C3B17203  21.291  20.128  17.383
  439POPC   C4B17204  21.160  20.002  17.300
  440POPC   NC317205  14.758   3.869  -6.339
  440POPC   PO417206  14.702   3.935  -6.158
  440POPC   GL117207  14.646   4.001  -5.977
  440POPC   GL217208  14.607   4.083  -6.019
  440POPC   C1A17209  14.591   4.067  -5.797
  440POPC   D2A17210  14.535   4.132  -5.616
  440POPC   C3A17211  14.480   4.198  -5.436
  440POPC   C4A17212  14.424   4.264  -5.255
  440POPC   C1B17213  14.416   3.972  -5.816
  440POPC   C2B17214  14.360   4.038  -5.636
  440POPC   C3B17215  14.304   4.104  -5.455
  440POPC   C4B17216  14.249   4.170  -5.275
  441POPC   NC317217  13.540  -7.648   8.159
  441POPC   PO417218  13.496  -7.454   8.179
  441POPC   GL117219  13.452  -7.260   8.199
  441POPC   GL217220  13.489  -7.261   8.292
  441POPC   C1A17221  13.408  -7.066   8.219
  441POPC   D2A17222  13.364  -6.872   8.238
  441POPC   C3A17223  13.320  -6.678   8.258
  441POPC   C4A17224  13.276  -6.484   8.278
  441POPC   C1B17225  13.588  -7.018   8.146
  441POPC   C2B17226  13.544  -6.824   8.166
  441POPC   C3B17227  13.500  -6.630   8.186
  441POPC   C4B17228  13.456  -6.436   8.206
  442POPC   NC317229   4.771  26.980  13.378
  442POPC   PO417230   4.831  26.794  13.337
  442POPC   GL117231   4.891  26.608  13.296
  442POPC   GL217232   4.982  26.629  13.331
  442POPC   C1A17233   4.951  26.422  13.254
  442POPC   D2A17234   5.011  26.235  13.213
  442POPC   C3A17235   5.071  26.049  13.171
  442POPC   C4A17236   5.131  25.863  13.130
  442POPC   C1B17237   4.895  26.363  13.437
  442POPC   C2B17238   4.955  26.177  13.395
  442POPC   C3B17239   5.015  25.990  13.354
  442POPC   C4B17240   5.075  25.804  13.313
  443POPC   NC317241  27.330   9.136   5.615
  443POPC   PO417242  27.135   9.145   5.660
  443POPC   GL117243  26.940   9.154   5.705
  443POPC   GL217244  26.927   9.063   5.668
  443POPC   C1A17245  26.746   9.164   5.750
  443POPC   D2A17246  26.551   9.173   5.795
  443POPC   C3A17247  26.357   9.183   5.840
  443POPC   C4A17248  26.162   9.192   5.885
  443POPC   C1B17249  26.784   9.085   5.930
  443POPC   C2B17250  26.589   9.095   5.975
  443POPC   C3B17251  26.394   9.104   6.020
  443POPC   C4B17252  26.200   9.114   6.065
  444POPC   NC317253  -6.176   5.772  17.233
  444POPC   PO417254  -5.996   5.815  17.157
  444POPC   GL117255  -5.816   5.858  17.081
  444POPC   GL217256  -5.773   5.830  17.167
  444POPC   C1A17257  -5.636   5.900  17.005
  444POPC   D2A17258  -5.456   5.943  16.928
  444POPC   C3A17259  -5.276   5.985  16.852
  444POPC   C4A17260  -5.096   6.028  16.776
  444POPC   C1B17261  -5.621   5.713  16.936
  444POPC   C2B17262  -5.441   5.755  16.860
  444POPC   C3B17263  -5.261   5.798  16.784
  444POPC   C4B17264  -5.081   5.841  16.708
  445POPC   NC317265  12.431  26.296   2.746
  445POPC   PO417266  12.397  26.115   2.824
  445POPC   GL117267  12.363  25.934   2.902
  445POPC   GL217268  12.449  25.901   2.863
  445POPC   C1A17269  12.329  25.753   2.980
  445POPC   D2A17270  12.295  25.572   3.057
  445POPC   C3A17271  12.261  25.391   3.135
  445POPC   C4A17272  12.227  25.210   3.213
  445POPC   C1B17273  12.424  25.807   3.147
  445POPC   C2B17274  12.390  25.626   3.225
  445POPC   C3B17275  12.356  25.445   3.303
  445POPC   C4B17276  12.322  25.264   3.380
  446POPC   NC317277  27.051  15.118   7.903
  446POPC   PO417278  26.862  15.056   7.925
  446POPC   GL117279  26.673  14.994   7.947
  446POPC   GL217280  26.663  14.989   7.848
  446POPC   C1A17281  26.484  14.932   7.969
  446POPC   D2A17282  26.296  14.869   7.992
  446POPC   C3A17283  26.107  14.807   8.014
  446POPC   C4A17284  25.918  14.745   8.036
  446POPC   C1B17285  26.547  14.742   7.971
  446POPC   C2B17286  26.358  14.680   7.994
  446POPC   C3B17287  26.170  14.617   8.016
  446POPC   C4B17288  25.981  14.555   8.038
  447POPC   NC317289   7.028  26.076  17.642
  447POPC   PO417290   7.060  25.897  17.558
  447POPC   GL117291   7.092  25.718  17.474
  447POPC   GL217292   7.171  25.755  17.425
  447POPC   C1A17293   7.123  25.540  17.390
  447POPC   D2A17294   7.155  25.361  17.305
  447POPC   C3A17295   7.186  25.183  17.221
  447POPC   C4A17296   7.218  25.004  17.137
  447POPC   C1B17297   7.242  25.489  17.543
  447POPC   C2B17298   7.273  25.310  17.458
  447POPC   C3B17299   7.305  25.132  17.374
  447POPC   C4B17300   7.336  24.953  17.290
  448POPC   NC317301   4.170  24.553   0.951
  448POPC   PO417302   4.232  24.393   1.054
  448POPC   GL117303   4.294  24.233   1.157
  448POPC   GL217304   4.337  24.293   1.224
  448POPC   C1A17305   4.357  24.073   1.259
  448POPC   D2A17306   4.419  23.913   1.362
  448POPC   C3A17307   4.482  23.753   1.464
  448POPC   C4A17308   4.544  23.593   1.567
  448POPC   C1B17309   4.187  24.074   1.365
  448POPC   C2B17310   4.249  23.914   1.467
  448POPC   C3B17311   4.312  23.754   1.570
  448POPC   C4B17312   4.374  23.594   1.673
  449POPC   NC317313   8.392  24.679  -0.378
  449POPC   PO417314   8.410  24.518  -0.261
  449POPC   GL117315   8.428  24.357  -0.144
  449POPC   GL217316   8.451  24.416  -0.066
  449POPC   C1A17317   8.447  24.196  -0.027
  449POPC   D2A17318   8.465  24.035   0.091
  449POPC   C3A17319   8.484  23.874   0.208
  449POPC   C4A17320   8.502  23.713   0.325
  449POPC   C1B17321   8.253  24.209   0.021
  449POPC   C2B17322   8.271  24.048   0.138
  449POPC   C3B17323   8.290  23.887   0.255
  449POPC   C4B17324   8.308  23.726   0.373
  450POPC   NC317325  22.011  -3.297  11.380
  450POPC   PO417326  21.878  -3.149  11.362
  450POPC   GL117327  21.745  -3.001  11.344
  450POPC   GL217328  21.802  -2.958  11.274
  450POPC   C1A17329  21.612  -2.853  11.325
  450POPC   D2A17330  21.478  -2.705  11.307
  450POPC   C3A17331  21.345  -2.557  11.288
  450POPC   C4A17332  21.212  -2.409  11.270
  450POPC   C1B17333  21.517  -2.956  11.183
  450POPC   C2B17334  21.383  -2.808  11.164
  450POPC   C3B17335  21.250  -2.660  11.146
  450POPC   C4B17336  21.117  -2.512  11.127
  451POPC   NC317337  12.224   2.248  -6.205
  451POPC   PO417338  12.199   2.335  -6.026
  451POPC   GL117339  12.174   2.422  -5.847
  451POPC   GL217340  12.244   2.489  -5.870
  451POPC   C1A17341  12.148   2.508  -5.669
  451POPC   D2A17342  12.123   2.595  -5.490
  451POPC   C3A17343  12.097   2.681  -5.312
  451POPC   C4A17344  12.072   2.768  -5.133
  451POPC   C1B17345  12.007   2.627  -5.746
  451POPC   C2B17346  11.982   2.714  -5.568
  451POPC   C3B17347  11.957   2.800  -5.389
  451POPC   C4B17348  11.931   2.887  -5.211
  452POPC   NC317349   5.316  -7.348  12.146
  452POPC   PO417350   5.367  -7.156  12.122
  452POPC   GL117351   5.418  -6.964  12.098
  452POPC   GL217352   5.439  -6.957  12.195
  452POPC   C1A17353   5.469  -6.772  12.074
  452POPC   D2A17354   5.519  -6.580  12.049
  452POPC   C3A17355   5.570  -6.388  12.025
  452POPC   C4A17356   5.621  -6.196  12.001
  452POPC   C1B17357   5.657  -6.827  12.036
  452POPC   C2B17358   5.708  -6.635  12.012
  452POPC   C3B17359   5.759  -6.443  11.988
  452POPC   C4B17360   5.810  -6.251  11.964
  453POPC   NC317361  17.399  13.596  -6.103
  453POPC   PO417362  17.314  13.559  -5.925
  453POPC   GL117363  17.229  13.522  -5.747
  453POPC   GL217364  17.159  13.467  -5.792
  453POPC   C1A17365  17.145  13.486  -5.570
  453POPC   D2A17366  17.060  13.449  -5.392
  453POPC   C3A17367  16.976  13.413  -5.215
  453POPC   C4A17368  16.891  13.376  -5.037
  453POPC   C1B17369  17.259  13.323  -5.549
  453POPC   C2B17370  17.175  13.287  -5.371
  453POPC   C3B17371  17.090  13.250  -5.194
  453POPC   C4B17372  17.006  13.213  -5.016
  454POPC   NC317373  16.156  18.221  -4.847
  454POPC   PO417374  16.087  18.130  -4.683
  454POPC   GL117375  16.018  18.039  -4.519
  454POPC   GL217376  16.027  17.951  -4.564
  454POPC   C1A17377  15.949  17.949  -4.354
  454POPC   D2A17378  15.880  17.858  -4.190
  454POPC   C3A17379  15.811  17.768  -4.025
  454POPC   C4A17380  15.742  17.677  -3.861
  454POPC   C1B17381  16.136  17.932  -4.285
  454POPC   C2B17382  16.067  17.841  -4.121
  454POPC   C3B17383  15.998  17.751  -3.956
  454POPC   C4B17384  15.929  17.660  -3.792
  455POPC   NC317385  10.023  28.016   9.996
  455POPC   PO417386  10.020  27.816   9.995
  455POPC   GL117387  10.017  27.616   9.994
  455POPC   GL217388  10.108  27.615   9.951
  455POPC   C1A17389  10.015  27.416   9.993
  455POPC   D2A17390  10.012  27.216   9.991
  455POPC   C3A17391  10.010  27.016   9.990
  455POPC   C4A17392  10.007  26.816   9.989
  455POPC   C1B17393  10.100  27.414  10.173
  455POPC   C2B17394  10.098  27.214  10.172
  455POPC   C3B17395  10.095  27.014  10.171
  455POPC   C4B17396  10.093  26.814  10.170
  456POPC   NC317397   0.956  25.652  10.145
  456POPC   PO417398   1.056  25.479  10.149
  456POPC   GL117399   1.156  25.306  10.153
  456POPC   GL217400   1.232  25.349  10.104
  456POPC   C1A17401   1.256  25.133  10.157
  456POPC   D2A17402   1.357  24.960  10.160
  456POPC   C3A17403   1.457  24.787  10.164
  456POPC   C4A17404   1.557  24.614  10.168
  456POPC   C1B17405   1.339  25.185  10.331
  456POPC   C2B17406   1.439  25.012  10.335
  456POPC   C3B17407   1.539  24.839  10.339
  456POPC   C4B17408   1.640  24.666  10.343
  457POPC   NC317409  10.100  27.128  15.672
  457POPC   PO417410  10.095  26.938  15.611
  457POPC   GL117411  10.090  26.748  15.550
  457POPC   GL217412  10.152  26.722  15.624
  457POPC   C1A17413  10.085  26.557  15.489
  457POPC   D2A17414  10.080  26.367  15.427
  457POPC   C3A17415  10.075  26.176  15.366
  457POPC   C4A17416  10.070  25.986  15.305
  457POPC   C1B17417   9.929  26.523  15.608
  457POPC   C2B17418   9.924  26.332  15.547
  457POPC   C3B17419   9.919  26.142  15.486
  457POPC   C4B17420   9.914  25.952  15.425
  458POPC   NC317421  -6.033   3.567   4.177
  458POPC   PO417422  -5.857   3.641   4.235
  458POPC   GL117423  -5.681   3.715   4.293
  458POPC   GL217424  -5.728   3.785   4.347
  458POPC   C1A17425  -5.504   3.789   4.351
  458POPC   D2A17426  -5.328   3.864   4.409
  458POPC   C3A17427  -5.151   3.938   4.467
  458POPC   C4A17428  -4.975   4.012   4.525
  458POPC   C1B17429  -5.505   3.668   4.510
  458POPC   C2B17430  -5.329   3.742   4.568
  458POPC   C3B17431  -5.152   3.816   4.626
  458POPC   C4B17432  -4.976   3.890   4.684
  459POPC   NC317433  21.893  16.262  21.734
  459POPC   PO417434  21.763  16.196  21.598
  459POPC   GL117435  21.633  16.130  21.462
  459POPC   GL217436  21.708  16.088  21.410
  459POPC   C1A17437  21.503  16.063  21.325
  459POPC   D2A17438  21.372  15.997  21.189
  459POPC   C3A17439  21.242  15.930  21.052
  459POPC   C4A17440  21.112  15.864  20.916
  459POPC   C1B17441  21.480  15.894  21.430
  459POPC   C2B17442  21.349  15.828  21.293
  459POPC   C3B17443  21.219  15.761  21.157
  459POPC   C4B17444  21.089  15.695  21.020
  460POPC   NC317445  -4.501   0.238  14.839
  460POPC   PO417446  -4.340   0.344  14.784
  460POPC   GL117447  -4.179   0.450  14.729
  460POPC   GL217448  -4.137   0.431  14.817
  460POPC   C1A17449  -4.019   0.555  14.674
  460POPC   D2A17450  -3.858   0.661  14.618
  460POPC   C3A17451  -3.698   0.766  14.563
  460POPC   C4A17452  -3.537   0.872  14.508
  460POPC   C1B17453  -3.936   0.390  14.597
  460POPC   C2B17454  -3.775   0.495  14.542
  460POPC   C3B17455  -3.615   0.601  14.487
  460POPC   C4B17456  -3.454   0.707  14.432
  461POPC   NC317457  23.660   5.100  -0.674
  461POPC   PO417458  23.509   5.156  -0.555
  461POPC   GL117459  23.358   5.212  -0.436
  461POPC   GL217460  23.315   5.258  -0.514
  461POPC   C1A17461  23.207   5.269  -0.318
  461POPC   D2A17462  23.057   5.325  -0.199
  461POPC   C3A17463  22.906   5.382  -0.081
  461POPC   C4A17464  22.755   5.438   0.038
  461POPC   C1B17465  23.109   5.100  -0.363
  461POPC   C2B17466  22.958   5.157  -0.244
  461POPC   C3B17467  22.808   5.213  -0.125
  461POPC   C4B17468  22.657   5.270  -0.007
  462POPC   NC317469  25.788   1.647   8.577
  462POPC   PO417470  25.612   1.741   8.595
  462POPC   GL117471  25.436   1.835   8.613
  462POPC   GL217472  25.393   1.764   8.558
  462POPC   C1A17473  25.261   1.929   8.630
  462POPC   D2A17474  25.085   2.023   8.648
  462POPC   C3A17475  24.910   2.117   8.665
  462POPC   C4A17476  24.734   2.211   8.683
  462POPC   C1B17477  25.222   1.825   8.797
  462POPC   C2B17478  25.047   1.919   8.815
  462POPC   C3B17479  24.871   2.013   8.832
  462POPC   C4B17480  24.695   2.107   8.850
  463POPC   NC317481  -5.231  15.436  18.288
  463POPC   PO417482  -5.062  15.378  18.198
  463POPC   GL117483  -4.893  15.320  18.108
  463POPC   GL217484  -4.840  15.351  18.187
  463POPC   C1A17485  -4.725  15.262  18.017
  463POPC   D2A17486  -4.556  15.204  17.927
  463POPC   C3A17487  -4.388  15.146  17.836
  463POPC   C4A17488  -4.219  15.088  17.746
  463POPC   C1B17489  -4.743  15.081  18.100
  463POPC   C2B17490  -4.574  15.023  18.009
  463POPC   C3B17491  -4.406  14.965  17.919
  463POPC   C4B17492  -4.237  14.907  17.828
  464POPC   NC317493   8.325  15.900  26.918
  464POPC   PO417494   8.338  15.836  26.729
  464POPC   GL117495   8.351  15.772  26.540
  464POPC   GL217496   8.394  15.687  26.572
  464POPC   C1A17497   8.364  15.707  26.351
  464POPC   D2A17498   8.378  15.643  26.163
  464POPC   C3A17499   8.391  15.578  25.974
  464POPC   C4A17500   8.404  15.514  25.785
  464POPC   C1B17501   8.184  15.623  26.368
  464POPC   C2B17502   8.197  15.558  26.179
  464POPC   C3B17503   8.210  15.494  25.990
  464POPC   C4B17504   8.224  15.429  25.801
  465POPC   NC317505   0.548   7.099  -5.284
  465POPC   PO417506   0.653   7.128  -5.116
  465POPC   GL117507   0.758   7.157  -4.948
  465POPC   GL217508   0.694   7.099  -4.898
  465POPC   C1A17509   0.863   7.186  -4.781
  465POPC   D2A17510   0.968   7.215  -4.613
  465POPC   C3A17511   1.073   7.244  -4.446
  465POPC   C4A17512   1.178   7.273  -4.278
  465POPC   C1B17513   0.975   7.026  -4.823
  465POPC   C2B17514   1.080   7.055  -4.656
  465POPC   C3B17515   1.185   7.084  -4.488
  465POPC   C4B17516   1.290   7.113  -4.321
  466POPC   NC317517   7.284  -2.203  -3.129
  466POPC   PO417518   7.314  -2.067  -2.985
  466POPC   GL117519   7.344  -1.931  -2.841
  466POPC   GL217520   7.381  -1.868  -2.909
  466POPC   C1A17521   7.373  -1.795  -2.698
  466POPC   D2A17522   7.403  -1.659  -2.554
  466POPC   C3A17523   7.432  -1.523  -2.411
  466POPC   C4A17524   7.462  -1.387  -2.267
  466POPC   C1B17525   7.190  -1.721  -2.730
  466POPC   C2B17526   7.220  -1.585  -2.586
  466POPC   C3B17527   7.249  -1.449  -2.443
  466POPC   C4B17528   7.279  -1.313  -2.299
  467POPC   NC317529  -6.665  16.992  11.936
  467POPC   PO417530  -6.481  16.916  11.914
  467POPC   GL117531  -6.297  16.840  11.892
  467POPC   GL217532  -6.309  16.787  11.976
  467POPC   C1A17533  -6.114  16.764  11.870
  467POPC   D2A17534  -5.930  16.687  11.847
  467POPC   C3A17535  -5.747  16.611  11.825
  467POPC   C4A17536  -5.563  16.535  11.803
  467POPC   C1B17537  -6.190  16.612  11.764
  467POPC   C2B17538  -6.006  16.535  11.742
  467POPC   C3B17539  -5.823  16.459  11.720
  467POPC   C4B17540  -5.639  16.383  11.698
  468POPC   NC317541  14.332  21.479  -3.316
  468POPC   PO417542  14.286  21.354  -3.167
  468POPC   GL117543  14.240  21.229  -3.018
  468POPC   GL217544  14.301  21.160  -3.056
  468POPC   C1A17545  14.194  21.104  -2.868
  468POPC   D2A17546  14.147  20.980  -2.719
  468POPC   C3A17547  14.101  20.855  -2.569
  468POPC   C4A17548  14.055  20.730  -2.420
  468POPC   C1B17549  14.345  21.177  -2.760
  468POPC   C2B17550  14.299  21.053  -2.611
  468POPC   C3B17551  14.253  20.928  -2.462
  468POPC   C4B17552  14.207  20.803  -2.312
  469POPC   NC317553  17.518  -3.020  19.851
  469POPC   PO417554  17.432  -2.880  19.737
  469POPC   GL117555  17.346  -2.740  19.623
  469POPC   GL217556  17.355  -2.800  19.543
  469POPC   C1A17557  17.260  -2.600  19.509
  469POPC   D2A17558  17.174  -2.461  19.394
  469POPC   C3A17559  17.088  -2.321  19.280
  469POPC   C4A17560  17.002  -2.181  19.166
  469POPC   C1B17561  17.080  -2.679  19.548
  469POPC   C2B17562  16.994  -2.539  19.434
  469POPC   C3B17563  16.908  -2.399  19.320
  469POPC   C4B17564  16.822  -2.259  19.206
  470POPC   NC317565  18.942  22.773  18.762
  470POPC   PO417566  18.839  22.629  18.669
  470POPC   GL117567  18.736  22.485  18.576
  470POPC   GL217568  18.773  22.417  18.639
  470POPC   C1A17569  18.633  22.342  18.482
  470POPC   D2A17570  18.529  22.198  18.389
  470POPC   C3A17571  18.426  22.055  18.295
  470POPC   C4A17572  18.323  21.911  18.202
  470POPC   C1B17573  18.478  22.372  18.606
  470POPC   C2B17574  18.375  22.228  18.513
  470POPC   C3B17575  18.272  22.085  18.419
  470POPC   C4B17576  18.169  21.941  18.326
  471POPC   NC317577  21.998  14.108  22.516
  471POPC   PO417578  21.866  14.060  22.373
  471POPC   GL117579  21.734  14.012  22.230
  471POPC   GL217580  21.776  13.922  22.222
  471POPC   C1A17581  21.603  13.964  22.087
  471POPC   D2A17582  21.471  13.917  21.945
  471POPC   C3A17583  21.340  13.869  21.802
  471POPC   C4A17584  21.208  13.821  21.659
  471POPC   C1B17585  21.478  13.893  22.226
  471POPC   C2B17586  21.346  13.845  22.084
  471POPC   C3B17587  21.215  13.798  21.941
  471POPC   C4B17588  21.083  13.750  21.798
  472POPC   NC317589  18.425   2.616  24.005
  472POPC   PO417590  18.327   2.698  23.851
  472POPC   GL117591  18.229   2.780  23.697
  472POPC   GL217592  18.241   2.870  23.738
  472POPC   C1A17593  18.131   2.862  23.543
  472POPC   D2A17594  18.032   2.943  23.390
  472POPC   C3A17595  17.934   3.025  23.236
  472POPC   C4A17596  17.836   3.107  23.082
  472POPC   C1B17597  18.303   2.883  23.444
  472POPC   C2B17598  18.205   2.964  23.291
  472POPC   C3B17599  18.107   3.046  23.137
  472POPC   C4B17600  18.008   3.128  22.983
  473POPC   NC317601   6.496  23.536  21.325
  473POPC   PO417602   6.536  23.390  21.195
  473POPC   GL117603   6.576  23.244  21.065
  473POPC   GL217604   6.592  23.312  20.993
  473POPC   C1A17605   6.615  23.098  20.934
  473POPC   D2A17606   6.655  22.951  20.804
  473POPC   C3A17607   6.694  22.805  20.673
  473POPC   C4A17608   6.734  22.659  20.543
  473POPC   C1B17609   6.809  23.105  20.985
  473POPC   C2B17610   6.848  22.958  20.855
  473POPC   C3B17611   6.888  22.812  20.724
  473POPC   C4B17612   6.927  22.666  20.594
  474POPC   NC317613  -1.979  -2.216  16.109
  474POPC   PO417614  -1.846  -2.083  16.042
  474POPC   GL117615  -1.713  -1.950  15.975
  474POPC   GL217616  -1.649  -2.024  15.955
  474POPC   C1A17617  -1.580  -1.817  15.907
  474POPC   D2A17618  -1.446  -1.683  15.840
  474POPC   C3A17619  -1.313  -1.550  15.772
  474POPC   C4A17620  -1.180  -1.417  15.705
  474POPC   C1B17621  -1.656  -1.833  15.723
  474POPC   C2B17622  -1.523  -1.700  15.656
  474POPC   C3B17623  -1.390  -1.567  15.588
  474POPC   C4B17624  -1.257  -1.434  15.521
  475POPC   NC317625  -1.668  20.252  19.305
  475POPC   PO417626  -1.540  20.139  19.201
  475POPC   GL117627  -1.412  20.026  19.097
  475POPC   GL217628  -1.344  20.099  19.102
  475POPC   C1A17629  -1.283  19.913  18.993
  475POPC   D2A17630  -1.155  19.801  18.890
  475POPC   C3A17631  -1.026  19.688  18.786
  475POPC   C4A17632  -0.898  19.575  18.682
  475POPC   C1B17633  -1.212  19.837  19.164
  475POPC   C2B17634  -1.084  19.724  19.060
  475POPC   C3B17635  -0.956  19.611  18.957
  475POPC   C4B17636  -0.827  19.499  18.853
  476POPC   NC317637  10.927  16.836  -6.714
  476POPC   PO417638  10.913  16.760  -6.529
  476POPC   GL117639  10.899  16.684  -6.344
  476POPC   GL217640  10.873  16.596  -6.383
  476POPC   C1A17641  10.885  16.609  -6.160
  476POPC   D2A17642  10.870  16.533  -5.975
  476POPC   C3A17643  10.856  16.458  -5.791
  476POPC   C4A17644  10.842  16.382  -5.606
  476POPC   C1B17645  11.077  16.555  -6.167
  476POPC   C2B17646  11.063  16.479  -5.983
  476POPC   C3B17647  11.049  16.404  -5.798
  476POPC   C4B17648  11.034  16.328  -5.613
  477POPC   NC317649  23.805  20.463  14.479
  477POPC   PO417650  23.654  20.342  14.428
  477POPC   GL117651  23.503  20.221  14.377
  477POPC   GL217652  23.504  20.258  14.284
  477POPC   C1A17653  23.351  20.101  14.326
  477POPC   D2A17654  23.200  19.980  14.276
  477POPC   C3A17655  23.048  19.860  14.225
  477POPC   C4A17656  22.897  19.739  14.174
  477POPC   C1B17657  23.482  19.959  14.273
  477POPC   C2B17658  23.331  19.839  14.222
  477POPC   C3B17659  23.179  19.718  14.171
  477POPC   C4B17660  23.028  19.597  14.120
  478POPC   NC317661  14.719  26.450   4.564
  478POPC   PO417662  14.667  26.267   4.626
  478POPC   GL117663  14.615  26.084   4.688
  478POPC   GL217664  14.592  26.059   4.595
  478POPC   C1A17665  14.563  25.901   4.751
  478POPC   D2A17666  14.510  25.719   4.813
  478POPC   C3A17667  14.458  25.536   4.876
  478POPC   C4A17668  14.406  25.353   4.938
  478POPC   C1B17669  14.750  25.838   4.722
  478POPC   C2B17670  14.698  25.655   4.784
  478POPC   C3B17671  14.646  25.472   4.846
  478POPC   C4B17672  14.593  25.290   4.909
  479POPC   NC317673  -6.312  12.854   2.476
  479POPC   PO417674  -6.131  12.820   2.553
  479POPC   GL117675  -5.950  12.786   2.630
  479POPC   GL217676  -5.986  12.802   2.722
  479POPC   C1A17677  -5.768  12.753   2.707
  479POPC   D2A17678  -5.587  12.719   2.785
  479POPC   C3A17679  -5.405  12.686   2.862
  479POPC   C4A17680  -5.224  12.652   2.939
  479POPC   C1B17681  -5.811  12.558   2.724
  479POPC   C2B17682  -5.630  12.525   2.801
  479POPC   C3B17683  -5.448  12.491   2.878
  479POPC   C4B17684  -5.267  12.457   2.956
  480POPC   NC317685  12.216  14.632  -7.332
  480POPC   PO417686  12.190  14.579  -7.141
  480POPC   GL117687  12.164  14.526  -6.950
  480POPC   GL217688  12.246  14.470  -6.954
  480POPC   C1A17689  12.137  14.473  -6.759
  480POPC   D2A17690  12.111  14.420  -6.568
  480POPC   C3A17691  12.084  14.367  -6.377
  480POPC   C4A17692  12.058  14.314  -6.186
  480POPC   C1B17693  12.248  14.629  -6.700
  480POPC   C2B17694  12.221  14.576  -6.509
  480POPC   C3B17695  12.195  14.523  -6.318
  480POPC   C4B17696  12.168  14.470  -6.127
  481POPC   NC317697   8.630  -3.790  -1.672
  481POPC   PO417698   8.645  -3.637  -1.544
  481POPC   GL117699   8.660  -3.484  -1.416
  481POPC   GL217700   8.721  -3.437  -1.480
  481POPC   C1A17701   8.675  -3.331  -1.289
  481POPC   D2A17702   8.689  -3.177  -1.161
  481POPC   C3A17703   8.704  -3.024  -1.034
  481POPC   C4A17704   8.719  -2.871  -0.906
  481POPC   C1B17705   8.516  -3.244  -1.375
  481POPC   C2B17706   8.531  -3.090  -1.247
  481POPC   C3B17707   8.546  -2.937  -1.120
  481POPC   C4B17708   8.561  -2.784  -0.992
  482POPC   NC317709  19.414   3.349  23.708
  482POPC   PO417710  19.305   3.423  23.558
  482POPC   GL117711  19.196   3.497  23.408
  482POPC   GL217712  19.195   3.408  23.364
  482POPC   C1A17713  19.087   3.572  23.258
  482POPC   D2A17714  18.978   3.646  23.107
  482POPC   C3A17715  18.869   3.721  22.957
  482POPC   C4A17716  18.760   3.795  22.807
  482POPC   C1B17717  18.919   3.525  23.356
  482POPC   C2B17718  18.810   3.599  23.206
  482POPC   C3B17719  18.701   3.673  23.056
  482POPC   C4B17720  18.592   3.748  22.905
  483POPC   NC317721  20.133  16.399  23.186
  483POPC   PO417722  20.017  16.331  23.037
  483POPC   GL117723  19.901  16.263  22.888
  483POPC   GL217724  19.969  16.293  22.822
  483POPC   C1A17725  19.786  16.195  22.740
  483POPC   D2A17726  19.670  16.128  22.591
  483POPC   C3A17727  19.555  16.060  22.443
  483POPC   C4A17728  19.439  15.992  22.294
  483POPC   C1B17729  19.876  16.017  22.751
  483POPC   C2B17730  19.760  15.949  22.602
  483POPC   C3B17731  19.645  15.882  22.454
  483POPC   C4B17732  19.529  15.814  22.305
  484POPC   NC317733  17.923   1.561  -3.906
  484POPC   PO417734  17.830   1.651  -3.754
  484POPC   GL117735  17.737   1.741  -3.602
  484POPC   GL217736  17.653   1.747  -3.657
  484POPC   C1A17737  17.644   1.832  -3.450
  484POPC   D2A17738  17.550   1.922  -3.298
  484POPC   C3A17739  17.457   2.013  -3.146
  484POPC   C4A17740  17.364   2.103  -2.994
  484POPC   C1B17741  17.586   1.654  -3.380
  484POPC   C2B17742  17.492   1.744  -3.228
  484POPC   C3B17743  17.399   1.835  -3.076
  484POPC   C4B17744  17.306   1.925  -2.924
  485POPC   NC317745   7.173  18.209  25.828
  485POPC   PO417746   7.203  18.117  25.653
  485POPC   GL117747   7.233  18.025  25.478
  485POPC   GL217748   7.327  18.057  25.477
  485POPC   C1A17749   7.262  17.933  25.303
  485POPC   D2A17750   7.292  17.840  25.128
  485POPC   C3A17751   7.321  17.748  24.953
  485POPC   C4A17752   7.351  17.656  24.778
  485POPC   C1B17753   7.320  17.767  25.400
  485POPC   C2B17754   7.349  17.675  25.225
  485POPC   C3B17755   7.379  17.583  25.050
  485POPC   C4B17756   7.408  17.491  24.875
  486POPC   NC317757  16.084  -5.204  17.444
  486POPC   PO417758  16.016  -5.034  17.364
  486POPC   GL117759  15.948  -4.864  17.284
  486POPC   GL217760  16.039  -4.823  17.293
  486POPC   C1A17761  15.880  -4.694  17.203
  486POPC   D2A17762  15.812  -4.523  17.123
  486POPC   C3A17763  15.744  -4.353  17.042
  486POPC   C4A17764  15.676  -4.183  16.962
  486POPC   C1B17765  15.929  -4.760  17.021
  486POPC   C2B17766  15.861  -4.590  16.941
  486POPC   C3B17767  15.793  -4.420  16.860
  486POPC   C4B17768  15.725  -4.250  16.780
  487POPC   NC317769   4.570  26.652   5.206
  487POPC   PO417770   4.630  26.468   5.258
  487POPC   GL117771   4.690  26.284   5.310
  487POPC   GL217772   4.704  26.315   5.404
  487POPC   C1A17773   4.751  26.101   5.361
  487POPC   D2A17774   4.811  25.917   5.413
  487POPC   C3A17775   4.872  25.734   5.464
  487POPC   C4A17776   4.932  25.550   5.516
  487POPC   C1B17777   4.562  26.051   5.405
  487POPC   C2B17778   4.622  25.867   5.456
  487POPC   C3B17779   4.683  25.684   5.508
  487POPC   C4B17780   4.743  25.500   5.560
  488POPC   NC317781  12.191  22.985  22.195
  488POPC   PO417782  12.164  22.840  22.060
  488POPC   GL117783  12.137  22.695  21.925
  488POPC   GL217784  12.234  22.673  21.929
  488POPC   C1A17785  12.109  22.550  21.790
  488POPC   D2A17786  12.082  22.404  21.656
  488POPC   C3A17787  12.054  22.259  21.521
  488POPC   C4A17788  12.027  22.114  21.386
  488POPC   C1B17789  12.074  22.419  21.938
  488POPC   C2B17790  12.047  22.274  21.803
  488POPC   C3B17791  12.019  22.129  21.668
  488POPC   C4B17792  11.992  21.984  21.534
  489POPC   NC317793  15.952  -4.938   1.811
  489POPC   PO417794  15.883  -4.772   1.899
  489POPC   GL117795  15.814  -4.606   1.987
  489POPC   GL217796  15.895  -4.556   1.956
  489POPC   C1A17797  15.745  -4.440   2.075
  489POPC   D2A17798  15.677  -4.275   2.164
  489POPC   C3A17799  15.608  -4.109   2.252
  489POPC   C4A17800  15.539  -3.943   2.340
  489POPC   C1B17801  15.650  -4.391   1.907
  489POPC   C2B17802  15.581  -4.225   1.995
  489POPC   C3B17803  15.512  -4.059   2.083
  489POPC   C4B17804  15.443  -3.893   2.172
  490POPC   NC317805  12.817  27.190   5.499
  490POPC   PO417806  12.780  27.000   5.551
  490POPC   GL117807  12.743  26.810   5.603
  490POPC   GL217808  12.826  26.810   5.660
  490POPC   C1A17809  12.707  26.621   5.655
  490POPC   D2A17810  12.670  26.431   5.708
  490POPC   C3A17811  12.634  26.242   5.760
  490POPC   C4A17812  12.597  26.052   5.812
  490POPC   C1B17813  12.599  26.685   5.811
  490POPC   C2B17814  12.562  26.495   5.863
  490POPC   C3B17815  12.525  26.305   5.916
  490POPC   C4B17816  12.489  26.116   5.968
  491POPC   NC317817  -5.255  10.651  19.744
  491POPC   PO417818  -5.090  10.643  19.631
  491POPC   GL117819  -4.925  10.635  19.518
  491POPC   GL217820  -4.880  10.580  19.589
  491POPC   C1A17821  -4.760  10.626  19.406
  491POPC   D2A17822  -4.595  10.618  19.293
  491POPC   C3A17823  -4.430  10.609  19.181
  491POPC   C4A17824  -4.265  10.601  19.068
  491POPC   C1B17825  -4.827  10.459  19.320
  491POPC   C2B17826  -4.662  10.450  19.207
  491POPC   C3B17827  -4.497  10.442  19.095
  491POPC   C4B17828  -4.332  10.433  18.982
  492POPC   NC317829  15.759  19.204  -4.436
  492POPC   PO417830  15.694  19.104  -4.275
  492POPC   GL117831  15.629  19.004  -4.114
  492POPC   GL217832  15.635  18.918  -4.165
  492POPC   C1A17833  15.565  18.904  -3.953
  492POPC   D2A17834  15.500  18.805  -3.793
  492POPC   C3A17835  15.436  18.705  -3.632
  492POPC   C4A17836  15.371  18.605  -3.471
  492POPC   C1B17837  15.754  18.881  -3.892
  492POPC   C2B17838  15.689  18.781  -3.731
  492POPC   C3B17839  15.625  18.681  -3.571
  492POPC   C4B17840  15.560  18.581  -3.410
  493POPC   NC317841   0.948   5.204  -5.062
  493POPC   PO417842   1.049   5.258  -4.898
  493POPC   GL117843   1.150   5.312  -4.734
  493POPC   GL217844   1.221   5.244  -4.755
  493POPC   C1A17845   1.251   5.366  -4.570
  493POPC   D2A17846   1.353   5.420  -4.407
  493POPC   C3A17847   1.454   5.474  -4.243
  493POPC   C4A17848   1.555   5.528  -4.079
  493POPC   C1B17849   1.351   5.503  -4.677
  493POPC   C2B17850   1.452   5.557  -4.513
  493POPC   C3B17851   1.554   5.611  -4.349
  493POPC   C4B17852   1.655   5.665  -4.186
  494POPC   NC317853   6.324  -4.986  19.410
  494POPC   PO417854   6.361  -4.820  19.305
  494POPC   GL117855   6.398  -4.654  19.200
  494POPC   GL217856   6.425  -4.607  19.284
  494POPC   C1A17857   6.436  -4.488  19.095
  494POPC   D2A17858   6.473  -4.321  18.991
  494POPC   C3A17859   6.511  -4.155  18.886
  494POPC   C4A17860   6.548  -3.989  18.781
  494POPC   C1B17861   6.625  -4.547  19.069
  494POPC   C2B17862   6.663  -4.380  18.965
  494POPC   C3B17863   6.700  -4.214  18.860
  494POPC   C4B17864   6.737  -4.048  18.755
  495POPC   NC317865  10.110  14.641  27.357
  495POPC   PO417866  10.104  14.585  27.165
  495POPC   GL117867  10.098  14.529  26.973
  495POPC   GL217868  10.160  14.453  26.993
  495POPC   C1A17869  10.091  14.473  26.781
  495POPC   D2A17870  10.085  14.417  26.590
  495POPC   C3A17871  10.078  14.361  26.398
  495POPC   C4A17872  10.072  14.305  26.206
  495POPC   C1B17873   9.935  14.354  26.821
  495POPC   C2B17874   9.929  14.298  26.629
  495POPC   C3B17875   9.922  14.242  26.438
  495POPC   C4B17876   9.916  14.186  26.246
  496POPC   NC317877  -3.653   8.741  21.838
  496POPC   PO417878  -3.502   8.751  21.707
  496POPC   GL117879  -3.351   8.761  21.576
  496POPC   GL217880  -3.309   8.681  21.618
  496POPC   C1A17881  -3.200   8.772  21.445
  496POPC   D2A17882  -3.049   8.782  21.315
  496POPC   C3A17883  -2.898   8.793  21.184
  496POPC   C4A17884  -2.747   8.803  21.053
  496POPC   C1B17885  -3.301   8.653  21.320
  496POPC   C2B17886  -3.150   8.664  21.189
  496POPC   C3B17887  -2.999   8.674  21.058
  496POPC   C4B17888  -2.848   8.684  20.927
  497POPC   NC317889  -5.832   2.765  15.092
  497POPC   PO417890  -5.658   2.846  15.037
  497POPC   GL117891  -5.484   2.927  14.982
  497POPC   GL217892  -5.478   2.974  15.070
  497POPC   C1A17893  -5.310   3.008  14.927
  497POPC   D2A17894  -5.135   3.090  14.872
  497POPC   C3A17895  -4.961   3.171  14.817
  497POPC   C4A17896  -4.787   3.252  14.762
  497POPC   C1B17897  -5.212   2.851  15.003
  497POPC   C2B17898  -5.038   2.932  14.948
  497POPC   C3B17899  -4.864   3.014  14.893
  497POPC   C4B17900  -4.690   3.095  14.838
  498POPC   NC317901  10.688  25.229   0.282
  498POPC   PO417902  10.680  25.062   0.392
  498POPC   GL117903  10.672  24.895   0.502
  498POPC   GL217904  10.743  24.854   0.445
  498POPC   C1A17905  10.664  24.728   0.612
  498POPC   D2A17906  10.656  24.561   0.721
  498POPC   C3A17907  10.648  24.394   0.831
  498POPC   C4A17908  10.640  24.227   0.941
  498POPC   C1B17909  10.805  24.801   0.733
  498POPC   C2B17910  10.797  24.634   0.843
  498POPC   C3B17911  10.789  24.467   0.953
  498POPC   C4B17912  10.781  24.300   1.063
  499POPC   NC317913  14.027  -7.622  10.100
  499POPC   PO417914  13.980  -7.428  10.097
  499POPC   GL117915  13.933  -7.234  10.094
  499POPC   GL217916  14.002  -7.216  10.164
  499POPC   C1A17917  13.887  -7.039  10.091
  499POPC   D2A17918  13.840  -6.845  10.087
  499POPC   C3A17919  13.794  -6.650  10.084
  499POPC   C4A17920  13.747  -6.456  10.081
  499POPC   C1B17921  14.024  -7.009   9.948
  499POPC   C2B17922  13.977  -6.814   9.945
  499POPC   C3B17923  13.930  -6.620   9.942
  499POPC   C4B17924  13.884  -6.425   9.938
  500POPC   NC317925  23.859  12.984  20.946
  500POPC   PO417926  23.708  12.950  20.819
  500POPC   GL117927  23.557  12.916  20.692
  500POPC   GL217928  23.583  12.997  20.640
  500POPC   C1A17929  23.407  12.881  20.565
  500POPC   D2A17930  23.256  12.847  20.438
  500POPC   C3A17931  23.106  12.812  20.311
  500POPC   C4A17932  22.955  12.778  20.184
  500POPC   C1B17933  23.528  12.771  20.451
  500POPC   C2B17934  23.378  12.737  20.324
  500POPC   C3B17935  23.227  12.702  20.197
  500POPC   C4B17936  23.077  12.668  20.070
  501POPC   NC317937  -7.602   8.283  14.141
  501POPC   PO417938  -7.408   8.304  14.096
  501POPC   GL117939  -7.214   8.325  14.051
  501POPC   GL217940  -7.190   8.309  14.147
  501POPC   C1A17941  -7.020   8.346  14.006
  501POPC   D2A17942  -6.827   8.366  13.961
  501POPC   C3A17943  -6.633   8.387  13.916
  501POPC   C4A17944  -6.439   8.408  13.871
  501POPC   C1B17945  -7.008   8.149  13.970
  501POPC   C2B17946  -6.814   8.170  13.925
  501POPC   C3B17947  -6.620   8.191  13.880
  501POPC   C4B17948  -6.426   8.212  13.835
  502POPC   NC317949  -4.034  -0.941  13.675
  502POPC   PO417950  -3.879  -0.822  13.632
  502POPC   GL117951  -3.724  -0.703  13.589
  502POPC   GL217952  -3.680  -0.730  13.674
  502POPC   C1A17953  -3.569  -0.584  13.546
  502POPC   D2A17954  -3.415  -0.464  13.502
  502POPC   C3A17955  -3.260  -0.345  13.459
  502POPC   C4A17956  -3.105  -0.226  13.416
  502POPC   C1B17957  -3.479  -0.735  13.451
  502POPC   C2B17958  -3.324  -0.616  13.408
  502POPC   C3B17959  -3.170  -0.497  13.365
  502POPC   C4B17960  -3.015  -0.377  13.321
  503POPC   NC317961  10.559   8.017  -7.999
  503POPC   PO417962  10.557   8.041  -7.800
  503POPC   GL117963  10.555   8.065  -7.601
  503POPC   GL217964  10.654   8.054  -7.599
  503POPC   C1A17965  10.552   8.088  -7.403
  503POPC   D2A17966  10.550   8.112  -7.204
  503POPC   C3A17967  10.547   8.135  -7.006
  503POPC   C4A17968  10.545   8.159  -6.807
  503POPC   C1B17969  10.573   8.286  -7.426
  503POPC   C2B17970  10.571   8.309  -7.227
  503POPC   C3B17971  10.569   8.333  -7.029
  503POPC   C4B17972  10.566   8.357  -6.830
  504POPC   NC317973   0.864   7.119  -5.480
  504POPC   PO417974   0.965   7.148  -5.310
  504POPC   GL117975   1.066   7.177  -5.140
  504POPC   GL217976   1.026   7.094  -5.102
  504POPC   C1A17977   1.167   7.206  -4.970
  504POPC   D2A17978   1.269   7.236  -4.800
  504POPC   C3A17979   1.370   7.265  -4.630
  504POPC   C4A17980   1.471   7.294  -4.460
  504POPC   C1B17981   1.320   7.100  -5.043
  504POPC   C2B17982   1.422   7.129  -4.873
  504POPC   C3B17983   1.523   7.159  -4.703
  504POPC   C4B17984   1.624   7.188  -4.533
  505POPC   NC317985  -6.483   3.636   5.760
  505POPC   PO417986  -6.302   3.713   5.799
  505POPC   GL117987  -6.121   3.790   5.838
  505POPC   GL217988  -6.102   3.712   5.899
  505POPC   C1A17989  -5.941   3.866   5.878
  505POPC   D2A17990  -5.760   3.943   5.917
  505POPC   C3A17991  -5.580   4.019   5.957
  505POPC   C4A17992  -5.399   4.096   5.996
  505POPC   C1B17993  -5.864   3.765   5.723
  505POPC   C2B17994  -5.684   3.842   5.763
  505POPC   C3B17995  -5.503   3.918   5.802
  505POPC   C4B17996  -5.322   3.995   5.842
  506POPC   NC317997  22.015  22.443   5.098
  506POPC   PO417998  21.877  22.310   5.154
  506POPC   GL117999  21.739  22.177   5.210
  506POPC   GL218000  21.680  22.207   5.135
  506POPC   C1A18001  21.600  22.044   5.267
  506POPC   D2A18002  21.462  21.912   5.323
  506POPC   C3A18003  21.323  21.779   5.380
  506POPC   C4A18004  21.185  21.646   5.436
  506POPC   C1B18005  21.683  21.907   5.148
  506POPC   C2B18006  21.545  21.774   5.204
  506POPC   C3B18007  21.407  21.641   5.260
  506POPC   C4B18008  21.268  21.509   5.317
  507POPC   NC318009   4.122  18.310  -5.041
  507POPC   PO418010   4.187  18.223  -4.873
  507POPC   GL118011   4.252  18.136  -4.705
  507POPC   GL218012   4.233  18.220  -4.654
  507POPC   C1A18013   4.316  18.049  -4.537
  507POPC   D2A18014   4.381  17.963  -4.368
  507POPC   C3A18015   4.445  17.876  -4.200
  507POPC   C4A18016   4.510  17.789  -4.032
  507POPC   C1B18017   4.130  17.986  -4.498
  507POPC   C2B18018   4.195  17.899  -4.330
  507POPC   C3B18019   4.260  17.812  -4.162
  507POPC   C4B18020   4.324  17.726  -3.993
  508POPC   NC318021  11.899  -3.280  -2.158
  508POPC   PO418022  11.875  -3.134  -2.023
  508POPC   GL118023  11.851  -2.988  -1.888
  508POPC   GL218024  11.904  -2.926  -1.946
  508POPC   C1A18025  11.827  -2.842  -1.753
  508POPC   D2A18026  11.802  -2.697  -1.619
  508POPC   C3A18027  11.778  -2.551  -1.484
  508POPC   C4A18028  11.754  -2.405  -1.349
  508POPC   C1B18029  11.659  -2.785  -1.846
  508POPC   C2B18030  11.635  -2.639  -1.711
  508POPC   C3B18031  11.611  -2.493  -1.576
  508POPC   C4B18032  11.586  -2.347  -1.442
  509POPC   NC318033  -6.817   3.476  12.011
  509POPC   PO418034  -6.632   3.547  11.986
  509POPC   GL118035  -6.447   3.618  11.961
  509POPC   GL218036  -6.412   3.525  11.954
  509POPC   C1A18037  -6.262   3.689  11.936
  509POPC   D2A18038  -6.076   3.761  11.912
  509POPC   C3A18039  -5.891   3.832  11.887
  509POPC   C4A18040  -5.706   3.903  11.862
  509POPC   C1B18041  -6.290   3.694  11.738
  509POPC   C2B18042  -6.105   3.765  11.714
  509POPC   C3B18043  -5.919   3.836  11.689
  509POPC   C4B18044  -5.734   3.908  11.664
  510POPC   NC318045  12.841  15.421  26.829
  510POPC   PO418046  12.810  15.356  26.642
  510POPC   GL118047  12.779  15.291  26.455
  510POPC   GL218048  12.857  15.345  26.424
  510POPC   C1A18049  12.747  15.226  26.269
  510POPC   D2A18050  12.716  15.162  26.082
  510POPC   C3A18051  12.684  15.097  25.896
  510POPC   C4A18052  12.653  15.032  25.709
  510POPC   C1B18053  12.868  15.071  26.303
  510POPC   C2B18054  12.837  15.006  26.116
  510POPC   C3B18055  12.805  14.941  25.929
  510POPC   C4B18056  12.774  14.876  25.743
  511POPC   NC318057  23.586  19.376  16.954
  511POPC   PO418058  23.437  19.267  16.878
  511POPC   GL118059  23.288  19.158  16.802
  511POPC   GL218060  23.281  19.221  16.725
  511POPC   C1A18061  23.139  19.048  16.726
  511POPC   D2A18062  22.989  18.939  16.651
  511POPC   C3A18063  22.840  18.829  16.575
  511POPC   C4A18064  22.691  18.720  16.499
  511POPC   C1B18065  23.271  18.938  16.625
  511POPC   C2B18066  23.122  18.829  16.549
  511POPC   C3B18067  22.973  18.719  16.473
  511POPC   C4B18068  22.823  18.610  16.397
  512POPC   NC318069   5.593  13.284  -7.325
  512POPC   PO418070   5.640  13.249  -7.134
  512POPC   GL118071   5.687  13.214  -6.943
  512POPC   GL218072   5.590  13.202  -6.921
  512POPC   C1A18073   5.734  13.178  -6.752
  512POPC   D2A18074   5.781  13.143  -6.560
  512POPC   C3A18075   5.828  13.107  -6.369
  512POPC   C4A18076   5.875  13.072  -6.178
  512POPC   C1B18077   5.748  12.983  -6.791
  512POPC   C2B18078   5.795  12.947  -6.600
  512POPC   C3B18079   5.842  12.912  -6.409
  512POPC   C4B18080   5.889  12.876  -6.218
  513POPC   NC318081   4.404  22.382  -2.012
  513POPC   PO418082   4.460  22.240  -1.883
  513POPC   GL118083   4.516  22.098  -1.754
  513POPC   GL218084   4.557  22.168  -1.695
  513POPC   C1A18085   4.573  21.956  -1.625
  513POPC   D2A18086   4.629  21.815  -1.495
  513POPC   C3A18087   4.686  21.673  -1.366
  513POPC   C4A18088   4.742  21.531  -1.237
  513POPC   C1B18089   4.399  21.975  -1.528
  513POPC   C2B18090   4.455  21.833  -1.399
  513POPC   C3B18091   4.511  21.691  -1.270
  513POPC   C4B18092   4.568  21.550  -1.140
  514POPC   NC318093   4.602  -6.377  15.523
  514POPC   PO418094   4.662  -6.196  15.462
  514POPC   GL118095   4.722  -6.015  15.401
  514POPC   GL218096   4.812  -6.032  15.441
  514POPC   C1A18097   4.782  -5.834  15.341
  514POPC   D2A18098   4.843  -5.654  15.280
  514POPC   C3A18099   4.903  -5.473  15.220
  514POPC   C4A18100   4.963  -5.292  15.159
  514POPC   C1B18101   4.844  -5.913  15.167
  514POPC   C2B18102   4.904  -5.732  15.107
  514POPC   C3B18103   4.964  -5.551  15.046
  514POPC   C4B18104   5.024  -5.370  14.986
  515POPC   NC318105  -1.294  18.735  -1.309
  515POPC   PO418106  -1.170  18.639  -1.185
  515POPC   GL118107  -1.046  18.543  -1.061
  515POPC   GL218108  -0.971  18.604  -1.088
  515POPC   C1A18109  -0.922  18.448  -0.937
  515POPC   D2A18110  -0.797  18.352  -0.812
  515POPC   C3A18111  -0.673  18.257  -0.688
  515POPC   C4A18112  -0.549  18.161  -0.564
  515POPC   C1B18113  -0.971  18.574  -0.790
  515POPC   C2B18114  -0.847  18.479  -0.666
  515POPC   C3B18115  -0.723  18.383  -0.541
  515POPC   C4B18116  -0.598  18.287  -0.417
  516POPC   NC318117  20.487  22.672  16.879
  516POPC   PO418118  20.368  22.530  16.804
  516POPC   GL118119  20.249  22.388  16.729
  516POPC   GL218120  20.226  22.448  16.651
  516POPC   C1A18121  20.129  22.247  16.653
  516POPC   D2A18122  20.010  22.105  16.578
  516POPC   C3A18123  19.890  21.964  16.502
  516POPC   C4A18124  19.771  21.822  16.427
  516POPC   C1B18125  20.283  22.171  16.551
  516POPC   C2B18126  20.164  22.030  16.475
  516POPC   C3B18127  20.045  21.888  16.400
  516POPC   C4B18128  19.925  21.747  16.324
  517POPC   NC318129   6.309  18.852  -5.427
  517POPC   PO418130   6.349  18.757  -5.256
  517POPC   GL118131   6.389  18.662  -5.085
  517POPC   GL218132   6.484  18.651  -5.113
  517POPC   C1A18133   6.429  18.567  -4.913
  517POPC   D2A18134   6.468  18.472  -4.742
  517POPC   C3A18135   6.508  18.377  -4.570
  517POPC   C4A18136   6.548  18.282  -4.399
  517POPC   C1B18137   6.474  18.742  -4.827
  517POPC   C2B18138   6.514  18.647  -4.656
  517POPC   C3B18139   6.554  18.552  -4.484
  517POPC   C4B18140   6.594  18.457  -4.313
  518POPC   NC318141  19.467   1.543  22.644
  518POPC   PO418142  19.358   1.635  22.504
  518POPC   GL118143  19.249   1.727  22.364
  518POPC   GL218144  19.321   1.709  22.296
  518POPC   C1A18145  19.140   1.818  22.223
  518POPC   D2A18146  19.030   1.910  22.083
  518POPC   C3A18147  18.921   2.001  21.942
  518POPC   C4A18148  18.812   2.093  21.802
  518POPC   C1B18149  19.054   1.644  22.176
  518POPC   C2B18150  18.944   1.735  22.036
  518POPC   C3B18151  18.835   1.827  21.895
  518POPC   C4B18152  18.726   1.919  21.755
  519POPC   NC318153  -5.265   7.414  19.495
  519POPC   PO418154  -5.099   7.438  19.386
  519POPC   GL118155  -4.933   7.462  19.277
  519POPC   GL218156  -4.928   7.557  19.306
  519POPC   C1A18157  -4.766   7.485  19.169
  519POPC   D2A18158  -4.600   7.509  19.060
  519POPC   C3A18159  -4.433   7.532  18.952
  519POPC   C4A18160  -4.267   7.556  18.843
  519POPC   C1B18161  -4.656   7.432  19.327
  519POPC   C2B18162  -4.489   7.456  19.218
  519POPC   C3B18163  -4.323   7.479  19.110
  519POPC   C4B18164  -4.156   7.503  19.001
  520POPC   NC318165   4.330  27.103  11.790
  520POPC   PO418166   4.394  26.915  11.767
  520POPC   GL118167   4.458  26.727  11.744
  520POPC   GL218168   4.546  26.752  11.785
  520POPC   C1A18169   4.523  26.539  11.721
  520POPC   D2A18170   4.587  26.351  11.699
  520POPC   C3A18171   4.652  26.163  11.676
  520POPC   C4A18172   4.716  25.975  11.653
  520POPC   C1B18173   4.451  26.493  11.902
  520POPC   C2B18174   4.516  26.305  11.880
  520POPC   C3B18175   4.580  26.117  11.857
  520POPC   C4B18176   4.644  25.929  11.834
  521POPC   NC318177   9.945  26.442   2.428
  521POPC   PO418178   9.941  26.260   2.512
  521POPC   GL118179   9.937  26.078   2.596
  521POPC   GL218180   9.994  26.043   2.522
  521POPC   C1A18181   9.933  25.897   2.679
  521POPC   D2A18182   9.929  25.715   2.763
  521POPC   C3A18183   9.925  25.534   2.846
  521POPC   C4A18184   9.921  25.352   2.930
  521POPC   C1B18185  10.097  25.942   2.785
  521POPC   C2B18186  10.093  25.760   2.868
  521POPC   C3B18187  10.089  25.579   2.952
  521POPC   C4B18188  10.085  25.397   3.036
  522POPC   NC318189   9.432  23.624  21.760
  522POPC   PO418190   9.437  23.474  21.628
  522POPC   GL118191   9.442  23.324  21.496
  522POPC   GL218192   9.465  23.260  21.569
  522POPC   C1A18193   9.447  23.174  21.364
  522POPC   D2A18194   9.451  23.024  21.231
  522POPC   C3A18195   9.456  22.874  21.099
  522POPC   C4A18196   9.461  22.724  20.967
  522POPC   C1B18197   9.252  23.140  21.395
  522POPC   C2B18198   9.257  22.990  21.263
  522POPC   C3B18199   9.262  22.840  21.131
  522POPC   C4B18200   9.266  22.690  20.998
  523POPC   NC318201  -4.799  -0.505  11.265
  523POPC   PO418202  -4.636  -0.390  11.250
  523POPC   GL118203  -4.473  -0.275  11.235
  523POPC   GL218204  -4.443  -0.306  11.325
  523POPC   C1A18205  -4.310  -0.160  11.220
  523POPC   D2A18206  -4.148  -0.044  11.205
  523POPC   C3A18207  -3.985   0.071  11.190
  523POPC   C4A18208  -3.822   0.186  11.175
  523POPC   C1B18209  -4.211  -0.311  11.135
  523POPC   C2B18210  -4.048  -0.196  11.120
  523POPC   C3B18211  -3.885  -0.081  11.105
  523POPC   C4B18212  -3.723   0.035  11.090
  524POPC   NC318213   1.851  17.805  -4.237
  524POPC   PO418214   1.940  17.721  -4.079
  524POPC   GL118215   2.029  17.637  -3.921
  524POPC   GL218216   2.028  17.725  -3.873
  524POPC   C1A18217   2.118  17.553  -3.763
  524POPC   D2A18218   2.208  17.470  -3.604
  524POPC   C3A18219   2.297  17.386  -3.446
  524POPC   C4A18220   2.386  17.302  -3.288
  524POPC   C1B18221   1.939  17.509  -3.685
  524POPC   C2B18222   2.029  17.425  -3.527
  524POPC   C3B18223   2.118  17.341  -3.369
  524POPC   C4B18224   2.207  17.257  -3.211
  525POPC   NC318225  23.594  13.543  -1.197
  525POPC   PO418226  23.441  13.509  -1.073
  525POPC   GL118227  23.288  13.475  -0.949
  525POPC   GL218228  23.226  13.522  -1.012
  525POPC   C1A18229  23.135  13.440  -0.825
  525POPC   D2A18230  22.981  13.406  -0.702
  525POPC   C3A18231  22.828  13.371  -0.578
  525POPC   C4A18232  22.675  13.337  -0.454
  525POPC   C1B18233  23.098  13.267  -0.919
  525POPC   C2B18234  22.945  13.233  -0.795
  525POPC   C3B18235  22.792  13.198  -0.671
  525POPC   C4B18236  22.638  13.164  -0.547
  526POPC   NC318237  22.494  12.483  -2.697
  526POPC   PO418238  22.350  12.458  -2.560
  526POPC   GL118239  22.206  12.433  -2.423
  526POPC   GL218240  22.189  12.341  -2.458
  526POPC   C1A18241  22.062  12.408  -2.286
  526POPC   D2A18242  21.919  12.383  -2.150
  526POPC   C3A18243  21.775  12.358  -2.013
  526POPC   C4A18244  21.631  12.333  -1.876
  526POPC   C1B18245  22.197  12.334  -2.158
  526POPC   C2B18246  22.053  12.309  -2.022
  526POPC   C3B18247  21.910  12.284  -1.885
  526POPC   C4B18248  21.766  12.259  -1.748
  527POPC   NC318249  -0.276   2.583  -2.966
  527POPC   PO418250  -0.164   2.668  -2.824
  527POPC   GL118251  -0.052   2.753  -2.682
  527POPC   GL218252  -0.131   2.756  -2.621
  527POPC   C1A18253   0.060   2.839  -2.540
  527POPC   D2A18254   0.172   2.924  -2.398
  527POPC   C3A18255   0.284   3.010  -2.256
  527POPC   C4A18256   0.396   3.095  -2.114
  527POPC   C1B18257   0.108   2.658  -2.469
  527POPC   C2B18258   0.220   2.743  -2.327
  527POPC   C3B18259   0.332   2.829  -2.185
  527POPC   C4B18260   0.444   2.914  -2.043
  528POPC   NC318261  14.231  27.433   8.384
  528POPC   PO418262  14.181  27.240   8.403
  528POPC   GL118263  14.131  27.047   8.422
  528POPC   GL218264  14.180  27.026   8.337
  528POPC   C1A18265  14.082  26.854   8.442
  528POPC   D2A18266  14.032  26.662   8.461
  528POPC   C3A18267  13.983  26.469   8.481
  528POPC   C4A18268  13.933  26.276   8.500
  528POPC   C1B18269  14.250  26.821   8.545
  528POPC   C2B18270  14.200  26.629   8.564
  528POPC   C3B18271  14.151  26.436   8.584
  528POPC   C4B18272  14.101  26.243   8.603
  529POPC   NC318273  20.190  24.139   5.357
  529POPC   PO418274  20.078  23.980   5.404
  529POPC   GL118275  19.966  23.821   5.451
  529POPC   GL218276  20.028  23.800   5.527
  529POPC   C1A18277  19.854  23.662   5.498
  529POPC   D2A18278  19.741  23.504   5.545
  529POPC   C3A18279  19.629  23.345   5.592
  529POPC   C4A18280  19.517  23.186   5.639
  529POPC   C1B18281  19.744  23.776   5.620
  529POPC   C2B18282  19.632  23.617   5.667
  529POPC   C3B18283  19.519  23.459   5.714
  529POPC   C4B18284  19.407  23.300   5.761
  530POPC   NC318285  17.699   0.584  -3.395
  530POPC   PO418286  17.610   0.689  -3.250
  530POPC   GL118287  17.521   0.794  -3.105
  530POPC   GL218288  17.477   0.852  -3.174
  530POPC   C1A18289  17.432   0.900  -2.960
  530POPC   D2A18290  17.343   1.005  -2.816
  530POPC   C3A18291  17.254   1.111  -2.671
  530POPC   C4A18292  17.165   1.216  -2.526
  530POPC   C1B18293  17.276   0.774  -2.965
  530POPC   C2B18294  17.187   0.880  -2.820
  530POPC   C3B18295  17.098   0.985  -2.675
  530POPC   C4B18296  17.009   1.090  -2.530
  531POPC   NC318297   6.092  11.414  -7.670
  531POPC   PO418298   6.133  11.400  -7.475
  531POPC   GL118299   6.174  11.386  -7.280
  531POPC   GL218300   6.087  11.431  -7.259
  531POPC   C1A18301   6.214  11.373  -7.084
  531POPC   D2A18302   6.255  11.359  -6.889
  531POPC   C3A18303   6.295  11.346  -6.693
  531POPC   C4A18304   6.336  11.332  -6.498
  531POPC   C1B18305   6.123  11.195  -7.078
  531POPC   C2B18306   6.164  11.181  -6.882
  531POPC   C3B18307   6.205  11.168  -6.687
  531POPC   C4B18308   6.245  11.154  -6.491
  532POPC   NC318309   0.580   2.968  -3.829
  532POPC   PO418310   0.685   3.050  -3.680
  532POPC   GL118311   0.790   3.132  -3.531
  532POPC   GL218312   0.709   3.132  -3.473
  532POPC   C1A18313   0.896   3.213  -3.382
  532POPC   D2A18314   1.001   3.295  -3.232
  532POPC   C3A18315   1.107   3.376  -3.083
  532POPC   C4A18316   1.212   3.458  -2.934
  532POPC   C1B18317   0.942   3.031  -3.315
  532POPC   C2B18318   1.048   3.112  -3.165
  532POPC   C3B18319   1.153   3.194  -3.016
  532POPC   C4B18320   1.258   3.275  -2.867
  533POPC   NC318321  18.142  25.601   6.467
  533POPC   PO418322  18.052  25.426   6.501
  533POPC   GL118323  17.962  25.251   6.535
  533POPC   GL218324  18.031  25.204   6.480
  533POPC   C1A18325  17.871  25.076   6.569
  533POPC   D2A18326  17.781  24.900   6.604
  533POPC   C3A18327  17.690  24.725   6.638
  533POPC   C4A18328  17.600  24.550   6.672
  533POPC   C1B18329  17.984  25.049   6.732
  533POPC   C2B18330  17.894  24.874   6.767
  533POPC   C3B18331  17.803  24.699   6.801
  533POPC   C4B18332  17.713  24.524   6.835
  534POPC   NC318333  11.270  -7.915  11.633
  534POPC   PO418334  11.257  -7.716  11.614
  534POPC   GL118335  11.244  -7.517  11.595
  534POPC   GL218336  11.333  -7.516  11.549
  534POPC   C1A18337  11.232  -7.318  11.576
  534POPC   D2A18338  11.219  -7.120  11.558
  534POPC   C3A18339  11.207  -6.921  11.539
  534POPC   C4A18340  11.194  -6.722  11.520
  534POPC   C1B18341  11.141  -7.341  11.400
  534POPC   C2B18342  11.128  -7.142  11.381
  534POPC   C3B18343  11.115  -6.943  11.362
  534POPC   C4B18344  11.103  -6.744  11.343
  535POPC   NC318345  25.403  11.628  19.019
  535POPC   PO418346  25.230  11.611  18.921
  535POPC   GL118347  25.057  11.594  18.823
  535POPC   GL218348  25.079  11.499  18.799
  535POPC   C1A18349  24.883  11.577  18.725
  535POPC   D2A18350  24.710  11.559  18.627
  535POPC   C3A18351  24.536  11.542  18.529
  535POPC   C4A18352  24.363  11.525  18.431
  535POPC   C1B18353  24.795  11.513  18.893
  535POPC   C2B18354  24.621  11.495  18.795
  535POPC   C3B18355  24.448  11.478  18.697
  535POPC   C4B18356  24.275  11.461  18.599
  536POPC   NC318357  13.194  -7.383   6.031
  536POPC   PO418358  13.153  -7.192   6.074
  536POPC   GL118359  13.112  -7.001   6.117
  536POPC   GL218360  13.108  -6.980   6.019
  536POPC   C1A18361  13.071  -6.810   6.160
  536POPC   D2A18362  13.029  -6.619   6.203
  536POPC   C3A18363  12.988  -6.428   6.246
  536POPC   C4A18364  12.947  -6.237   6.289
  536POPC   C1B18365  12.875  -6.852   6.159
  536POPC   C2B18366  12.834  -6.661   6.202
  536POPC   C3B18367  12.793  -6.470   6.245
  536POPC   C4B18368  12.751  -6.279   6.288
  537POPC   NC318369  23.441  -0.949   5.245
  537POPC   PO418370  23.289  -0.828   5.295
  537POPC   GL118371  23.137  -0.707   5.345
  537POPC   GL218372  23.202  -0.639   5.377
  537POPC   C1A18373  22.986  -0.587   5.394
  537POPC   D2A18374  22.834  -0.466   5.444
  537POPC   C3A18375  22.683  -0.346   5.493
  537POPC   C4A18376  22.531  -0.225   5.543
  537POPC   C1B18377  22.991  -0.505   5.212
  537POPC   C2B18378  22.839  -0.385   5.261
  537POPC   C3B18379  22.687  -0.264   5.311
  537POPC   C4B18380  22.536  -0.144   5.360
  538POPC   NC318381  20.564  11.969  -4.463
  538POPC   PO418382  20.446  11.948  -4.303
  538POPC   GL118383  20.328  11.927  -4.143
  538POPC   GL218384  20.333  11.828  -4.152
  538POPC   C1A18385  20.210  11.906  -3.983
  538POPC   D2A18386  20.091  11.885  -3.823
  538POPC   C3A18387  19.973  11.864  -3.663
  538POPC   C4A18388  19.855  11.843  -3.503
  538POPC   C1B18389  20.371  11.902  -3.865
  538POPC   C2B18390  20.252  11.881  -3.705
  538POPC   C3B18391  20.134  11.860  -3.545
  538POPC   C4B18392  20.016  11.839  -3.385
  539POPC   NC318393   1.800  -1.571  -1.224
  539POPC   PO418394   1.891  -1.444  -1.098
  539POPC   GL118395   1.982  -1.317  -0.972
  539POPC   GL218396   1.907  -1.329  -0.907
  539POPC   C1A18397   2.073  -1.191  -0.847
  539POPC   D2A18398   2.163  -1.064  -0.721
  539POPC   C3A18399   2.254  -0.938  -0.596
  539POPC   C4A18400   2.345  -0.811  -0.470
  539POPC   C1B18401   2.171  -1.344  -0.763
  539POPC   C2B18402   2.261  -1.217  -0.638
  539POPC   C3B18403   2.352  -1.091  -0.512
  539POPC   C4B18404   2.443  -0.964  -0.387
  540POPC   NC318405  18.427  -4.063  17.440
  540POPC   PO418406  18.330  -3.908  17.359
  540POPC   GL118407  18.233  -3.753  17.278
  540POPC   GL218408  18.224  -3.803  17.192
  540POPC   C1A18409  18.137  -3.598  17.197
  540POPC   D2A18410  18.040  -3.442  17.116
  540POPC   C3A18411  17.944  -3.287  17.035
  540POPC   C4A18412  17.847  -3.132  16.954
  540POPC   C1B18413  17.963  -3.673  17.260
  540POPC   C2B18414  17.866  -3.518  17.179
  540POPC   C3B18415  17.769  -3.363  17.098
  540POPC   C4B18416  17.673  -3.208  17.017
  541POPC   NC318417  22.979  16.470  -0.698
  541POPC   PO418418  22.832  16.400  -0.582
  541POPC   GL118419  22.685  16.330  -0.466
  541POPC   GL218420  22.710  16.236  -0.491
  541POPC   C1A18421  22.537  16.260  -0.351
  541POPC   D2A18422  22.390  16.189  -0.235
  541POPC   C3A18423  22.242  16.119  -0.120
  541POPC   C4A18424  22.095  16.049  -0.004
  541POPC   C1B18425  22.663  16.253  -0.195
  541POPC   C2B18426  22.515  16.182  -0.080
  541POPC   C3B18427  22.368  16.112   0.036
  541POPC   C4B18428  22.220  16.042   0.152
  542POPC   NC318429  27.431  14.190  10.083
  542POPC   PO418430  27.236  14.146  10.078
  542POPC   GL118431  27.041  14.102  10.073
  542POPC   GL218432  27.049  14.075   9.977
  542POPC   C1A18433  26.846  14.058  10.069
  542POPC   D2A18434  26.651  14.014  10.064
  542POPC   C3A18435  26.456  13.970  10.060
  542POPC   C4A18436  26.261  13.926  10.055
  542POPC   C1B18437  26.887  13.871  10.125
  542POPC   C2B18438  26.692  13.827  10.121
  542POPC   C3B18439  26.497  13.783  10.116
  542POPC   C4B18440  26.302  13.739  10.112
  543POPC   NC318441  24.479  -0.205   7.163
  543POPC   PO418442  24.316  -0.094   7.193
  543POPC   GL118443  24.153   0.017   7.223
  543POPC   GL218444  24.187   0.085   7.158
  543POPC   C1A18445  23.990   0.129   7.254
  543POPC   D2A18446  23.826   0.240   7.284
  543POPC   C3A18447  23.663   0.352   7.315
  543POPC   C4A18448  23.500   0.463   7.345
  543POPC   C1B18449  23.896   0.033   7.105
  543POPC   C2B18450  23.733   0.144   7.136
  543POPC   C3B18451  23.570   0.255   7.166
  543POPC   C4B18452  23.407   0.367   7.196
  544POPC   NC318453  26.723   7.050   4.167
  544POPC   PO418454  26.535   7.081   4.228
  544POPC   GL118455  26.347   7.112   4.289
  544POPC   GL218456  26.352   7.206   4.255
  544POPC   C1A18457  26.159   7.143   4.350
  544POPC   D2A18458  25.971   7.174   4.410
  544POPC   C3A18459  25.783   7.205   4.471
  544POPC   C4A18460  25.595   7.236   4.532
  544POPC   C1B18461  26.091   7.083   4.171
  544POPC   C2B18462  25.903   7.114   4.232
  544POPC   C3B18463  25.715   7.145   4.293
  544POPC   C4B18464  25.527   7.176   4.354
  545POPC   NC318465  -2.989   5.527  -1.970
  545POPC   PO418466  -2.847   5.575  -1.838
  545POPC   GL118467  -2.705   5.623  -1.706
  545POPC   GL218468  -2.762   5.588  -1.632
  545POPC   C1A18469  -2.563   5.671  -1.574
  545POPC   D2A18470  -2.420   5.719  -1.441
  545POPC   C3A18471  -2.278   5.767  -1.309
  545POPC   C4A18472  -2.136   5.815  -1.177
  545POPC   C1B18473  -2.480   5.490  -1.597
  545POPC   C2B18474  -2.338   5.538  -1.464
  545POPC   C3B18475  -2.196   5.586  -1.332
  545POPC   C4B18476  -2.054   5.634  -1.200
  546POPC   NC318477  17.245  -0.596  -2.734
  546POPC   PO418478  17.164  -0.477  -2.595
  546POPC   GL118479  17.083  -0.358  -2.456
  546POPC   GL218480  17.043  -0.301  -2.528
  546POPC   C1A18481  17.002  -0.239  -2.317
  546POPC   D2A18482  16.921  -0.120  -2.178
  546POPC   C3A18483  16.840  -0.001  -2.039
  546POPC   C4A18484  16.759   0.118  -1.900
  546POPC   C1B18485  16.838  -0.353  -2.315
  546POPC   C2B18486  16.757  -0.234  -2.176
  546POPC   C3B18487  16.676  -0.115  -2.037
  546POPC   C4B18488  16.595   0.004  -1.898
  547POPC   NC318489  19.025  22.163   0.375
  547POPC   PO418490  18.921  22.028   0.480
  547POPC   GL118491  18.817  21.893   0.585
  547POPC   GL218492  18.816  21.832   0.506
  547POPC   C1A18493  18.713  21.759   0.690
  547POPC   D2A18494  18.610  21.624   0.796
  547POPC   C3A18495  18.506  21.490   0.901
  547POPC   C4A18496  18.402  21.355   1.006
  547POPC   C1B18497  18.884  21.675   0.752
  547POPC   C2B18498  18.781  21.540   0.857
  547POPC   C3B18499  18.677  21.406   0.962
  547POPC   C4B18500  18.573  21.271   1.067
  548POPC   NC318501  -3.627  21.039   5.120
  548POPC   PO418502  -3.479  20.916   5.176
  548POPC   GL118503  -3.331  20.793   5.232
  548POPC   GL218504  -3.358  20.805   5.328
  548POPC   C1A18505  -3.184  20.670   5.288
  548POPC   D2A18506  -3.036  20.548   5.344
  548POPC   C3A18507  -2.889  20.425   5.400
  548POPC   C4A18508  -2.741  20.302   5.456
  548POPC   C1B18509  -3.308  20.514   5.273
  548POPC   C2B18510  -3.161  20.392   5.329
  548POPC   C3B18511  -3.013  20.269   5.385
  548POPC   C4B18512  -2.865  20.146   5.441
  549POPC   NC318513  19.956  16.876  -3.341
  549POPC   PO418514  19.847  16.800  -3.192
  549POPC   GL118515  19.738  16.724  -3.043
  549POPC   GL218516  19.668  16.695  -3.108
  549POPC   C1A18517  19.629  16.648  -2.893
  549POPC   D2A18518  19.520  16.571  -2.744
  549POPC   C3A18519  19.411  16.495  -2.594
  549POPC   C4A18520  19.302  16.419  -2.445
  549POPC   C1B18521  19.721  16.472  -2.916
  549POPC   C2B18522  19.612  16.395  -2.766
  549POPC   C3B18523  19.503  16.319  -2.617
  549POPC   C4B18524  19.394  16.243  -2.467
  550POPC   NC318525  -5.872  13.553   1.829
  550POPC   PO418526  -5.695  13.510   1.912
  550POPC   GL118527  -5.518  13.467   1.995
  550POPC   GL218528  -5.559  13.476   2.086
  550POPC   C1A18529  -5.341  13.424   2.078
  550POPC   D2A18530  -5.165  13.380   2.160
  550POPC   C3A18531  -4.988  13.337   2.243
  550POPC   C4A18532  -4.811  13.294   2.326
  550POPC   C1B18533  -5.388  13.229   2.076
  550POPC   C2B18534  -5.211  13.186   2.159
  550POPC   C3B18535  -5.034  13.143   2.242
  550POPC   C4B18536  -4.858  13.100   2.324
  551POPC   NC318537  24.642  16.873  17.792
  551POPC   PO418538  24.476  16.800  17.709
  551POPC   GL118539  24.310  16.727  17.626
  551POPC   GL218540  24.364  16.661  17.574
  551POPC   C1A18541  24.143  16.654  17.542
  551POPC   D2A18542  23.977  16.580  17.459
  551POPC   C3A18543  23.810  16.507  17.375
  551POPC   C4A18544  23.644  16.434  17.292
  551POPC   C1B18545  24.126  16.522  17.692
  551POPC   C2B18546  23.960  16.449  17.608
  551POPC   C3B18547  23.794  16.375  17.525
  551POPC   C4B18548  23.627  16.302  17.441
  552POPC   NC318549   3.685  23.844  19.722
  552POPC   PO418550   3.753  23.692  19.611
  552POPC   GL118551   3.821  23.540  19.500
  552POPC   GL218552   3.889  23.601  19.459
  552POPC   C1A18553   3.889  23.388  19.389
  552POPC   D2A18554   3.956  23.237  19.277
  552POPC   C3A18555   4.024  23.085  19.166
  552POPC   C4A18556   4.092  22.933  19.055
  552POPC   C1B18557   4.017  23.340  19.534
  552POPC   C2B18558   4.085  23.188  19.422
  552POPC   C3B18559   4.153  23.036  19.311
  552POPC   C4B18560   4.221  22.884  19.200
  553POPC   NC318561   0.757  -3.639  17.554
  553POPC   PO418562   0.857  -3.489  17.467
  553POPC   GL118563   0.957  -3.339  17.380
  553POPC   GL218564   1.039  -3.364  17.431
  553POPC   C1A18565   1.057  -3.190  17.292
  553POPC   D2A18566   1.156  -3.040  17.205
  553POPC   C3A18567   1.256  -2.891  17.117
  553POPC   C4A18568   1.356  -2.741  17.030
  553POPC   C1B18569   1.112  -3.313  17.145
  553POPC   C2B18570   1.212  -3.163  17.057
  553POPC   C3B18571   1.312  -3.014  16.970
  553POPC   C4B18572   1.411  -2.864  16.882
  554POPC   NC318573   4.644  -0.242  -4.010
  554POPC   PO418574   4.703  -0.128  -3.857
  554POPC   GL118575   4.762  -0.014  -3.704
  554POPC   GL218576   4.693  -0.057  -3.645
  554POPC   C1A18577   4.821   0.101  -3.551
  554POPC   D2A18578   4.879   0.215  -3.397
  554POPC   C3A18579   4.938   0.330  -3.244
  554POPC   C4A18580   4.997   0.444  -3.091
  554POPC   C1B18581   4.954  -0.038  -3.498
  554POPC   C2B18582   5.013   0.076  -3.345
  554POPC   C3B18583   5.072   0.190  -3.191
  554POPC   C4B18584   5.131   0.305  -3.038
  555POPC   NC318585  27.776   8.654  10.797
  555POPC   PO418586  27.577   8.667  10.790
  555POPC   GL118587  27.378   8.680  10.783
  555POPC   GL218588  27.385   8.753  10.715
  555POPC   C1A18589  27.178   8.692  10.775
  555POPC   D2A18590  26.979   8.705  10.768
  555POPC   C3A18591  26.779   8.717  10.760
  555POPC   C4A18592  26.580   8.730  10.753
  555POPC   C1B18593  27.175   8.557  10.628
  555POPC   C2B18594  26.976   8.570  10.620
  555POPC   C3B18595  26.776   8.582  10.613
  555POPC   C4B18596  26.577   8.595  10.605
  556POPC   NC318597  13.990  26.346  16.370
  556POPC   PO418598  13.944  26.165  16.298
  556POPC   GL118599  13.898  25.984  16.226
  556POPC   GL218600  13.965  25.996  16.153
  556POPC   C1A18601  13.852  25.803  16.154
  556POPC   D2A18602  13.806  25.623  16.083
  556POPC   C3A18603  13.760  25.442  16.011
  556POPC   C4A18604  13.714  25.261  15.939
  556POPC   C1B18605  13.993  25.721  16.270
  556POPC   C2B18606  13.947  25.541  16.198
  556POPC   C3B18607  13.901  25.360  16.127
  556POPC   C4B18608  13.855  25.179  16.055
  557POPC   NC318609  -2.066   3.891  -2.178
  557POPC   PO418610  -1.937   3.962  -2.042
  557POPC   GL118611  -1.808   4.033  -1.906
  557POPC   GL218612  -1.845   3.969  -1.838
  557POPC   C1A18613  -1.680   4.104  -1.770
  557POPC   D2A18614  -1.551   4.175  -1.635
  557POPC   C3A18615  -1.423   4.246  -1.499
  557POPC   C4A18616  -1.294   4.317  -1.363
  557POPC   C1B18617  -1.545   3.968  -1.827
  557POPC   C2B18618  -1.416   4.039  -1.691
  557POPC   C3B18619  -1.288   4.110  -1.555
  557POPC   C4B18620  -1.159   4.181  -1.419
  558POPC   NC318621  25.627  16.037   3.484
  558POPC   PO418622  25.453  15.969   3.555
  558POPC   GL118623  25.279  15.901   3.626
  558POPC   GL218624  25.231  15.977   3.583
  558POPC   C1A18625  25.105  15.833   3.697
  558POPC   D2A18626  24.931  15.765   3.769
  558POPC   C3A18627  24.757  15.697   3.840
  558POPC   C4A18628  24.583  15.629   3.911
  558POPC   C1B18629  25.080  15.723   3.532
  558POPC   C2B18630  24.906  15.655   3.603
  558POPC   C3B18631  24.732  15.587   3.674
  558POPC   C4B18632  24.558  15.519   3.746
  559POPC   NC318633  19.652  -1.703   0.251
  559POPC   PO418634  19.542  -1.575   0.357
  559POPC   GL118635  19.432  -1.447   0.463
  559POPC   GL218636  19.363  -1.445   0.390
  559POPC   C1A18637  19.321  -1.318   0.570
  559POPC   D2A18638  19.211  -1.190   0.676
  559POPC   C3A18639  19.100  -1.061   0.783
  559POPC   C4A18640  18.990  -0.933   0.889
  559POPC   C1B18641  19.225  -1.471   0.655
  559POPC   C2B18642  19.115  -1.343   0.762
  559POPC   C3B18643  19.005  -1.215   0.868
  559POPC   C4B18644  18.894  -1.086   0.975
  560POPC   NC318645  15.250  26.353  15.330
  560POPC   PO418646  15.188  26.173  15.269
  560POPC   GL118647  15.126  25.993  15.208
  560POPC   GL218648  15.185  26.000  15.128
  560POPC   C1A18649  15.065  25.813  15.147
  560POPC   D2A18650  15.003  25.632  15.086
  560POPC   C3A18651  14.942  25.452  15.025
  560POPC   C4A18652  14.880  25.272  14.964
  560POPC   C1B18653  15.214  25.727  15.249
  560POPC   C2B18654  15.152  25.547  15.188
  560POPC   C3B18655  15.091  25.367  15.127
  560POPC   C4B18656  15.029  25.186  15.066
  561POPC   NC318657  11.851   6.294  27.504
  561POPC   PO418658  11.825   6.336  27.310
  561POPC   GL118659  11.799   6.378  27.116
  561POPC   GL218660  11.831   6.286  27.092
  561POPC   C1A18661  11.773   6.419  26.922
  561POPC   D2A18662  11.746   6.461  26.729
  561POPC   C3A18663  11.720   6.502  26.535
  561POPC   C4A18664  11.694   6.544  26.341
  561POPC   C1B18665  11.585   6.351  26.933
  561POPC   C2B18666  11.559   6.392  26.739
  561POPC   C3B18667  11.533   6.434  26.545
  561POPC   C4B18668  11.506   6.475  26.352
  562POPC   NC318669  22.906  21.127   4.424
  562POPC   PO418670  22.758  21.005   4.481
  562POPC   GL118671  22.610  20.883   4.538
  562POPC   GL218672  22.619  20.832   4.453
  562POPC   C1A18673  22.462  20.761   4.596
  562POPC   D2A18674  22.315  20.639   4.653
  562POPC   C3A18675  22.167  20.517   4.711
  562POPC   C4A18676  22.019  20.395   4.768
  562POPC   C1B18677  22.596  20.640   4.683
  562POPC   C2B18678  22.448  20.518   4.740
  562POPC   C3B18679  22.300  20.396   4.798
  562POPC   C4B18680  22.153  20.274   4.855
  563POPC   NC318681  24.519  16.808  18.091
  563POPC   PO418682  24.354  16.735  18.004
  563POPC   GL118683  24.189  16.662  17.917
  563POPC   GL218684  24.183  16.744  17.860
  563POPC   C1A18685  24.024  16.590  17.830
  563POPC   D2A18686  23.860  16.517  17.742
  563POPC   C3A18687  23.695  16.445  17.655
  563POPC   C4A18688  23.530  16.372  17.568
  563POPC   C1B18689  24.137  16.501  17.690
  563POPC   C2B18690  23.972  16.429  17.603
  563POPC   C3B18691  23.808  16.356  17.516
  563POPC   C4B18692  23.643  16.283  17.429
  564POPC   NC318693  11.349  26.408  17.342
  564POPC   PO418694  11.329  26.226  17.260
  564POPC   GL118695  11.309  26.044  17.178
  564POPC   GL218696  11.371  26.007  17.247
  564POPC   C1A18697  11.290  25.863  17.097
  564POPC   D2A18698  11.270  25.681  17.015
  564POPC   C3A18699  11.251  25.500  16.934
  564POPC   C4A18700  11.231  25.318  16.852
  564POPC   C1B18701  11.134  25.826  17.217
  564POPC   C2B18702  11.115  25.644  17.135
  564POPC   C3B18703  11.095  25.462  17.054
  564POPC   C4B18704  11.075  25.281  16.972
  565POPC   NC318705  17.691  25.493  14.898
  565POPC   PO418706  17.604  25.323  14.838
  565POPC   GL118707  17.517  25.153  14.778
  565POPC   GL218708  17.556  25.165  14.687
  565POPC   C1A18709  17.430  24.983  14.718
  565POPC   D2A18710  17.344  24.813  14.659
  565POPC   C3A18711  17.257  24.643  14.599
  565POPC   C4A18712  17.170  24.473  14.539
  565POPC   C1B18713  17.593  24.880  14.773
  565POPC   C2B18714  17.506  24.710  14.714
  565POPC   C3B18715  17.419  24.540  14.654
  565POPC   C4B18716  17.333  24.370  14.594
  566POPC   NC318717  15.231  -7.196   8.531
  566POPC   PO418718  15.166  -7.008   8.549
  566POPC   GL118719  15.101  -6.820   8.567
  566POPC   GL218720  15.195  -6.789   8.584
  566POPC   C1A18721  15.036  -6.632   8.585
  566POPC   D2A18722  14.971  -6.443   8.603
  566POPC   C3A18723  14.906  -6.255   8.621
  566POPC   C4A18724  14.841  -6.067   8.639
  566POPC   C1B18725  15.062  -6.604   8.389
  566POPC   C2B18726  14.997  -6.416   8.407
  566POPC   C3B18727  14.932  -6.228   8.425
  566POPC   C4B18728  14.867  -6.039   8.443
  567POPC   NC318729   2.150   6.707  25.964
  567POPC   PO418730   2.236   6.748  25.788
  567POPC   GL118731   2.322   6.789  25.612
  567POPC   GL218732   2.353   6.694  25.605
  567POPC   C1A18733   2.408   6.830  25.436
  567POPC   D2A18734   2.494   6.871  25.261
  567POPC   C3A18735   2.580   6.912  25.085
  567POPC   C4A18736   2.666   6.953  24.909
  567POPC   C1B18737   2.239   6.781  25.342
  567POPC   C2B18738   2.325   6.822  25.166
  567POPC   C3B18739   2.411   6.863  24.991
  567POPC   C4B18740   2.497   6.904  24.815
  568POPC   NC318741  16.603  -6.741   9.332
  568POPC   PO418742  16.528  -6.556   9.341
  568POPC   GL118743  16.453  -6.371   9.350
  568POPC   GL218744  16.542  -6.334   9.323
  568POPC   C1A18745  16.377  -6.186   9.358
  568POPC   D2A18746  16.302  -6.001   9.367
  568POPC   C3A18747  16.226  -5.816   9.375
  568POPC   C4A18748  16.151  -5.631   9.384
  568POPC   C1B18749  16.326  -6.198   9.165
  568POPC   C2B18750  16.250  -6.013   9.174
  568POPC   C3B18751  16.175  -5.828   9.183
  568POPC   C4B18752  16.099  -5.643   9.191
  569POPC   NC318753  21.715  13.988  22.810
  569POPC   PO418754  21.586  13.941  22.665
  569POPC   GL118755  21.457  13.894  22.520
  569POPC   GL218756  21.449  13.991  22.496
  569POPC   C1A18757  21.328  13.847  22.374
  569POPC   D2A18758  21.198  13.801  22.229
  569POPC   C3A18759  21.069  13.754  22.083
  569POPC   C4A18760  20.940  13.707  21.938
  569POPC   C1B18761  21.479  13.828  22.245
  569POPC   C2B18762  21.350  13.782  22.100
  569POPC   C3B18763  21.221  13.735  21.955
  569POPC   C4B18764  21.092  13.688  21.809
  570POPC   NC318765  -0.350  13.037  24.450
  570POPC   PO418766  -0.235  12.999  24.291
  570POPC   GL118767  -0.120  12.961  24.132
  570POPC   GL218768  -0.043  12.941  24.192
  570POPC   C1A18769  -0.006  12.923  23.972
  570POPC   D2A18770   0.109  12.885  23.813
  570POPC   C3A18771   0.223  12.847  23.653
  570POPC   C4A18772   0.338  12.809  23.494
  570POPC   C1B18773  -0.061  12.731  23.978
  570POPC   C2B18774   0.053  12.693  23.819
  570POPC   C3B18775   0.168  12.655  23.659
  570POPC   C4B18776   0.282  12.617  23.500
  571POPC   NC318777   6.958   0.209  -5.025
  571POPC   PO418778   6.989   0.319  -4.861
  571POPC   GL118779   7.020   0.429  -4.697
  571POPC   GL218780   7.101   0.374  -4.675
  571POPC   C1A18781   7.051   0.539  -4.533
  571POPC   D2A18782   7.081   0.649  -4.368
  571POPC   C3A18783   7.112   0.759  -4.204
  571POPC   C4A18784   7.143   0.869  -4.040
  571POPC   C1B18785   7.164   0.665  -4.638
  571POPC   C2B18786   7.195   0.775  -4.474
  571POPC   C3B18787   7.226   0.885  -4.310
  571POPC   C4B18788   7.257   0.995  -4.146
  572POPC   NC318789   2.287  -4.894  16.855
  572POPC   PO418790   2.370  -4.729  16.778
  572POPC   GL118791   2.453  -4.564  16.701
  572POPC   GL218792   2.544  -4.602  16.717
  572POPC   C1A18793   2.535  -4.398  16.625
  572POPC   D2A18794   2.618  -4.233  16.548
  572POPC   C3A18795   2.700  -4.067  16.472
  572POPC   C4A18796   2.783  -3.902  16.395
  572POPC   C1B18797   2.532  -4.481  16.443
  572POPC   C2B18798   2.615  -4.315  16.366
  572POPC   C3B18799   2.697  -4.150  16.290
  572POPC   C4B18800   2.780  -3.985  16.213
  573POPC   NC318801  21.510  19.111  -0.412
  573POPC   PO418802  21.382  19.005  -0.301
  573POPC   GL118803  21.254  18.899  -0.190
  573POPC   GL218804  21.330  18.857  -0.142
  573POPC   C1A18805  21.126  18.793  -0.079
  573POPC   D2A18806  20.997  18.687   0.033
  573POPC   C3A18807  20.869  18.581   0.144
  573POPC   C4A18808  20.741  18.475   0.255
  573POPC   C1B18809  21.121  18.940   0.057
  573POPC   C2B18810  20.993  18.834   0.168
  573POPC   C3B18811  20.865  18.728   0.279
  573POPC   C4B18812  20.737  18.622   0.390
  574POPC   NC318813  11.027  27.969  10.484
  574POPC   PO418814  11.015  27.769  10.477
  574POPC   GL118815  11.003  27.569  10.470
  574POPC   GL218816  11.099  27.564  10.445
  574POPC   C1A18817  10.991  27.370  10.464
  574POPC   D2A18818  10.978  27.170  10.457
  574POPC   C3A18819  10.966  26.971  10.451
  574POPC   C4A18820  10.954  26.771  10.444
  574POPC   C1B18821  11.041  27.360  10.657
  574POPC   C2B18822  11.028  27.161  10.651
  574POPC   C3B18823  11.016  26.961  10.644
  574POPC   C4B18824  11.004  26.762  10.637
  575POPC   NC318825  11.690  21.132  -4.114
  575POPC   PO418826  11.672  21.007  -3.959
  575POPC   GL118827  11.654  20.882  -3.804
  575POPC   GL218828  11.688  20.953  -3.743
  575POPC   C1A18829  11.636  20.757  -3.649
  575POPC   D2A18830  11.619  20.631  -3.494
  575POPC   C3A18831  11.601  20.506  -3.339
  575POPC   C4A18832  11.583  20.381  -3.184
  575POPC   C1B18833  11.449  20.821  -3.619
  575POPC   C2B18834  11.432  20.695  -3.464
  575POPC   C3B18835  11.414  20.570  -3.309
  575POPC   C4B18836  11.396  20.445  -3.154
  576POPC   NC318837   7.215  19.426  -5.272
  576POPC   PO418838   7.243  19.322  -5.104
  576POPC   GL118839   7.271  19.218  -4.936
  576POPC   GL218840   7.365  19.197  -4.964
  576POPC   C1A18841   7.299  19.113  -4.768
  576POPC   D2A18842   7.328  19.009  -4.599
  576POPC   C3A18843   7.356  18.904  -4.431
  576POPC   C4A18844   7.384  18.800  -4.263
  576POPC   C1B18845   7.364  19.279  -4.676
  576POPC   C2B18846   7.392  19.174  -4.507
  576POPC   C3B18847   7.420  19.070  -4.339
  576POPC   C4B18848   7.449  18.965  -4.171
  577POPC   NC318849  -4.209  20.268  14.595
  577POPC   PO418850  -4.053  20.154  14.545
  577POPC   GL118851  -3.897  20.040  14.495
  577POPC   GL218852  -3.834  20.109  14.532
  577POPC   C1A18853  -3.740  19.926  14.445
  577POPC   D2A18854  -3.584  19.811  14.394
  577POPC   C3A18855  -3.427  19.697  14.344
  577POPC   C4A18856  -3.271  19.583  14.294
  577POPC   C1B18857  -3.748  19.836  14.623
  577POPC   C2B18858  -3.591  19.722  14.573
  577POPC   C3B18859  -3.435  19.608  14.523
  577POPC   C4B18860  -3.279  19.494  14.473
  578POPC   NC318861  14.885  27.319   9.647
  578POPC   PO418862  14.824  27.129   9.652
  578POPC   GL118863  14.763  26.939   9.657
  578POPC   GL218864  14.765  26.935   9.558
  578POPC   C1A18865  14.703  26.748   9.663
  578POPC   D2A18866  14.642  26.558   9.668
  578POPC   C3A18867  14.582  26.367   9.674
  578POPC   C4A18868  14.521  26.177   9.679
  578POPC   C1B18869  14.893  26.688   9.668
  578POPC   C2B18870  14.833  26.497   9.673
  578POPC   C3B18871  14.772  26.307   9.678
  578POPC   C4B18872  14.712  26.116   9.684
  579POPC   NC318873  11.183  -7.979  10.844
  579POPC   PO418874  11.172  -7.780  10.833
  579POPC   GL118875  11.161  -7.581  10.822
  579POPC   GL218876  11.255  -7.577  10.787
  579POPC   C1A18877  11.150  -7.381  10.811
  579POPC   D2A18878  11.139  -7.182  10.800
  579POPC   C3A18879  11.128  -6.982  10.789
  579POPC   C4A18880  11.117  -6.783  10.778
  579POPC   C1B18881  11.081  -7.395  10.624
  579POPC   C2B18882  11.070  -7.196  10.613
  579POPC   C3B18883  11.059  -6.997  10.602
  579POPC   C4B18884  11.048  -6.797  10.591
  580POPC   NC318885  -7.087  15.389   6.979
  580POPC   PO418886  -6.900  15.331   7.017
  580POPC   GL118887  -6.713  15.273   7.055
  580POPC   GL218888  -6.721  15.308   7.149
  580POPC   C1A18889  -6.525  15.215   7.094
  580POPC   D2A18890  -6.338  15.157   7.132
  580POPC   C3A18891  -6.150  15.099   7.171
  580POPC   C4A18892  -5.963  15.041   7.209
  580POPC   C1B18893  -6.593  15.037   7.155
  580POPC   C2B18894  -6.405  14.979   7.193
  580POPC   C3B18895  -6.218  14.921   7.232
  580POPC   C4B18896  -6.031  14.863   7.270
  581POPC   NC318897   3.674  -5.015   1.927
  581POPC   PO418898   3.740  -4.848   2.015
  581POPC   GL118899   3.806  -4.681   2.103
  581POPC   GL218900   3.857  -4.657   2.020
  581POPC   C1A18901   3.871  -4.513   2.191
  581POPC   D2A18902   3.937  -4.346   2.278
  581POPC   C3A18903   4.002  -4.178   2.366
  581POPC   C4A18904   4.068  -4.011   2.454
  581POPC   C1B18905   3.713  -4.414   2.120
  581POPC   C2B18906   3.778  -4.247   2.208
  581POPC   C3B18907   3.844  -4.079   2.295
  581POPC   C4B18908   3.909  -3.912   2.383
  582POPC   NC318909  23.068   8.563  22.154
  582POPC   PO418910  22.920   8.581  22.020
  582POPC   GL118911  22.772   8.599  21.886
  582POPC   GL218912  22.835   8.646  21.824
  582POPC   C1A18913  22.625   8.617  21.752
  582POPC   D2A18914  22.477   8.634  21.619
  582POPC   C3A18915  22.330   8.652  21.485
  582POPC   C4A18916  22.182   8.670  21.351
  582POPC   C1B18917  22.678   8.442  21.671
  582POPC   C2B18918  22.530   8.460  21.537
  582POPC   C3B18919  22.382   8.477  21.403
  582POPC   C4B18920  22.235   8.495  21.270
  583POPC   NC318921  19.531  23.046  17.599
  583POPC   PO418922  19.420  22.901  17.517
  583POPC   GL118923  19.309  22.756  17.435
  583POPC   GL218924  19.358  22.688  17.490
  583POPC   C1A18925  19.199  22.611  17.353
  583POPC   D2A18926  19.088  22.466  17.271
  583POPC   C3A18927  18.978  22.321  17.189
  583POPC   C4A18928  18.867  22.176  17.107
  583POPC   C1B18929  19.064  22.631  17.499
  583POPC   C2B18930  18.953  22.486  17.417
  583POPC   C3B18931  18.843  22.341  17.335
  583POPC   C4B18932  18.732  22.196  17.253
  584POPC   NC318933  10.856   5.295  27.341
  584POPC   PO418934  10.848   5.351  27.149
  584POPC   GL118935  10.840   5.407  26.957
  584POPC   GL218936  10.888   5.323  26.931
  584POPC   C1A18937  10.831   5.462  26.765
  584POPC   D2A18938  10.823   5.518  26.573
  584POPC   C3A18939  10.814   5.573  26.381
  584POPC   C4A18940  10.806   5.629  26.189
  584POPC   C1B18941  10.657   5.367  26.745
  584POPC   C2B18942  10.648   5.422  26.553
  584POPC   C3B18943  10.640   5.478  26.361
  584POPC   C4B18944  10.631   5.534  26.169
  585POPC   NC318945   6.924  25.914   1.905
  585POPC   PO418946   6.959  25.740   1.997
  585POPC   GL118947   6.994  25.566   2.089
  585POPC   GL218948   7.090  25.591   2.099
  585POPC   C1A18949   7.029  25.392   2.182
  585POPC   D2A18950   7.063  25.218   2.274
  585POPC   C3A18951   7.098  25.044   2.367
  585POPC   C4A18952   7.133  24.870   2.459
  585POPC   C1B18953   6.989  25.478   2.358
  585POPC   C2B18954   7.024  25.304   2.451
  585POPC   C3B18955   7.059  25.130   2.543
  585POPC   C4B18956   7.093  24.956   2.635
  586POPC   NC318957  17.123  -2.521  -0.885
  586POPC   PO418958  17.045  -2.382  -0.764
  586POPC   GL118959  16.967  -2.243  -0.643
  586POPC   GL218960  16.979  -2.174  -0.715
  586POPC   C1A18961  16.888  -2.104  -0.523
  586POPC   D2A18962  16.810  -1.965  -0.402
  586POPC   C3A18963  16.731  -1.826  -0.282
  586POPC   C4A18964  16.653  -1.687  -0.161
  586POPC   C1B18965  16.706  -2.145  -0.594
  586POPC   C2B18966  16.627  -2.006  -0.473
  586POPC   C3B18967  16.549  -1.867  -0.353
  586POPC   C4B18968  16.471  -1.728  -0.232
  587POPC   NC318969  -2.893   7.401  22.464
  587POPC   PO418970  -2.753   7.430  22.324
  587POPC   GL118971  -2.613   7.459  22.184
  587POPC   GL218972  -2.564   7.520  22.246
  587POPC   C1A18973  -2.473   7.488  22.044
  587POPC   D2A18974  -2.333   7.518  21.905
  587POPC   C3A18975  -2.193   7.547  21.765
  587POPC   C4A18976  -2.053   7.576  21.625
  587POPC   C1B18977  -2.370   7.332  22.115
  587POPC   C2B18978  -2.230   7.361  21.975
  587POPC   C3B18979  -2.090   7.391  21.835
  587POPC   C4B18980  -1.950   7.420  21.696
  588POPC   NC318981  15.844  -4.353   0.727
  588POPC   PO418982  15.778  -4.194   0.829
  588POPC   GL118983  15.712  -4.035   0.931
  588POPC   GL218984  15.798  -3.988   0.914
  588POPC   C1A18985  15.646  -3.876   1.033
  588POPC   D2A18986  15.579  -3.717   1.134
  588POPC   C3A18987  15.513  -3.558   1.236
  588POPC   C4A18988  15.447  -3.399   1.338
  588POPC   C1B18989  15.571  -3.799   0.864
  588POPC   C2B18990  15.504  -3.640   0.966
  588POPC   C3B18991  15.438  -3.481   1.067
  588POPC   C4B18992  15.372  -3.322   1.169
  589POPC   NC318993  19.091  -1.917  -0.046
  589POPC   PO418994  18.989  -1.785   0.063
  589POPC   GL118995  18.887  -1.653   0.172
  589POPC   GL218996  18.852  -1.610   0.089
  589POPC   C1A18997  18.784  -1.520   0.282
  589POPC   D2A18998  18.682  -1.388   0.391
  589POPC   C3A18999  18.579  -1.255   0.501
  589POPC   C4A19000  18.477  -1.123   0.610
  589POPC   C1B19001  18.627  -1.644   0.285
  589POPC   C2B19002  18.525  -1.512   0.394
  589POPC   C3B19003  18.422  -1.379   0.504
  589POPC   C4B19004  18.320  -1.247   0.613
  590POPC   NC319005  -6.510  14.013  16.520
  590POPC   PO419006  -6.330  13.970  16.444
  590POPC   GL119007  -6.150  13.927  16.368
  590POPC   GL219008  -6.119  14.019  16.390
  590POPC   C1A19009  -5.970  13.883  16.292
  590POPC   D2A19010  -5.791  13.840  16.217
  590POPC   C3A19011  -5.611  13.796  16.141
  590POPC   C4A19012  -5.431  13.753  16.065
  590POPC   C1B19013  -5.910  13.820  16.472
  590POPC   C2B19014  -5.730  13.777  16.396
  590POPC   C3B19015  -5.550  13.733  16.321
  590POPC   C4B19016  -5.370  13.690  16.245
  591POPC   NC319017  14.192  21.683  23.005
  591POPC   PO419018  14.147  21.551  22.861
  591POPC   GL119019  14.102  21.419  22.717
  591POPC   GL219020  14.190  21.437  22.674
  591POPC   C1A19021  14.056  21.288  22.574
  591POPC   D2A19022  14.011  21.156  22.430
  591POPC   C3A19023  13.965  21.025  22.287
  591POPC   C4A19024  13.920  20.893  22.143
  591POPC   C1B19025  14.139  21.141  22.682
  591POPC   C2B19026  14.094  21.010  22.538
  591POPC   C3B19027  14.048  20.878  22.395
  591POPC   C4B19028  14.003  20.746  22.251
  592POPC   NC319029  -2.568  22.135  14.844
  592POPC   PO419030  -2.429  22.002  14.789
  592POPC   GL119031  -2.290  21.869  14.734
  592POPC   GL219032  -2.314  21.812  14.813
  592POPC   C1A19033  -2.151  21.736  14.679
  592POPC   D2A19034  -2.013  21.603  14.625
  592POPC   C3A19035  -1.874  21.470  14.570
  592POPC   C4A19036  -1.735  21.337  14.515
  592POPC   C1B19037  -2.287  21.640  14.569
  592POPC   C2B19038  -2.149  21.507  14.514
  592POPC   C3B19039  -2.010  21.374  14.459
  592POPC   C4B19040  -1.871  21.241  14.405
  593POPC   NC319041   8.256  15.886  -7.067
  593POPC   PO419042   8.272  15.820  -6.879
  593POPC   GL119043   8.288  15.754  -6.691
  593POPC   GL219044   8.303  15.848  -6.659
  593POPC   C1A19045   8.304  15.688  -6.503
  593POPC   D2A19046   8.319  15.622  -6.314
  593POPC   C3A19047   8.335  15.556  -6.126
  593POPC   C4A19048   8.351  15.490  -5.938
  593POPC   C1B19049   8.107  15.712  -6.478
  593POPC   C2B19050   8.122  15.646  -6.289
  593POPC   C3B19051   8.138  15.580  -6.101
  593POPC   C4B19052   8.154  15.514  -5.913
  594POPC   NC319053  26.844  12.390  15.446
  594POPC   PO419054  26.655  12.360  15.387
  594POPC   GL119055  26.466  12.330  15.328
  594POPC   GL219056  26.472  12.410  15.269
  594POPC   C1A19057  26.277  12.299  15.270
  594POPC   D2A19058  26.089  12.269  15.211
  594POPC   C3A19059  25.900  12.238  15.153
  594POPC   C4A19060  25.711  12.208  15.094
  594POPC   C1B19061  26.342  12.184  15.120
  594POPC   C2B19062  26.154  12.153  15.061
  594POPC   C3B19063  25.965  12.123  15.003
  594POPC   C4B19064  25.776  12.093  14.944
  595POPC   NC319065  27.485   6.137   9.937
  595POPC   PO419066  27.288   6.173   9.938
  595POPC   GL119067  27.091   6.209   9.939
  595POPC   GL219068  27.110   6.308   9.939
  595POPC   C1A19069  26.895   6.246   9.940
  595POPC   D2A19070  26.698   6.282   9.940
  595POPC   C3A19071  26.502   6.319   9.941
  595POPC   C4A19072  26.305   6.355   9.942
  595POPC   C1B19073  26.894   6.246   9.740
  595POPC   C2B19074  26.697   6.282   9.740
  595POPC   C3B19075  26.501   6.318   9.741
  595POPC   C4B19076  26.304   6.355   9.742
  596POPC   NC319077  12.789  25.994  17.754
  596POPC   PO419078  12.755  25.818  17.666
  596POPC   GL119079  12.721  25.642  17.578
  596POPC   GL219080  12.818  25.635  17.554
  596POPC   C1A19081  12.687  25.465  17.490
  596POPC   D2A19082  12.653  25.289  17.402
  596POPC   C3A19083  12.619  25.112  17.314
  596POPC   C4A19084  12.585  24.936  17.226
  596POPC   C1B19085  12.724  25.372  17.663
  596POPC   C2B19086  12.690  25.195  17.575
  596POPC   C3B19087  12.656  25.019  17.487
  596POPC   C4B19088  12.622  24.842  17.399
  597POPC   NC319089   4.910  20.920  23.379
  597POPC   PO419090   4.962  20.796  23.231
  597POPC   GL119091   5.014  20.672  23.083
  597POPC   GL219092   5.060  20.613  23.149
  597POPC   C1A19093   5.066  20.548  22.935
  597POPC   D2A19094   5.117  20.423  22.787
  597POPC   C3A19095   5.169  20.299  22.639
  597POPC   C4A19096   5.221  20.175  22.491
  597POPC   C1B19097   4.896  20.445  22.962
  597POPC   C2B19098   4.948  20.321  22.814
  597POPC   C3B19099   5.000  20.196  22.666
  597POPC   C4B19100   5.052  20.072  22.518
  598POPC   NC319101   9.833  19.080  25.578
  598POPC   PO419102   9.831  18.979  25.405
  598POPC   GL119103   9.829  18.878  25.232
  598POPC   GL219104   9.897  18.941  25.195
  598POPC   C1A19105   9.828  18.778  25.059
  598POPC   D2A19106   9.826  18.677  24.887
  598POPC   C3A19107   9.825  18.577  24.714
  598POPC   C4A19108   9.823  18.476  24.541
  598POPC   C1B19109   9.974  18.659  25.127
  598POPC   C2B19110   9.973  18.559  24.954
  598POPC   C3B19111   9.971  18.458  24.781
  598POPC   C4B19112   9.969  18.358  24.608
  599POPC   NC319113   7.443   9.862  27.778
  599POPC   PO419114   7.475   9.856  27.581
  599POPC   GL119115   7.507   9.850  27.384
  599POPC   GL219116   7.598   9.890  27.397
  599POPC   C1A19117   7.539   9.845  27.186
  599POPC   D2A19118   7.572   9.839  26.989
  599POPC   C3A19119   7.604   9.834  26.791
  599POPC   C4A19120   7.636   9.828  26.594
  599POPC   C1B19121   7.616   9.661  27.204
  599POPC   C2B19122   7.649   9.655  27.007
  599POPC   C3B19123   7.681   9.650  26.809
  599POPC   C4B19124   7.713   9.644  26.612
  600POPC   NC319125   3.620   9.298  -7.005
  600POPC   PO419126   3.689   9.305  -6.817
  600POPC   GL119127   3.758   9.312  -6.629
  600POPC   GL219128   3.700   9.392  -6.611
  600POPC   C1A19129   3.827   9.319  -6.442
  600POPC   D2A19130   3.895   9.327  -6.254
  600POPC   C3A19131   3.964   9.334  -6.067
  600POPC   C4A19132   4.033   9.341  -5.879
  600POPC   C1B19133   3.678   9.199  -6.383
  600POPC   C2B19134   3.747   9.206  -6.195
  600POPC   C3B19135   3.816   9.213  -6.008
  600POPC   C4B19136   3.885   9.220  -5.820
  601POPC   NC319137  -1.847  -1.523  17.498
  601POPC   PO419138  -1.717  -1.396  17.414
  601POPC   GL119139  -1.587  -1.269  17.330
  601POPC   GL219140  -1.585  -1.215  17.415
  601POPC   C1A19141  -1.457  -1.142  17.246
  601POPC   D2A19142  -1.328  -1.015  17.163
  601POPC   C3A19143  -1.198  -0.888  17.079
  601POPC   C4A19144  -1.068  -0.761  16.995
  601POPC   C1B19145  -1.305  -1.253  17.314
  601POPC   C2B19146  -1.175  -1.126  17.230
  601POPC   C3B19147  -1.046  -0.999  17.146
  601POPC   C4B19148  -0.916  -0.872  17.063
  602POPC   NC319149  16.338  -6.599   7.112
  602POPC   PO419150  16.265  -6.416   7.144
  602POPC   GL119151  16.192  -6.233   7.176
  602POPC   GL219152  16.255  -6.221   7.253
  602POPC   C1A19153  16.119  -6.049   7.209
  602POPC   D2A19154  16.047  -5.866   7.241
  602POPC   C3A19155  15.974  -5.682   7.274
  602POPC   C4A19156  15.901  -5.499   7.306
  602POPC   C1B19157  16.256  -5.973   7.085
  602POPC   C2B19158  16.184  -5.790   7.117
  602POPC   C3B19159  16.111  -5.606   7.150
  602POPC   C4B19160  16.038  -5.423   7.182
  603POPC   NC319161   4.679  -2.231  22.191
  603POPC   PO419162   4.736  -2.093  22.058
  603POPC   GL119163   4.793  -1.955  21.925
  603POPC   GL219164   4.804  -1.889  21.998
  603POPC   C1A19165   4.850  -1.818  21.791
  603POPC   D2A19166   4.908  -1.680  21.658
  603POPC   C3A19167   4.965  -1.543  21.524
  603POPC   C4A19168   5.022  -1.405  21.391
  603POPC   C1B19169   5.041  -1.875  21.814
  603POPC   C2B19170   5.098  -1.737  21.680
  603POPC   C3B19171   5.155  -1.600  21.547
  603POPC   C4B19172   5.212  -1.462  21.414
  604POPC   NC319173  11.263   3.359  -6.781
  604POPC   PO419174  11.250   3.430  -6.594
  604POPC   GL119175  11.237   3.501  -6.407
  604POPC   GL219176  11.309   3.568  -6.428
  604POPC   C1A19177  11.224   3.572  -6.221
  604POPC   D2A19178  11.212   3.642  -6.034
  604POPC   C3A19179  11.199   3.713  -5.848
  604POPC   C4A19180  11.186   3.784  -5.661
  604POPC   C1B19181  11.085   3.702  -6.280
  604POPC   C2B19182  11.072   3.773  -6.093
  604POPC   C3B19183  11.060   3.844  -5.907
  604POPC   C4B19184  11.047   3.915  -5.720
  605POPC   NC319185  27.152  14.281  12.713
  605POPC   PO419186  26.960  14.236  12.682
  605POPC   GL119187  26.768  14.191  12.651
  605POPC   GL219188  26.794  14.103  12.612
  605POPC   C1A19189  26.575  14.146  12.621
  605POPC   D2A19190  26.383  14.101  12.590
  605POPC   C3A19191  26.190  14.056  12.560
  605POPC   C4A19192  25.998  14.011  12.529
  605POPC   C1B19193  26.566  14.063  12.802
  605POPC   C2B19194  26.374  14.018  12.772
  605POPC   C3B19195  26.181  13.973  12.741
  605POPC   C4B19196  25.989  13.928  12.710
  606POPC   NC319197  10.613  14.459  -7.532
  606POPC   PO419198  10.603  14.408  -7.339
  606POPC   GL119199  10.593  14.357  -7.146
  606POPC   GL219200  10.673  14.298  -7.157
  606POPC   C1A19201  10.583  14.306  -6.953
  606POPC   D2A19202  10.572  14.254  -6.760
  606POPC   C3A19203  10.562  14.203  -6.567
  606POPC   C4A19204  10.552  14.152  -6.374
  606POPC   C1B19205  10.702  14.459  -6.906
  606POPC   C2B19206  10.692  14.408  -6.713
  606POPC   C3B19207  10.682  14.357  -6.520
  606POPC   C4B19208  10.672  14.305  -6.327
  607POPC   NC319209  12.998  -7.369  13.815
  607POPC   PO419210  12.964  -7.177  13.771
  607POPC   GL119211  12.930  -6.985  13.727
  607POPC   GL219212  12.988  -6.993  13.646
  607POPC   C1A19213  12.896  -6.793  13.683
  607POPC   D2A19214  12.861  -6.600  13.640
  607POPC   C3A19215  12.827  -6.408  13.596
  607POPC   C4A19216  12.793  -6.216  13.552
  607POPC   C1B19217  12.736  -6.846  13.575
  607POPC   C2B19218  12.702  -6.653  13.531
  607POPC   C3B19219  12.668  -6.461  13.487
  607POPC   C4B19220  12.634  -6.269  13.443
  608POPC   NC319221   1.176  24.286   3.347
  608POPC   PO419222   1.276  24.128   3.419
  608POPC   GL119223   1.376  23.970   3.491
  608POPC   GL219224   1.458  24.026   3.498
  608POPC   C1A19225   1.475  23.812   3.563
  608POPC   D2A19226   1.575  23.655   3.635
  608POPC   C3A19227   1.674  23.497   3.707
  608POPC   C4A19228   1.774  23.339   3.779
  608POPC   C1B19229   1.424  23.865   3.749
  608POPC   C2B19230   1.524  23.708   3.821
  608POPC   C3B19231   1.624  23.550   3.893
  608POPC   C4B19232   1.723  23.392   3.965
  609POPC   NC319233   7.556   1.931  25.854
  609POPC   PO419234   7.584   2.015  25.675
  609POPC   GL119235   7.612   2.099  25.496
  609POPC   GL219236   7.710   2.109  25.515
  609POPC   C1A19237   7.640   2.183  25.316
  609POPC   D2A19238   7.668   2.267  25.137
  609POPC   C3A19239   7.696   2.351  24.957
  609POPC   C4A19240   7.724   2.435  24.778
  609POPC   C1B19241   7.674   2.003  25.237
  609POPC   C2B19242   7.702   2.087  25.057
  609POPC   C3B19243   7.730   2.171  24.878
  609POPC   C4B19244   7.758   2.255  24.699
  610POPC   NC319245  -1.972  23.594  11.169
  610POPC   PO419246  -1.841  23.443  11.161
  610POPC   GL119247  -1.710  23.292  11.153
  610POPC   GL219248  -1.643  23.348  11.202
  610POPC   C1A19249  -1.579  23.141  11.146
  610POPC   D2A19250  -1.447  22.991  11.138
  610POPC   C3A19251  -1.316  22.840  11.131
  610POPC   C4A19252  -1.185  22.689  11.123
  610POPC   C1B19253  -1.647  23.073  11.321
  610POPC   C2B19254  -1.516  22.922  11.313
  610POPC   C3B19255  -1.385  22.771  11.306
  610POPC   C4B19256  -1.253  22.621  11.298
  611POPC   NC319257  19.668  -0.936  -0.586
  611POPC   PO419258  19.556  -0.817  -0.470
  611POPC   GL119259  19.444  -0.698  -0.354
  611POPC   GL219260  19.367  -0.711  -0.417
  611POPC   C1A19261  19.332  -0.580  -0.239
  611POPC   D2A19262  19.220  -0.461  -0.123
  611POPC   C3A19263  19.108  -0.343  -0.008
  611POPC   C4A19264  18.996  -0.224   0.108
  611POPC   C1B19265  19.272  -0.739  -0.134
  611POPC   C2B19266  19.160  -0.620  -0.018
  611POPC   C3B19267  19.048  -0.502   0.098
  611POPC   C4B19268  18.936  -0.383   0.213
  612POPC   NC319269  17.069  22.236  21.109
  612POPC   PO419270  16.991  22.098  20.988
  612POPC   GL119271  16.913  21.960  20.867
  612POPC   GL219272  16.985  21.896  20.893
  612POPC   C1A19273  16.835  21.821  20.745
  612POPC   D2A19274  16.757  21.683  20.624
  612POPC   C3A19275  16.679  21.544  20.502
  612POPC   C4A19276  16.601  21.406  20.381
  612POPC   C1B19277  16.720  21.754  20.895
  612POPC   C2B19278  16.642  21.616  20.774
  612POPC   C3B19279  16.564  21.478  20.652
  612POPC   C4B19280  16.486  21.339  20.531
  613POPC   NC319281  -7.981  12.975  10.197
  613POPC   PO419282  -7.784  12.940  10.196
  613POPC   GL119283  -7.587  12.905  10.195
  613POPC   GL219284  -7.588  12.896  10.295
  613POPC   C1A19285  -7.390  12.870  10.194
  613POPC   D2A19286  -7.193  12.836  10.194
  613POPC   C3A19287  -6.996  12.801  10.193
  613POPC   C4A19288  -6.799  12.766  10.192
  613POPC   C1B19289  -7.425  12.674  10.175
  613POPC   C2B19290  -7.228  12.640  10.174
  613POPC   C3B19291  -7.031  12.605  10.173
  613POPC   C4B19292  -6.834  12.570  10.172
  614POPC   NC319293  23.682  -1.028   6.280
  614POPC   PO419294  23.528  -0.907   6.320
  614POPC   GL119295  23.374  -0.786   6.360
  614POPC   GL219296  23.380  -0.748   6.268
  614POPC   C1A19297  23.220  -0.665   6.400
  614POPC   D2A19298  23.065  -0.544   6.439
  614POPC   C3A19299  22.911  -0.423   6.479
  614POPC   C4A19300  22.757  -0.302   6.519
  614POPC   C1B19301  23.093  -0.805   6.333
  614POPC   C2B19302  22.939  -0.684   6.373
  614POPC   C3B19303  22.784  -0.563   6.413
  614POPC   C4B19304  22.630  -0.442   6.453
  615POPC   NC319305  11.009  23.623  21.696
  615POPC   PO419306  10.993  23.472  21.566
  615POPC   GL119307  10.977  23.321  21.436
  615POPC   GL219308  10.982  23.255  21.511
  615POPC   C1A19309  10.960  23.170  21.306
  615POPC   D2A19310  10.944  23.019  21.175
  615POPC   C3A19311  10.927  22.868  21.045
  615POPC   C4A19312  10.911  22.717  20.915
  615POPC   C1B19313  10.761  23.175  21.325
  615POPC   C2B19314  10.745  23.024  21.195
  615POPC   C3B19315  10.728  22.873  21.065
  615POPC   C4B19316  10.712  22.722  20.935
  616POPC   NC319317  11.218  11.831  -8.003
  616POPC   PO419318  11.203  11.806  -7.805
  616POPC   GL119319  11.188  11.781  -7.607
  616POPC   GL219320  11.262  11.714  -7.610
  616POPC   C1A19321  11.173  11.756  -7.409
  616POPC   D2A19322  11.159  11.732  -7.211
  616POPC   C3A19323  11.144  11.707  -7.013
  616POPC   C4A19324  11.129  11.682  -6.815
  616POPC   C1B19325  11.307  11.903  -7.381
  616POPC   C2B19326  11.292  11.878  -7.183
  616POPC   C3B19327  11.277  11.853  -6.985
  616POPC   C4B19328  11.262  11.829  -6.787
  617POPC   NC319329  21.257  -4.011   8.947
  617POPC   PO419330  21.131  -3.856   8.958
  617POPC   GL119331  21.005  -3.701   8.969
  617POPC   GL219332  20.975  -3.719   8.875
  617POPC   C1A19333  20.879  -3.546   8.980
  617POPC   D2A19334  20.752  -3.392   8.990
  617POPC   C3A19335  20.626  -3.237   9.001
  617POPC   C4A19336  20.500  -3.082   9.012
  617POPC   C1B19337  20.735  -3.668   9.048
  617POPC   C2B19338  20.609  -3.513   9.058
  617POPC   C3B19339  20.483  -3.359   9.069
  617POPC   C4B19340  20.357  -3.204   9.080
  618POPC   NC319341  12.420   0.489  25.091
  618POPC   PO419342  12.393   0.599  24.926
  618POPC   GL119343  12.366   0.709  24.761
  618POPC   GL219344  12.418   0.784  24.802
  618POPC   C1A19345  12.338   0.819  24.596
  618POPC   D2A19346  12.311   0.929  24.432
  618POPC   C3A19347  12.283   1.039  24.267
  618POPC   C4A19348  12.256   1.149  24.102
  618POPC   C1B19349  12.507   0.745  24.519
  618POPC   C2B19350  12.480   0.855  24.354
  618POPC   C3B19351  12.452   0.965  24.189
  618POPC   C4B19352  12.425   1.075  24.025
  619POPC   NC319353  -7.554  14.706   8.902
  619POPC   PO419354  -7.361  14.654   8.915
  619POPC   GL119355  -7.168  14.602   8.928
  619POPC   GL219356  -7.195  14.511   8.958
  619POPC   C1A19357  -6.975  14.550   8.941
  619POPC   D2A19358  -6.783  14.499   8.953
  619POPC   C3A19359  -6.590  14.447   8.966
  619POPC   C4A19360  -6.397  14.395   8.979
  619POPC   C1B19361  -6.979  14.489   8.750
  619POPC   C2B19362  -6.787  14.437   8.763
  619POPC   C3B19363  -6.594  14.385   8.776
  619POPC   C4B19364  -6.401  14.333   8.789
  620POPC   NC319365  22.009  11.956  -3.268
  620POPC   PO419366  21.872  11.935  -3.124
  620POPC   GL119367  21.735  11.914  -2.980
  620POPC   GL219368  21.730  11.816  -2.999
  620POPC   C1A19369  21.598  11.894  -2.835
  620POPC   D2A19370  21.462  11.873  -2.691
  620POPC   C3A19371  21.325  11.853  -2.546
  620POPC   C4A19372  21.188  11.832  -2.402
  620POPC   C1B19373  21.744  11.860  -2.702
  620POPC   C2B19374  21.607  11.839  -2.558
  620POPC   C3B19375  21.470  11.819  -2.413
  620POPC   C4B19376  21.333  11.798  -2.269
  621POPC   NC319377   4.439  27.231   9.148
  621POPC   PO419378   4.500  27.041   9.157
  621POPC   GL119379   4.561  26.851   9.166
  621POPC   GL219380   4.585  26.863   9.262
  621POPC   C1A19381   4.622  26.660   9.174
  621POPC   D2A19382   4.682  26.470   9.183
  621POPC   C3A19383   4.743  26.279   9.191
  621POPC   C4A19384   4.804  26.089   9.200
  621POPC   C1B19385   4.437  26.604   9.228
  621POPC   C2B19386   4.498  26.413   9.237
  621POPC   C3B19387   4.559  26.223   9.245
  621POPC   C4B19388   4.620  26.033   9.254
  622POPC   NC319389  -5.378   3.983  17.676
  622POPC   PO419390  -5.210   4.055  17.595
  622POPC   GL119391  -5.042   4.127  17.514
  622POPC   GL219392  -5.014   4.034  17.489
  622POPC   C1A19393  -4.874   4.198  17.432
  622POPC   D2A19394  -4.706   4.270  17.351
  622POPC   C3A19395  -4.538   4.341  17.269
  622POPC   C4A19396  -4.370   4.413  17.188
  622POPC   C1B19397  -4.967   4.217  17.256
  622POPC   C2B19398  -4.799   4.289  17.175
  622POPC   C3B19399  -4.631   4.360  17.094
  622POPC   C4B19400  -4.463   4.432  17.012
  623POPC   NC319401   6.867  -4.887   0.181
  623POPC   PO419402   6.898  -4.721   0.289
  623POPC   GL119403   6.929  -4.555   0.397
  623POPC   GL219404   6.994  -4.523   0.328
  623POPC   C1A19405   6.960  -4.389   0.504
  623POPC   D2A19406   6.990  -4.224   0.612
  623POPC   C3A19407   7.021  -4.058   0.719
  623POPC   C4A19408   7.052  -3.892   0.827
  623POPC   C1B19409   6.812  -4.298   0.405
  623POPC   C2B19410   6.843  -4.132   0.513
  623POPC   C3B19411   6.873  -3.966   0.621
  623POPC   C4B19412   6.904  -3.800   0.728
  624POPC   NC319413  21.023   5.700  -3.588
  624POPC   PO419414  20.900   5.750  -3.438
  624POPC   GL119415  20.777   5.800  -3.288
  624POPC   GL219416  20.708   5.736  -3.324
  624POPC   C1A19417  20.654   5.849  -3.138
  624POPC   D2A19418  20.532   5.899  -2.989
  624POPC   C3A19419  20.409   5.948  -2.839
  624POPC   C4A19420  20.286   5.998  -2.689
  624POPC   C1B19421  20.731   5.702  -3.027
  624POPC   C2B19422  20.609   5.752  -2.877
  624POPC   C3B19423  20.486   5.802  -2.727
  624POPC   C4B19424  20.363   5.851  -2.577
  625POPC   NC319425  13.144  22.468  22.528
  625POPC   PO419426  13.110  22.327  22.390
  625POPC   GL119427  13.076  22.186  22.252
  625POPC   GL219428  13.154  22.134  22.287
  625POPC   C1A19429  13.043  22.045  22.114
  625POPC   D2A19430  13.009  21.904  21.977
  625POPC   C3A19431  12.976  21.763  21.839
  625POPC   C4A19432  12.942  21.622  21.701
  625POPC   C1B19433  12.921  21.950  22.242
  625POPC   C2B19434  12.888  21.809  22.104
  625POPC   C3B19435  12.854  21.668  21.966
  625POPC   C4B19436  12.821  21.527  21.828
  626POPC   NC319437  -5.901   1.922  13.328
  626POPC   PO419438  -5.726   2.010  13.289
  626POPC   GL119439  -5.551   2.098  13.250
  626POPC   GL219440  -5.517   2.013  13.209
  626POPC   C1A19441  -5.375   2.186  13.211
  626POPC   D2A19442  -5.200   2.273  13.172
  626POPC   C3A19443  -5.024   2.361  13.133
  626POPC   C4A19444  -4.849   2.449  13.094
  626POPC   C1B19445  -5.444   2.244  13.032
  626POPC   C2B19446  -5.269   2.332  12.993
  626POPC   C3B19447  -5.093   2.419  12.954
  626POPC   C4B19448  -4.918   2.507  12.915
  627POPC   NC319449  13.189  27.607  12.002
  627POPC   PO419450  13.155  27.411  11.977
  627POPC   GL119451  13.121  27.215  11.952
  627POPC   GL219452  13.209  27.206  11.905
  627POPC   C1A19453  13.087  27.020  11.927
  627POPC   D2A19454  13.053  26.824  11.902
  627POPC   C3A19455  13.019  26.629  11.877
  627POPC   C4A19456  12.985  26.433  11.852
  627POPC   C1B19457  13.176  26.982  12.102
  627POPC   C2B19458  13.142  26.786  12.077
  627POPC   C3B19459  13.108  26.591  12.052
  627POPC   C4B19460  13.074  26.395  12.027
  628POPC   NC319461  25.499   6.637  18.224
  628POPC   PO419462  25.327   6.674  18.129
  628POPC   GL119463  25.155   6.711  18.034
  628POPC   GL219464  25.177   6.809  18.032
  628POPC   C1A19465  24.983   6.749  17.939
  628POPC   D2A19466  24.812   6.786  17.843
  628POPC   C3A19467  24.640   6.824  17.748
  628POPC   C4A19468  24.468   6.861  17.653
  628POPC   C1B19469  25.076   6.724  17.763
  628POPC   C2B19470  24.904   6.762  17.668
  628POPC   C3B19471  24.732   6.799  17.572
  628POPC   C4B19472  24.560   6.837  17.477
  629POPC   NC319473  24.908   0.907  14.116
  629POPC   PO419474  24.743   1.009  14.069
  629POPC   GL119475  24.578   1.111  14.022
  629POPC   GL219476  24.585   1.080  13.927
  629POPC   C1A19477  24.413   1.213  13.975
  629POPC   D2A19478  24.247   1.316  13.927
  629POPC   C3A19479  24.082   1.418  13.880
  629POPC   C4A19480  23.917   1.520  13.833
  629POPC   C1B19481  24.301   1.054  14.019
  629POPC   C2B19482  24.136   1.156  13.972
  629POPC   C3B19483  23.971   1.258  13.925
  629POPC   C4B19484  23.805   1.360  13.878
  630POPC   NC319485  25.439  15.646   2.721
  630POPC   PO419486  25.267  15.583   2.802
  630POPC   GL119487  25.095  15.520   2.883
  630POPC   GL219488  25.047  15.595   2.838
  630POPC   C1A19489  24.923  15.458   2.964
  630POPC   D2A19490  24.752  15.395   3.045
  630POPC   C3A19491  24.580  15.333   3.126
  630POPC   C4A19492  24.408  15.270   3.207
  630POPC   C1B19493  24.891  15.341   2.805
  630POPC   C2B19494  24.719  15.278   2.886
  630POPC   C3B19495  24.548  15.216   2.967
  630POPC   C4B19496  24.376  15.153   3.048
  631POPC   NC319497  -3.590  21.643   6.660
  631POPC   PO419498  -3.445  21.511   6.697
  631POPC   GL119499  -3.300  21.379   6.734
  631POPC   GL219500  -3.320  21.384   6.832
  631POPC   C1A19501  -3.154  21.247   6.770
  631POPC   D2A19502  -3.009  21.114   6.807
  631POPC   C3A19503  -2.863  20.982   6.843
  631POPC   C4A19504  -2.718  20.850   6.880
  631POPC   C1B19505  -3.286  21.097   6.751
  631POPC   C2B19506  -3.140  20.965   6.788
  631POPC   C3B19507  -2.995  20.833   6.824
  631POPC   C4B19508  -2.849  20.700   6.861
  632POPC   NC319509   3.164  17.515  -5.045
  632POPC   PO419510   3.238  17.433  -4.879
  632POPC   GL119511   3.312  17.351  -4.713
  632POPC   GL219512   3.327  17.442  -4.674
  632POPC   C1A19513   3.386  17.268  -4.546
  632POPC   D2A19514   3.461  17.186  -4.380
  632POPC   C3A19515   3.535  17.103  -4.213
  632POPC   C4A19516   3.609  17.021  -4.047
  632POPC   C1B19517   3.203  17.263  -4.467
  632POPC   C2B19518   3.277  17.181  -4.300
  632POPC   C3B19519   3.351  17.099  -4.134
  632POPC   C4B19520   3.426  17.016  -3.967
  633POPC   NC319521  16.641   2.375  -5.028
  633POPC   PO419522  16.563   2.453  -4.861
  633POPC   GL119523  16.485   2.531  -4.694
  633POPC   GL219524  16.395   2.535  -4.738
  633POPC   C1A19525  16.406   2.609  -4.528
  633POPC   D2A19526  16.328   2.688  -4.361
  633POPC   C3A19527  16.249   2.766  -4.195
  633POPC   C4A19528  16.171   2.844  -4.028
  633POPC   C1B19529  16.366   2.425  -4.461
  633POPC   C2B19530  16.287   2.504  -4.294
  633POPC   C3B19531  16.209   2.582  -4.127
  633POPC   C4B19532  16.130   2.660  -3.961
  634POPC   NC319533  14.500  -7.382  11.821
  634POPC   PO419534  14.448  -7.190  11.798
  634POPC   GL119535  14.396  -6.998  11.775
  634POPC   GL219536  14.395  -7.010  11.676
  634POPC   C1A19537  14.344  -6.806  11.752
  634POPC   D2A19538  14.291  -6.615  11.729
  634POPC   C3A19539  14.239  -6.423  11.706
  634POPC   C4A19540  14.187  -6.231  11.683
  634POPC   C1B19541  14.151  -6.858  11.761
  634POPC   C2B19542  14.098  -6.666  11.738
  634POPC   C3B19543  14.046  -6.474  11.715
  634POPC   C4B19544  13.994  -6.282  11.692
  635POPC   NC319545   8.216  -2.102  23.271
  635POPC   PO419546   8.232  -1.967  23.125
  635POPC   GL119547   8.248  -1.832  22.979
  635POPC   GL219548   8.319  -1.784  23.031
  635POPC   C1A19549   8.264  -1.696  22.833
  635POPC   D2A19550   8.280  -1.561  22.686
  635POPC   C3A19551   8.296  -1.425  22.540
  635POPC   C4A19552   8.312  -1.290  22.394
  635POPC   C1B19553   8.404  -1.809  22.744
  635POPC   C2B19554   8.420  -1.673  22.598
  635POPC   C3B19555   8.436  -1.538  22.451
  635POPC   C4B19556   8.452  -1.402  22.305
  636POPC   NC319557  23.015  11.814  22.129
  636POPC   PO419558  22.873  11.790  21.990
  636POPC   GL119559  22.731  11.766  21.851
  636POPC   GL219560  22.793  11.802  21.781
  636POPC   C1A19561  22.589  11.743  21.712
  636POPC   D2A19562  22.446  11.719  21.574
  636POPC   C3A19563  22.304  11.696  21.435
  636POPC   C4A19564  22.162  11.672  21.296
  636POPC   C1B19565  22.654  11.557  21.677
  636POPC   C2B19566  22.512  11.534  21.538
  636POPC   C3B19567  22.370  11.510  21.399
  636POPC   C4B19568  22.228  11.487  21.260
  637POPC   NC319569  -5.363   5.131  18.521
  637POPC   PO419570  -5.195   5.183  18.425
  637POPC   GL119571  -5.027   5.235  18.329
  637POPC   GL219572  -4.974   5.216  18.412
  637POPC   C1A19573  -4.860   5.287  18.233
  637POPC   D2A19574  -4.692   5.339  18.137
  637POPC   C3A19575  -4.525   5.391  18.041
  637POPC   C4A19576  -4.357   5.443  17.945
  637POPC   C1B19577  -4.835   5.097  18.174
  637POPC   C2B19578  -4.667   5.149  18.078
  637POPC   C3B19579  -4.499   5.201  17.982
  637POPC   C4B19580  -4.332   5.253  17.886
  638POPC   NC319581  23.210   7.218  -1.938
  638POPC   PO419582  23.061   7.245  -1.807
  638POPC   GL119583  22.912   7.272  -1.676
  638POPC   GL219584  22.854   7.308  -1.750
  638POPC   C1A19585  22.763   7.299  -1.546
  638POPC   D2A19586  22.614   7.325  -1.415
  638POPC   C3A19587  22.465   7.352  -1.285
  638POPC   C4A19588  22.316   7.379  -1.154
  638POPC   C1B19589  22.697   7.114  -1.583
  638POPC   C2B19590  22.548   7.140  -1.453
  638POPC   C3B19591  22.399   7.167  -1.322
  638POPC   C4B19592  22.250   7.194  -1.192
  639POPC   NC319593  15.391  18.130  25.043
  639POPC   PO419594  15.332  18.041  24.874
  639POPC   GL119595  15.273  17.952  24.705
  639POPC   GL219596  15.297  17.862  24.744
  639POPC   C1A19597  15.215  17.862  24.536
  639POPC   D2A19598  15.156  17.773  24.367
  639POPC   C3A19599  15.098  17.683  24.198
  639POPC   C4A19600  15.039  17.594  24.029
  639POPC   C1B19601  15.030  17.845  24.609
  639POPC   C2B19602  14.971  17.756  24.440
  639POPC   C3B19603  14.912  17.666  24.271
  639POPC   C4B19604  14.854  17.577  24.102
  640POPC   NC319605   4.709  -1.624  -2.893
  640POPC   PO419606   4.767  -1.494  -2.752
  640POPC   GL119607   4.825  -1.364  -2.611
  640POPC   GL219608   4.775  -1.417  -2.542
  640POPC   C1A19609   4.882  -1.234  -2.470
  640POPC   D2A19610   4.940  -1.105  -2.330
  640POPC   C3A19611   4.997  -0.975  -2.189
  640POPC   C4A19612   5.055  -0.845  -2.048
  640POPC   C1B19613   5.046  -1.344  -2.437
  640POPC   C2B19614   5.104  -1.214  -2.296
  640POPC   C3B19615   5.162  -1.084  -2.155
  640POPC   C4B19616   5.219  -0.954  -2.015
  641POPC   NC319617  24.378  -0.596  11.927
  641POPC   PO419618  24.218  -0.479  11.901
  641POPC   GL119619  24.058  -0.362  11.875
  641POPC   GL219620  24.110  -0.283  11.908
  641POPC   C1A19621  23.898  -0.244  11.849
  641POPC   D2A19622  23.739  -0.127  11.824
  641POPC   C3A19623  23.579  -0.009  11.798
  641POPC   C4A19624  23.419   0.108  11.772
  641POPC   C1B19625  23.958  -0.205  11.663
  641POPC   C2B19626  23.798  -0.087  11.637
  641POPC   C3B19627  23.638   0.030  11.611
  641POPC   C4B19628  23.478   0.148  11.585
  642POPC   NC319629  27.630  12.983  10.582
  642POPC   PO419630  27.432  12.955  10.572
  642POPC   GL119631  27.234  12.927  10.562
  642POPC   GL219632  27.232  12.976  10.475
  642POPC   C1A19633  27.036  12.899  10.552
  642POPC   D2A19634  26.839  12.870  10.542
  642POPC   C3A19635  26.641  12.842  10.532
  642POPC   C4A19636  26.443  12.814  10.522
  642POPC   C1B19637  27.066  12.726  10.455
  642POPC   C2B19638  26.868  12.698  10.445
  642POPC   C3B19639  26.670  12.670  10.435
  642POPC   C4B19640  26.473  12.642  10.425
  643POPC   NC319641  -2.758  22.684   7.612
  643POPC   PO419642  -2.624  22.538   7.639
  643POPC   GL119643  -2.490  22.392   7.666
  643POPC   GL219644  -2.447  22.444   7.739
  643POPC   C1A19645  -2.357  22.245   7.692
  643POPC   D2A19646  -2.223  22.099   7.719
  643POPC   C3A19647  -2.090  21.952   7.745
  643POPC   C4A19648  -1.956  21.806   7.772
  643POPC   C1B19649  -2.478  22.159   7.826
  643POPC   C2B19650  -2.344  22.013   7.853
  643POPC   C3B19651  -2.211  21.866   7.879
  643POPC   C4B19652  -2.077  21.720   7.906
  644POPC   NC319653  18.906  16.310  24.129
  644POPC   PO419654  18.797  16.243  23.976
  644POPC   GL119655  18.688  16.176  23.823
  644POPC   GL219656  18.770  16.172  23.766
  644POPC   C1A19657  18.578  16.108  23.669
  644POPC   D2A19658  18.469  16.041  23.516
  644POPC   C3A19659  18.359  15.973  23.362
  644POPC   C4A19660  18.250  15.906  23.209
  644POPC   C1B19661  18.611  15.920  23.729
  644POPC   C2B19662  18.501  15.853  23.575
  644POPC   C3B19663  18.392  15.785  23.422
  644POPC   C4B19664  18.282  15.718  23.269
  645POPC   NC319665  17.563   8.025  26.143
  645POPC   PO419666  17.484   8.052  25.961
  645POPC   GL119667  17.405   8.079  25.779
  645POPC   GL219668  17.470   8.153  25.762
  645POPC   C1A19669  17.326   8.106  25.597
  645POPC   D2A19670  17.247   8.133  25.416
  645POPC   C3A19671  17.168   8.160  25.234
  645POPC   C4A19672  17.089   8.187  25.052
  645POPC   C1B19673  17.455   7.973  25.522
  645POPC   C2B19674  17.376   8.000  25.340
  645POPC   C3B19675  17.297   8.027  25.158
  645POPC   C4B19676  17.218   8.054  24.976
  646POPC   NC319677  -1.027   3.652  -2.962
  646POPC   PO419678  -0.909   3.727  -2.819
  646POPC   GL119679  -0.791   3.802  -2.676
  646POPC   GL219680  -0.871   3.817  -2.618
  646POPC   C1A19681  -0.673   3.877  -2.533
  646POPC   D2A19682  -0.555   3.951  -2.389
  646POPC   C3A19683  -0.437   4.026  -2.246
  646POPC   C4A19684  -0.319   4.101  -2.103
  646POPC   C1B19685  -0.651   3.694  -2.455
  646POPC   C2B19686  -0.533   3.768  -2.312
  646POPC   C3B19687  -0.415   3.843  -2.168
  646POPC   C4B19688  -0.297   3.918  -2.025
  647POPC   NC319689  -1.350  -3.173   4.610
  647POPC   PO419690  -1.225  -3.027   4.664
  647POPC   GL119691  -1.100  -2.881   4.718
  647POPC   GL219692  -1.082  -2.929   4.805
  647POPC   C1A19693  -0.974  -2.735   4.773
  647POPC   D2A19694  -0.849  -2.590   4.827
  647POPC   C3A19695  -0.723  -2.444   4.882
  647POPC   C4A19696  -0.598  -2.298   4.936
  647POPC   C1B19697  -0.822  -2.834   4.688
  647POPC   C2B19698  -0.697  -2.688   4.742
  647POPC   C3B19699  -0.572  -2.543   4.797
  647POPC   C4B19700  -0.446  -2.397   4.851
  648POPC   NC319701  22.533  14.776  21.761
  648POPC   PO419702  22.397  14.723  21.624
  648POPC   GL119703  22.261  14.670  21.487
  648POPC   GL219704  22.333  14.661  21.419
  648POPC   C1A19705  22.125  14.617  21.350
  648POPC   D2A19706  21.990  14.563  21.214
  648POPC   C3A19707  21.854  14.510  21.077
  648POPC   C4A19708  21.718  14.457  20.940
  648POPC   C1B19709  22.151  14.425  21.400
  648POPC   C2B19710  22.015  14.371  21.263
  648POPC   C3B19711  21.879  14.318  21.127
  648POPC   C4B19712  21.743  14.265  20.990
  649POPC   NC319713   3.277  18.331  -4.679
  649POPC   PO419714   3.351  18.245  -4.514
  649POPC   GL119715   3.425  18.159  -4.349
  649POPC   GL219716   3.416  18.245  -4.300
  649POPC   C1A19717   3.499  18.072  -4.185
  649POPC   D2A19718   3.572  17.986  -4.020
  649POPC   C3A19719   3.646  17.899  -3.856
  649POPC   C4A19720   3.720  17.813  -3.691
  649POPC   C1B19721   3.314  18.022  -4.128
  649POPC   C2B19722   3.387  17.935  -3.964
  649POPC   C3B19723   3.461  17.849  -3.799
  649POPC   C4B19724   3.535  17.763  -3.634
  650POPC   NC319725  26.623   6.772   4.013
  650POPC   PO419726  26.437   6.806   4.077
  650POPC   GL119727  26.251   6.840   4.141
  650POPC   GL219728  26.258   6.935   4.110
  650POPC   C1A19729  26.064   6.875   4.204
  650POPC   D2A19730  25.878   6.909   4.268
  650POPC   C3A19731  25.691   6.944   4.331
  650POPC   C4A19732  25.505   6.978   4.395
  650POPC   C1B19733  25.993   6.822   4.025
  650POPC   C2B19734  25.807   6.856   4.089
  650POPC   C3B19735  25.620   6.890   4.152
  650POPC   C4B19736  25.434   6.925   4.216
  651POPC   NC319737  19.935  22.448  18.079
  651POPC   PO419738  19.821  22.307  17.993
  651POPC   GL119739  19.707  22.166  17.907
  651POPC   GL219740  19.773  22.096  17.935
  651POPC   C1A19741  19.594  22.026  17.821
  651POPC   D2A19742  19.480  21.885  17.736
  651POPC   C3A19743  19.367  21.745  17.650
  651POPC   C4A19744  19.253  21.604  17.564
  651POPC   C1B19745  19.495  22.001  17.993
  651POPC   C2B19746  19.381  21.860  17.908
  651POPC   C3B19747  19.268  21.720  17.822
  651POPC   C4B19748  19.154  21.579  17.736
  652POPC   NC319749  17.877  12.534  -6.042
  652POPC   PO419750  17.786  12.511  -5.866
  652POPC   GL119751  17.695  12.488  -5.690
  652POPC   GL219752  17.629  12.425  -5.732
  652POPC   C1A19753  17.603  12.465  -5.513
  652POPC   D2A19754  17.512  12.442  -5.337
  652POPC   C3A19755  17.420  12.419  -5.160
  652POPC   C4A19756  17.329  12.396  -4.984
  652POPC   C1B19757  17.724  12.311  -5.471
  652POPC   C2B19758  17.632  12.288  -5.294
  652POPC   C3B19759  17.541  12.265  -5.118
  652POPC   C4B19760  17.449  12.242  -4.942
  653POPC   NC319761  24.407   6.692  -0.278
  653POPC   PO419762  24.245   6.725  -0.165
  653POPC   GL119763  24.083   6.758  -0.052
  653POPC   GL219764  24.029   6.774  -0.134
  653POPC   C1A19765  23.922   6.791   0.061
  653POPC   D2A19766  23.760   6.825   0.175
  653POPC   C3A19767  23.599   6.858   0.288
  653POPC   C4A19768  23.437   6.891   0.401
  653POPC   C1B19769  23.877   6.597   0.054
  653POPC   C2B19770  23.715   6.630   0.167
  653POPC   C3B19771  23.553   6.663   0.280
  653POPC   C4B19772  23.392   6.696   0.393
  654POPC   NC319773  11.260  -0.401  -4.742
  654POPC   PO419774  11.242  -0.287  -4.579
  654POPC   GL119775  11.224  -0.173  -4.416
  654POPC   GL219776  11.299  -0.116  -4.447
  654POPC   C1A19777  11.206  -0.059  -4.252
  654POPC   D2A19778  11.188   0.055  -4.089
  654POPC   C3A19779  11.170   0.169  -3.925
  654POPC   C4A19780  11.152   0.283  -3.762
  654POPC   C1B19781  11.076   0.059  -4.349
  654POPC   C2B19782  11.058   0.173  -4.185
  654POPC   C3B19783  11.040   0.287  -4.022
  654POPC   C4B19784  11.022   0.401  -3.858
  655POPC   NC319785  27.036   4.553   8.559
  655POPC   PO419786  26.846   4.613   8.574
  655POPC   GL119787  26.656   4.673   8.589
  655POPC   GL219788  26.638   4.639   8.497
  655POPC   C1A19789  26.466   4.733   8.604
  655POPC   D2A19790  26.275   4.792   8.620
  655POPC   C3A19791  26.085   4.852   8.635
  655POPC   C4A19792  25.895   4.912   8.650
  655POPC   C1B19793  26.415   4.554   8.679
  655POPC   C2B19794  26.225   4.614   8.694
  655POPC   C3B19795  26.035   4.674   8.709
  655POPC   C4B19796  25.845   4.733   8.724
  656POPC   NC319797  22.644  10.161  22.667
  656POPC   PO419798  22.504  10.156  22.524
  656POPC   GL119799  22.364  10.151  22.381
  656POPC   GL219800  22.428  10.194  22.317
  656POPC   C1A19801  22.224  10.146  22.238
  656POPC   D2A19802  22.084  10.141  22.096
  656POPC   C3A19803  21.944  10.136  21.953
  656POPC   C4A19804  21.804  10.131  21.810
  656POPC   C1B19805  22.289   9.966  22.181
  656POPC   C2B19806  22.149   9.961  22.038
  656POPC   C3B19807  22.009   9.956  21.895
  656POPC   C4B19808  21.869   9.951  21.753
  657POPC   NC319809  14.112   8.521  -7.594
  657POPC   PO419810  14.061   8.538  -7.401
  657POPC   GL119811  14.010   8.555  -7.208
  657POPC   GL219812  14.031   8.653  -7.212
  657POPC   C1A19813  13.959   8.573  -7.016
  657POPC   D2A19814  13.907   8.590  -6.823
  657POPC   C3A19815  13.856   8.608  -6.631
  657POPC   C4A19816  13.805   8.625  -6.438
  657POPC   C1B19817  13.770   8.612  -7.069
  657POPC   C2B19818  13.719   8.630  -6.877
  657POPC   C3B19819  13.668   8.647  -6.684
  657POPC   C4B19820  13.616   8.665  -6.492
  658POPC   NC319821  -2.618   6.239  22.417
  658POPC   PO419822  -2.485   6.286  22.276
  658POPC   GL119823  -2.352   6.333  22.135
  658POPC   GL219824  -2.298   6.384  22.202
  658POPC   C1A19825  -2.218   6.380  21.993
  658POPC   D2A19826  -2.085   6.427  21.852
  658POPC   C3A19827  -1.951   6.474  21.710
  658POPC   C4A19828  -1.818   6.521  21.569
  658POPC   C1B19829  -2.115   6.214  22.036
  658POPC   C2B19830  -1.981   6.261  21.895
  658POPC   C3B19831  -1.848   6.308  21.753
  658POPC   C4B19832  -1.714   6.355  21.612
  659POPC   NC319833   2.408  -0.571  22.598
  659POPC   PO419834   2.494  -0.454  22.460
  659POPC   GL119835   2.580  -0.337  22.322
  659POPC   GL219836   2.640  -0.299  22.393
  659POPC   C1A19837   2.666  -0.220  22.185
  659POPC   D2A19838   2.752  -0.104  22.047
  659POPC   C3A19839   2.838   0.013  21.910
  659POPC   C4A19840   2.924   0.130  21.772
  659POPC   C1B19841   2.801  -0.364  22.147
  659POPC   C2B19842   2.887  -0.247  22.010
  659POPC   C3B19843   2.973  -0.130  21.872
  659POPC   C4B19844   3.059  -0.013  21.734
  660POPC   NC319845  14.658  27.361   9.020
  660POPC   PO419846  14.601  27.170   9.031
  660POPC   GL119847  14.544  26.979   9.042
  660POPC   GL219848  14.547  26.972   8.943
  660POPC   C1A19849  14.487  26.787   9.053
  660POPC   D2A19850  14.429  26.596   9.065
  660POPC   C3A19851  14.372  26.404   9.076
  660POPC   C4A19852  14.315  26.213   9.087
  660POPC   C1B19853  14.678  26.730   9.062
  660POPC   C2B19854  14.621  26.539   9.074
  660POPC   C3B19855  14.564  26.348   9.085
  660POPC   C4B19856  14.507  26.156   9.096
  661POPC   NC319857   3.888   1.803  -5.049
  661POPC   PO419858   3.959   1.895  -4.886
  661POPC   GL119859   4.030   1.987  -4.723
  661POPC   GL219860   4.118   1.943  -4.736
  661POPC   C1A19861   4.101   2.080  -4.561
  661POPC   D2A19862   4.171   2.172  -4.398
  661POPC   C3A19863   4.242   2.265  -4.236
  661POPC   C4A19864   4.313   2.357  -4.073
  661POPC   C1B19865   4.161   2.233  -4.674
  661POPC   C2B19866   4.232   2.325  -4.512
  661POPC   C3B19867   4.303   2.418  -4.349
  661POPC   C4B19868   4.374   2.510  -4.186
  662POPC   NC319869   4.548   5.461  26.579
  662POPC   PO419870   4.598   5.514  26.393
  662POPC   GL119871   4.648   5.567  26.207
  662POPC   GL219872   4.651   5.663  26.235
  662POPC   C1A19873   4.697   5.620  26.020
  662POPC   D2A19874   4.747   5.674  25.834
  662POPC   C3A19875   4.796   5.727  25.647
  662POPC   C4A19876   4.846   5.780  25.461
  662POPC   C1B19877   4.891   5.600  26.066
  662POPC   C2B19878   4.940   5.653  25.880
  662POPC   C3B19879   4.990   5.707  25.693
  662POPC   C4B19880   5.040   5.760  25.507
  663POPC   NC319881  -4.681  20.020   5.994
  663POPC   PO419882  -4.520  19.912   6.042
  663POPC   GL119883  -4.359  19.804   6.090
  663POPC   GL219884  -4.408  19.764   6.167
  663POPC   C1A19885  -4.198  19.696   6.138
  663POPC   D2A19886  -4.036  19.587   6.185
  663POPC   C3A19887  -3.875  19.479   6.233
  663POPC   C4A19888  -3.714  19.371   6.281
  663POPC   C1B19889  -4.262  19.547   6.020
  663POPC   C2B19890  -4.101  19.439   6.067
  663POPC   C3B19891  -3.940  19.331   6.115
  663POPC   C4B19892  -3.778  19.223   6.163
  664POPC   NC319893  -3.307  -1.165   4.643
  664POPC   PO419894  -3.159  -1.042   4.697
  664POPC   GL119895  -3.011  -0.919   4.751
  664POPC   GL219896  -3.032  -0.937   4.848
  664POPC   C1A19897  -2.862  -0.797   4.805
  664POPC   D2A19898  -2.714  -0.674   4.860
  664POPC   C3A19899  -2.565  -0.552   4.914
  664POPC   C4A19900  -2.417  -0.429   4.968
  664POPC   C1B19901  -2.735  -0.951   4.806
  664POPC   C2B19902  -2.586  -0.828   4.860
  664POPC   C3B19903  -2.438  -0.706   4.914
  664POPC   C4B19904  -2.290  -0.583   4.968
  665POPC   NC319905  27.505  11.666  13.157
  665POPC   PO419906  27.308  11.648  13.125
  665POPC   GL119907  27.111  11.630  13.093
  665POPC   GL219908  27.113  11.713  13.037
  665POPC   C1A19909  26.915  11.611  13.061
  665POPC   D2A19910  26.718  11.593  13.028
  665POPC   C3A19911  26.522  11.574  12.996
  665POPC   C4A19912  26.325  11.556  12.964
  665POPC   C1B19913  26.952  11.501  12.898
  665POPC   C2B19914  26.755  11.482  12.866
  665POPC   C3B19915  26.559  11.464  12.834
  665POPC   C4B19916  26.362  11.446  12.801
  666POPC   NC319917  -3.139  -1.081   4.029
  666POPC   PO419918  -2.993  -0.959   4.090
  666POPC   GL119919  -2.847  -0.837   4.151
  666POPC   GL219920  -2.810  -0.910   4.208
  666POPC   C1A19921  -2.701  -0.715   4.211
  666POPC   D2A19922  -2.554  -0.592   4.272
  666POPC   C3A19923  -2.408  -0.470   4.332
  666POPC   C4A19924  -2.262  -0.348   4.393
  666POPC   C1B19925  -2.586  -0.777   4.060
  666POPC   C2B19926  -2.440  -0.654   4.120
  666POPC   C3B19927  -2.294  -0.532   4.181
  666POPC   C4B19928  -2.147  -0.410   4.241
  667POPC   NC319929   0.178  23.771   3.674
  667POPC   PO419930   0.286  23.617   3.743
  667POPC   GL119931   0.394  23.463   3.812
  667POPC   GL219932   0.477  23.516   3.800
  667POPC   C1A19933   0.501  23.309   3.881
  667POPC   D2A19934   0.609  23.156   3.950
  667POPC   C3A19935   0.716  23.002   4.019
  667POPC   C4A19936   0.824  22.848   4.088
  667POPC   C1B19937   0.484  23.381   4.067
  667POPC   C2B19938   0.591  23.227   4.136
  667POPC   C3B19939   0.699  23.073   4.205
  667POPC   C4B19940   0.806  22.919   4.274
  668POPC   NC319941   9.311  20.245  -4.911
  668POPC   PO419942   9.315  20.127  -4.749
  668POPC   GL119943   9.319  20.009  -4.587
  668POPC   GL219944   9.418  20.021  -4.581
  668POPC   C1A19945   9.323  19.891  -4.426
  668POPC   D2A19946   9.327  19.774  -4.264
  668POPC   C3A19947   9.331  19.656  -4.103
  668POPC   C4A19948   9.335  19.538  -3.941
  668POPC   C1B19949   9.297  20.051  -4.309
  668POPC   C2B19950   9.301  19.934  -4.147
  668POPC   C3B19951   9.305  19.816  -3.985
  668POPC   C4B19952   9.309  19.698  -3.824
  669POPC   NC319953  -0.213  -1.855  19.152
  669POPC   PO419954  -0.102  -1.724  19.050
  669POPC   GL119955   0.009  -1.593  18.948
  669POPC   GL219956   0.085  -1.608  19.011
  669POPC   C1A19957   0.120  -1.461  18.846
  669POPC   D2A19958   0.231  -1.330  18.744
  669POPC   C3A19959   0.342  -1.198  18.642
  669POPC   C4A19960   0.453  -1.067  18.540
  669POPC   C1B19961   0.187  -1.609  18.729
  669POPC   C2B19962   0.298  -1.477  18.627
  669POPC   C3B19963   0.409  -1.346  18.525
  669POPC   C4B19964   0.520  -1.214  18.423
  670POPC   NC319965   4.054   4.335  -6.252
  670POPC   PO419966   4.119   4.396  -6.073
  670POPC   GL119967   4.184   4.457  -5.894
  670POPC   GL219968   4.275   4.424  -5.916
  670POPC   C1A19969   4.248   4.519  -5.715
  670POPC   D2A19970   4.313   4.580  -5.536
  670POPC   C3A19971   4.377   4.642  -5.357
  670POPC   C4A19972   4.442   4.703  -5.178
  670POPC   C1B19973   4.296   4.697  -5.793
  670POPC   C2B19974   4.360   4.758  -5.614
  670POPC   C3B19975   4.425   4.820  -5.435
  670POPC   C4B19976   4.489   4.881  -5.256
  671POPC   NC319977  12.320  12.467  -7.792
  671POPC   PO419978  12.292  12.436  -7.596
  671POPC   GL119979  12.264  12.405  -7.400
  671POPC   GL219980  12.267  12.306  -7.416
  671POPC   C1A19981  12.236  12.373  -7.205
  671POPC   D2A19982  12.209  12.342  -7.009
  671POPC   C3A19983  12.181  12.310  -6.814
  671POPC   C4A19984  12.153  12.279  -6.618
  671POPC   C1B19985  12.434  12.375  -7.177
  671POPC   C2B19986  12.407  12.343  -6.981
  671POPC   C3B19987  12.379  12.312  -6.785
  671POPC   C4B19988  12.351  12.280  -6.590
  672POPC   NC319989  10.200  -2.606  22.820
  672POPC   PO419990  10.190  -2.464  22.679
  672POPC   GL119991  10.180  -2.322  22.538
  672POPC   GL219992  10.189  -2.252  22.609
  672POPC   C1A19993  10.170  -2.181  22.397
  672POPC   D2A19994  10.159  -2.039  22.257
  672POPC   C3A19995  10.149  -1.898  22.116
  672POPC   C4A19996  10.139  -1.756  21.975
  672POPC   C1B19997  10.369  -2.186  22.377
  672POPC   C2B19998  10.358  -2.045  22.237
  672POPC   C3B19999  10.348  -1.903  22.096
  672POPC   C4B20000  10.338  -1.761  21.955
  673POPC   NC320001   5.587  -7.243   6.596
  673POPC   PO420002   5.634  -7.052   6.634
  673POPC   GL120003   5.681  -6.861   6.672
  673POPC   GL220004   5.763  -6.870   6.616
  673POPC   C1A20005   5.728  -6.670   6.710
  673POPC   D2A20006   5.774  -6.480   6.748
  673POPC   C3A20007   5.821  -6.289   6.786
  673POPC   C4A20008   5.868  -6.098   6.824
  673POPC   C1B20009   5.625  -6.613   6.548
  673POPC   C2B20010   5.672  -6.422   6.586
  673POPC   C3B20011   5.718  -6.231   6.624
  673POPC   C4B20012   5.765  -6.041   6.662
  674POPC   NC320013  25.037   6.097   0.898
  674POPC   PO420014  24.869   6.138   0.998
  674POPC   GL120015  24.701   6.179   1.098
  674POPC   GL220016  24.649   6.173   1.013
  674POPC   C1A20017  24.533   6.220   1.198
  674POPC   D2A20018  24.364   6.260   1.299
  674POPC   C3A20019  24.196   6.301   1.399
  674POPC   C4A20020  24.028   6.342   1.499
  674POPC   C1B20021  24.504   6.024   1.230
  674POPC   C2B20022  24.336   6.065   1.330
  674POPC   C3B20023  24.168   6.106   1.430
  674POPC   C4B20024  23.999   6.147   1.530
  675POPC   NC320025   4.555  -4.920  18.684
  675POPC   PO420026   4.614  -4.756  18.586
  675POPC   GL120027   4.673  -4.592  18.488
  675POPC   GL220028   4.746  -4.578  18.555
  675POPC   C1A20029   4.732  -4.428  18.390
  675POPC   D2A20030   4.792  -4.265  18.291
  675POPC   C3A20031   4.851  -4.101  18.193
  675POPC   C4A20032   4.910  -3.937  18.095
  675POPC   C1B20033   4.856  -4.540  18.279
  675POPC   C2B20034   4.915  -4.376  18.180
  675POPC   C3B20035   4.974  -4.212  18.082
  675POPC   C4B20036   5.034  -4.048  17.984
  676POPC   NC320037  -2.179  22.855   6.174
  676POPC   PO420038  -2.051  22.707   6.216
  676POPC   GL120039  -1.923  22.559   6.258
  676POPC   GL220040  -1.849  22.611   6.217
  676POPC   C1A20041  -1.796  22.411   6.300
  676POPC   D2A20042  -1.668  22.262   6.341
  676POPC   C3A20043  -1.541  22.114   6.383
  676POPC   C4A20044  -1.413  21.966   6.425
  676POPC   C1B20045  -1.757  22.494   6.477
  676POPC   C2B20046  -1.630  22.346   6.519
  676POPC   C3B20047  -1.502  22.198   6.561
  676POPC   C4B20048  -1.374  22.049   6.603
  677POPC   NC320049  21.811  -3.500  11.137
  677POPC   PO420050  21.680  -3.350  11.122
  677POPC   GL120051  21.549  -3.200  11.107
  677POPC   GL220052  21.610  -3.141  11.160
  677POPC   C1A20053  21.418  -3.050  11.092
  677POPC   D2A20054  21.286  -2.899  11.077
  677POPC   C3A20055  21.155  -2.749  11.062
  677POPC   C4A20056  21.024  -2.599  11.047
  677POPC   C1B20057  21.507  -2.989  10.924
  677POPC   C2B20058  21.376  -2.838  10.909
  677POPC   C3B20059  21.244  -2.688  10.894
  677POPC   C4B20060  21.113  -2.538  10.879
  678POPC   NC320061  -1.373   0.880  20.700
  678POPC   PO420062  -1.249   0.979  20.578
  678POPC   GL120063  -1.125   1.078  20.456
  678POPC   GL220064  -1.049   1.021  20.487
  678POPC   C1A20065  -1.001   1.176  20.334
  678POPC   D2A20066  -0.878   1.275  20.211
  678POPC   C3A20067  -0.754   1.373  20.089
  678POPC   C4A20068  -0.630   1.472  19.967
  678POPC   C1B20069  -1.041   1.045  20.188
  678POPC   C2B20070  -0.917   1.143  20.066
  678POPC   C3B20071  -0.793   1.242  19.944
  678POPC   C4B20072  -0.669   1.341  19.821
  679POPC   NC320073  26.562  15.573   5.927
  679POPC   PO420074  26.378  15.505   5.967
  679POPC   GL120075  26.194  15.437   6.007
  679POPC   GL220076  26.171  15.444   5.910
  679POPC   C1A20077  26.010  15.370   6.047
  679POPC   D2A20078  25.826  15.302   6.086
  679POPC   C3A20079  25.642  15.235   6.126
  679POPC   C4A20080  25.458  15.167   6.166
  679POPC   C1B20081  26.073  15.182   6.019
  679POPC   C2B20082  25.889  15.114   6.058
  679POPC   C3B20083  25.705  15.047   6.098
  679POPC   C4B20084  25.521  14.979   6.138
  680POPC   NC320085   2.338   4.177  -5.466
  680POPC   PO420086   2.422   4.242  -5.297
  680POPC   GL120087   2.506   4.307  -5.128
  680POPC   GL220088   2.576   4.236  -5.135
  680POPC   C1A20089   2.590   4.372  -4.958
  680POPC   D2A20090   2.675   4.438  -4.789
  680POPC   C3A20091   2.759   4.503  -4.619
  680POPC   C4A20092   2.843   4.568  -4.450
  680POPC   C1B20093   2.706   4.497  -5.064
  680POPC   C2B20094   2.790   4.562  -4.894
  680POPC   C3B20095   2.874   4.627  -4.725
  680POPC   C4B20096   2.959   4.693  -4.555
  681POPC   NC320097   6.339  23.701  -1.178
  681POPC   PO420098   6.376  23.548  -1.055
  681POPC   GL120099   6.413  23.395  -0.932
  681POPC   GL220100   6.493  23.444  -0.895
  681POPC   C1A20101   6.451  23.242  -0.809
  681POPC   D2A20102   6.488  23.089  -0.685
  681POPC   C3A20103   6.526  22.936  -0.562
  681POPC   C4A20104   6.563  22.783  -0.439
  681POPC   C1B20105   6.335  23.326  -0.669
  681POPC   C2B20106   6.373  23.173  -0.546
  681POPC   C3B20107   6.410  23.020  -0.422
  681POPC   C4B20108   6.447  22.867  -0.299
  682POPC   NC320109   5.508  16.797  -6.215
  682POPC   PO420110   5.557  16.720  -6.037
  682POPC   GL120111   5.606  16.643  -5.859
  682POPC   GL220112   5.604  16.735  -5.819
  682POPC   C1A20113   5.655  16.567  -5.681
  682POPC   D2A20114   5.704  16.490  -5.502
  682POPC   C3A20115   5.753  16.414  -5.324
  682POPC   C4A20116   5.802  16.337  -5.146
  682POPC   C1B20117   5.461  16.544  -5.637
  682POPC   C2B20118   5.510  16.468  -5.459
  682POPC   C3B20119   5.559  16.391  -5.281
  682POPC   C4B20120   5.608  16.314  -5.103
  683POPC   NC320121   1.004  24.520  15.835
  683POPC   PO420122   1.102  24.358  15.770
  683POPC   GL120123   1.200  24.196  15.705
  683POPC   GL220124   1.247  24.252  15.636
  683POPC   C1A20125   1.297  24.034  15.640
  683POPC   D2A20126   1.395  23.872  15.575
  683POPC   C3A20127   1.492  23.710  15.510
  683POPC   C4A20128   1.590  23.548  15.445
  683POPC   C1B20129   1.445  24.070  15.770
  683POPC   C2B20130   1.542  23.908  15.705
  683POPC   C3B20131   1.640  23.746  15.640
  683POPC   C4B20132   1.737  23.584  15.575
  684POPC   NC320133   4.787  18.403  25.141
  684POPC   PO420134   4.842  18.306  24.975
  684POPC   GL120135   4.897  18.209  24.809
  684POPC   GL220136   4.982  18.180  24.854
  684POPC   C1A20137   4.953  18.112  24.643
  684POPC   D2A20138   5.008  18.015  24.478
  684POPC   C3A20139   5.064  17.918  24.312
  684POPC   C4A20140   5.119  17.821  24.146
  684POPC   C1B20141   4.861  17.947  24.709
  684POPC   C2B20142   4.916  17.850  24.543
  684POPC   C3B20143   4.972  17.753  24.378
  684POPC   C4B20144   5.027  17.656  24.212
  685POPC   NC320145  -3.127   5.511  21.647
  685POPC   PO420146  -2.988   5.564  21.514
  685POPC   GL120147  -2.849   5.617  21.381
  685POPC   GL220148  -2.813   5.685  21.445
  685POPC   C1A20149  -2.709   5.670  21.248
  685POPC   D2A20150  -2.570   5.723  21.114
  685POPC   C3A20151  -2.430   5.776  20.981
  685POPC   C4A20152  -2.291   5.829  20.848
  685POPC   C1B20153  -2.585   5.533  21.324
  685POPC   C2B20154  -2.445   5.586  21.191
  685POPC   C3B20155  -2.306   5.639  21.057
  685POPC   C4B20156  -2.166   5.692  20.924
  686POPC   NC320157  -6.189  13.417  17.510
  686POPC   PO420158  -6.012  13.378  17.425
  686POPC   GL120159  -5.835  13.339  17.340
  686POPC   GL220160  -5.804  13.296  17.425
  686POPC   C1A20161  -5.659  13.300  17.255
  686POPC   D2A20162  -5.482  13.260  17.169
  686POPC   C3A20163  -5.306  13.221  17.084
  686POPC   C4A20164  -5.129  13.182  16.999
  686POPC   C1B20165  -5.728  13.123  17.192
  686POPC   C2B20166  -5.552  13.084  17.107
  686POPC   C3B20167  -5.375  13.044  17.022
  686POPC   C4B20168  -5.198  13.005  16.936
  687POPC   NC320169  12.625   2.399  -6.217
  687POPC   PO420170  12.596   2.484  -6.038
  687POPC   GL120171  12.567   2.569  -5.859
  687POPC   GL220172  12.665   2.581  -5.849
  687POPC   C1A20173  12.538   2.654  -5.681
  687POPC   D2A20174  12.508   2.740  -5.502
  687POPC   C3A20175  12.479   2.825  -5.324
  687POPC   C4A20176  12.450   2.910  -5.145
  687POPC   C1B20177  12.524   2.834  -5.769
  687POPC   C2B20178  12.495   2.919  -5.590
  687POPC   C3B20179  12.466   3.004  -5.411
  687POPC   C4B20180  12.437   3.089  -5.233
  688POPC   NC320181  15.872  -4.506   0.992
  688POPC   PO420182  15.805  -4.345   1.090
  688POPC   GL120183  15.738  -4.184   1.188
  688POPC   GL220184  15.821  -4.134   1.162
  688POPC   C1A20185  15.671  -4.023   1.286
  688POPC   D2A20186  15.603  -3.862   1.383
  688POPC   C3A20187  15.536  -3.701   1.481
  688POPC   C4A20188  15.469  -3.540   1.579
  688POPC   C1B20189  15.580  -3.959   1.119
  688POPC   C2B20190  15.513  -3.798   1.217
  688POPC   C3B20191  15.446  -3.637   1.314
  688POPC   C4B20192  15.379  -3.476   1.412
  689POPC   NC320193   2.468   8.416  -6.481
  689POPC   PO420194   2.550   8.432  -6.299
  689POPC   GL120195   2.632   8.448  -6.117
  689POPC   GL220196   2.600   8.356  -6.095
  689POPC   C1A20197   2.714   8.464  -5.935
  689POPC   D2A20198   2.795   8.480  -5.754
  689POPC   C3A20199   2.877   8.496  -5.572
  689POPC   C4A20200   2.959   8.512  -5.390
  689POPC   C1B20201   2.885   8.388  -6.006
  689POPC   C2B20202   2.967   8.404  -5.824
  689POPC   C3B20203   3.048   8.420  -5.642
  689POPC   C4B20204   3.130   8.436  -5.460
  690POPC   NC320205  -7.844  12.824   7.967
  690POPC   PO420206  -7.648  12.794   7.995
  690POPC   GL120207  -7.452  12.764   8.023
  690POPC   GL220208  -7.473  12.695   8.092
  690POPC   C1A20209  -7.256  12.733   8.050
  690POPC   D2A20210  -7.061  12.703   8.078
  690POPC   C3A20211  -6.865  12.672   8.105
  690POPC   C4A20212  -6.669  12.642   8.133
  690POPC   C1B20213  -7.259  12.591   7.910
  690POPC   C2B20214  -7.063  12.561   7.937
  690POPC   C3B20215  -6.867  12.530   7.965
  690POPC   C4B20216  -6.671  12.500   7.992
  691POPC   NC320217  -4.113  21.393  10.937
  691POPC   PO420218  -3.958  21.267  10.925
  691POPC   GL120219  -3.803  21.141  10.913
  691POPC   GL220220  -3.761  21.185  10.992
  691POPC   C1A20221  -3.649  21.015  10.900
  691POPC   D2A20222  -3.494  20.888  10.888
  691POPC   C3A20223  -3.340  20.762  10.875
  691POPC   C4A20224  -3.185  20.636  10.863
  691POPC   C1B20225  -3.743  20.887  11.021
  691POPC   C2B20226  -3.589  20.761  11.009
  691POPC   C3B20227  -3.434  20.634  10.997
  691POPC   C4B20228  -3.280  20.508  10.984
  692POPC   NC320229  24.799  18.440   4.452
  692POPC   PO420230  24.633  18.342   4.505
  692POPC   GL120231  24.467  18.244   4.558
  692POPC   GL220232  24.449  18.222   4.462
  692POPC   C1A20233  24.301  18.147   4.612
  692POPC   D2A20234  24.134  18.049   4.665
  692POPC   C3A20235  23.968  17.952   4.719
  692POPC   C4A20236  23.802  17.854   4.772
  692POPC   C1B20237  24.406  17.978   4.632
  692POPC   C2B20238  24.240  17.880   4.685
  692POPC   C3B20239  24.074  17.783   4.739
  692POPC   C4B20240  23.907  17.685   4.792
  693POPC   NC320241  11.747  -0.803  -4.392
  693POPC   PO420242  11.724  -0.685  -4.232
  693POPC   GL120243  11.701  -0.567  -4.072
  693POPC   GL220244  11.800  -0.552  -4.069
  693POPC   C1A20245  11.679  -0.449  -3.912
  693POPC   D2A20246  11.656  -0.330  -3.753
  693POPC   C3A20247  11.634  -0.212  -3.593
  693POPC   C4A20248  11.611  -0.094  -3.433
  693POPC   C1B20249  11.658  -0.290  -4.033
  693POPC   C2B20250  11.635  -0.172  -3.873
  693POPC   C3B20251  11.613  -0.054  -3.713
  693POPC   C4B20252  11.590   0.064  -3.553
  694POPC   NC320253  10.003   5.164  -7.411
  694POPC   PO420254  10.004   5.219  -7.219
  694POPC   GL120255  10.005   5.274  -7.027
  694POPC   GL220256  10.089   5.326  -7.042
  694POPC   C1A20257  10.006   5.329  -6.834
  694POPC   D2A20258  10.007   5.383  -6.642
  694POPC   C3A20259  10.008   5.438  -6.449
  694POPC   C4A20260  10.009   5.493  -6.257
  694POPC   C1B20261   9.898   5.490  -6.880
  694POPC   C2B20262   9.899   5.545  -6.687
  694POPC   C3B20263   9.900   5.600  -6.495
  694POPC   C4B20264   9.901   5.655  -6.303
  695POPC   NC320265  -4.396  16.734  18.809
  695POPC   PO420266  -4.239  16.657  18.712
  695POPC   GL120267  -4.082  16.580  18.615
  695POPC   GL220268  -4.066  16.517  18.691
  695POPC   C1A20269  -3.925  16.503  18.517
  695POPC   D2A20270  -3.769  16.425  18.420
  695POPC   C3A20271  -3.612  16.348  18.322
  695POPC   C4A20272  -3.455  16.271  18.225
  695POPC   C1B20273  -4.045  16.368  18.431
  695POPC   C2B20274  -3.889  16.291  18.334
  695POPC   C3B20275  -3.732  16.213  18.236
  695POPC   C4B20276  -3.575  16.136  18.139
  696POPC   NC320277  -7.699  12.789   7.050
  696POPC   PO420278  -7.505  12.759   7.086
  696POPC   GL120279  -7.311  12.729   7.122
  696POPC   GL220280  -7.326  12.748   7.219
  696POPC   C1A20281  -7.116  12.699   7.158
  696POPC   D2A20282  -6.922  12.670   7.194
  696POPC   C3A20283  -6.727  12.640   7.230
  696POPC   C4A20284  -6.533  12.610   7.266
  696POPC   C1B20285  -7.152  12.505   7.190
  696POPC   C2B20286  -6.958  12.475   7.226
  696POPC   C3B20287  -6.763  12.446   7.262
  696POPC   C4B20288  -6.569  12.416   7.298
  697POPC   NC320289   0.197  13.903  -4.758
  697POPC   PO420290   0.306  13.863  -4.595
  697POPC   GL120291   0.415  13.823  -4.432
  697POPC   GL220292   0.333  13.832  -4.375
  697POPC   C1A20293   0.523  13.783  -4.269
  697POPC   D2A20294   0.632  13.744  -4.105
  697POPC   C3A20295   0.740  13.704  -3.942
  697POPC   C4A20296   0.849  13.664  -3.779
  697POPC   C1B20297   0.486  13.588  -4.291
  697POPC   C2B20298   0.594  13.548  -4.128
  697POPC   C3B20299   0.703  13.509  -3.965
  697POPC   C4B20300   0.811  13.469  -3.801
  698POPC   NC320301  22.044   3.914  -1.877
  698POPC   PO420302  21.911   3.986  -1.746
  698POPC   GL120303  21.778   4.058  -1.615
  698POPC   GL220304  21.730   4.105  -1.689
  698POPC   C1A20305  21.645   4.130  -1.484
  698POPC   D2A20306  21.512   4.201  -1.353
  698POPC   C3A20307  21.379   4.273  -1.222
  698POPC   C4A20308  21.246   4.345  -1.091
  698POPC   C1B20309  21.530   3.969  -1.513
  698POPC   C2B20310  21.397   4.040  -1.382
  698POPC   C3B20311  21.264   4.112  -1.251
  698POPC   C4B20312  21.131   4.184  -1.120
  699POPC   NC320313   5.414  25.602  17.851
  699POPC   PO420314   5.464  25.428  17.767
  699POPC   GL120315   5.514  25.254  17.683
  699POPC   GL220316   5.591  25.298  17.637
  699POPC   C1A20317   5.564  25.079  17.599
  699POPC   D2A20318   5.615  24.905  17.515
  699POPC   C3A20319   5.665  24.730  17.431
  699POPC   C4A20320   5.715  24.556  17.347
  699POPC   C1B20321   5.681  25.037  17.756
  699POPC   C2B20322   5.732  24.863  17.672
  699POPC   C3B20323   5.782  24.689  17.588
  699POPC   C4B20324   5.832  24.514  17.504
  700POPC   NC320325   6.766  -7.579  12.720
  700POPC   PO420326   6.799  -7.384  12.691
  700POPC   GL120327   6.832  -7.189  12.662
  700POPC   GL220328   6.884  -7.185  12.748
  700POPC   C1A20329   6.864  -6.994  12.634
  700POPC   D2A20330   6.897  -6.798  12.605
  700POPC   C3A20331   6.929  -6.603  12.577
  700POPC   C4A20332   6.962  -6.408  12.548
  700POPC   C1B20333   7.032  -7.036  12.533
  700POPC   C2B20334   7.064  -6.841  12.505
  700POPC   C3B20335   7.097  -6.646  12.476
  700POPC   C4B20336   7.130  -6.451  12.447
  701POPC   NC320337  -1.102   6.452  23.794
  701POPC   PO420338  -0.981   6.496  23.641
  701POPC   GL120339  -0.860   6.540  23.488
  701POPC   GL220340  -0.785   6.557  23.553
  701POPC   C1A20341  -0.738   6.585  23.336
  701POPC   D2A20342  -0.617   6.629  23.183
  701POPC   C3A20343  -0.495   6.674  23.031
  701POPC   C4A20344  -0.374   6.718  22.878
  701POPC   C1B20345  -0.684   6.393  23.323
  701POPC   C2B20346  -0.563   6.437  23.170
  701POPC   C3B20347  -0.442   6.481  23.018
  701POPC   C4B20348  -0.320   6.526  22.865
  702POPC   NC320349  -1.947   2.550  -1.502
  702POPC   PO420350  -1.822   2.635  -1.372
  702POPC   GL120351  -1.697   2.720  -1.242
  702POPC   GL220352  -1.719   2.650  -1.174
  702POPC   C1A20353  -1.571   2.806  -1.111
  702POPC   D2A20354  -1.446   2.891  -0.981
  702POPC   C3A20355  -1.320   2.977  -0.850
  702POPC   C4A20356  -1.195   3.062  -0.720
  702POPC   C1B20357  -1.422   2.692  -1.180
  702POPC   C2B20358  -1.297   2.777  -1.050
  702POPC   C3B20359  -1.171   2.863  -0.919
  702POPC   C4B20360  -1.046   2.948  -0.789
  703POPC   NC320361  18.405   4.186  -4.849
  703POPC   PO420362  18.310   4.249  -4.684
  703POPC   GL120363  18.215   4.312  -4.519
  703POPC   GL220364  18.284   4.383  -4.507
  703POPC   C1A20365  18.120   4.374  -4.355
  703POPC   D2A20366  18.025   4.437  -4.190
  703POPC   C3A20367  17.930   4.499  -4.026
  703POPC   C4A20368  17.835   4.562  -3.861
  703POPC   C1B20369  18.011   4.500  -4.466
  703POPC   C2B20370  17.916   4.562  -4.301
  703POPC   C3B20371  17.821   4.625  -4.136
  703POPC   C4B20372  17.726   4.688  -3.972
  704POPC   NC320373  -5.719  17.321  15.481
  704POPC   PO420374  -5.547  17.239  15.420
  704POPC   GL120375  -5.375  17.157  15.359
  704POPC   GL220376  -5.342  17.247  15.332
  704POPC   C1A20377  -5.203  17.075  15.298
  704POPC   D2A20378  -5.032  16.992  15.237
  704POPC   C3A20379  -4.860  16.910  15.176
  704POPC   C4A20380  -4.688  16.828  15.115
  704POPC   C1B20381  -5.126  17.102  15.480
  704POPC   C2B20382  -4.954  17.019  15.419
  704POPC   C3B20383  -4.782  16.937  15.358
  704POPC   C4B20384  -4.610  16.855  15.297
  705POPC   NC320385  14.033  -0.061  24.334
  705POPC   PO420386  13.989   0.056  24.178
  705POPC   GL120387  13.945   0.173  24.022
  705POPC   GL220388  14.023   0.136  23.972
  705POPC   C1A20389  13.900   0.290  23.866
  705POPC   D2A20390  13.856   0.406  23.709
  705POPC   C3A20391  13.811   0.523  23.553
  705POPC   C4A20392  13.767   0.640  23.397
  705POPC   C1B20393  13.785   0.145  23.790
  705POPC   C2B20394  13.740   0.261  23.634
  705POPC   C3B20395  13.696   0.378  23.478
  705POPC   C4B20396  13.652   0.495  23.322
  706POPC   NC320397   9.289  -6.671   2.996
  706POPC   PO420398   9.299  -6.487   3.074
  706POPC   GL120399   9.309  -6.303   3.152
  706POPC   GL220400   9.409  -6.311   3.158
  706POPC   C1A20401   9.319  -6.119   3.230
  706POPC   D2A20402   9.330  -5.935   3.307
  706POPC   C3A20403   9.340  -5.751   3.385
  706POPC   C4A20404   9.350  -5.567   3.463
  706POPC   C1B20405   9.337  -6.042   3.046
  706POPC   C2B20406   9.347  -5.858   3.124
  706POPC   C3B20407   9.357  -5.674   3.201
  706POPC   C4B20408   9.367  -5.490   3.279
  707POPC   NC320409  13.872  -7.602  11.171
  707POPC   PO420410  13.828  -7.408  11.155
  707POPC   GL120411  13.784  -7.214  11.139
  707POPC   GL220412  13.780  -7.223  11.039
  707POPC   C1A20413  13.740  -7.019  11.123
  707POPC   D2A20414  13.697  -6.825  11.106
  707POPC   C3A20415  13.653  -6.630  11.090
  707POPC   C4A20416  13.609  -6.436  11.074
  707POPC   C1B20417  13.545  -7.062  11.134
  707POPC   C2B20418  13.502  -6.868  11.117
  707POPC   C3B20419  13.458  -6.673  11.101
  707POPC   C4B20420  13.414  -6.479  11.085
  708POPC   NC320421   4.722   5.690  26.688
  708POPC   PO420422   4.769   5.741  26.500
  708POPC   GL120423   4.816   5.792  26.312
  708POPC   GL220424   4.863   5.874  26.346
  708POPC   C1A20425   4.863   5.843  26.125
  708POPC   D2A20426   4.911   5.895  25.937
  708POPC   C3A20427   4.958   5.946  25.750
  708POPC   C4A20428   5.005   5.997  25.562
  708POPC   C1B20429   5.034   5.740  26.139
  708POPC   C2B20430   5.081   5.791  25.952
  708POPC   C3B20431   5.128   5.842  25.764
  708POPC   C4B20432   5.176   5.893  25.577
  709POPC   NC320433  -8.034  11.090   7.902
  709POPC   PO420434  -7.837  11.075   7.933
  709POPC   GL120435  -7.640  11.060   7.964
  709POPC   GL220436  -7.634  11.159   7.976
  709POPC   C1A20437  -7.443  11.045   7.995
  709POPC   D2A20438  -7.246  11.030   8.025
  709POPC   C3A20439  -7.049  11.015   8.056
  709POPC   C4A20440  -6.852  11.000   8.087
  709POPC   C1B20441  -7.475  11.022   8.191
  709POPC   C2B20442  -7.278  11.007   8.221
  709POPC   C3B20443  -7.081  10.992   8.252
  709POPC   C4B20444  -6.884  10.977   8.283
  710POPC   NC320445   5.381  -3.027  21.624
  710POPC   PO420446   5.431  -2.883  21.495
  710POPC   GL120447   5.481  -2.739  21.366
  710POPC   GL220448   5.495  -2.807  21.294
  710POPC   C1A20449   5.531  -2.595  21.237
  710POPC   D2A20450   5.580  -2.450  21.107
  710POPC   C3A20451   5.630  -2.306  20.978
  710POPC   C4A20452   5.680  -2.162  20.849
  710POPC   C1B20453   5.339  -2.577  21.183
  710POPC   C2B20454   5.389  -2.433  21.053
  710POPC   C3B20455   5.438  -2.288  20.924
  710POPC   C4B20456   5.488  -2.144  20.795
  711POPC   NC320457  -0.721   1.682  21.892
  711POPC   PO420458  -0.603   1.770  21.757
  711POPC   GL120459  -0.485   1.858  21.622
  711POPC   GL220460  -0.404   1.826  21.671
  711POPC   C1A20461  -0.367   1.947  21.487
  711POPC   D2A20462  -0.249   2.035  21.351
  711POPC   C3A20463  -0.131   2.124  21.216
  711POPC   C4A20464  -0.013   2.212  21.081
  711POPC   C1B20465  -0.368   1.780  21.377
  711POPC   C2B20466  -0.250   1.868  21.242
  711POPC   C3B20467  -0.132   1.956  21.106
  711POPC   C4B20468  -0.014   2.045  20.971
  712POPC   NC320469   5.386  -2.837  -1.948
  712POPC   PO420470   5.434  -2.695  -1.815
  712POPC   GL120471   5.482  -2.553  -1.682
  712POPC   GL220472   5.560  -2.609  -1.651
  712POPC   C1A20473   5.530  -2.412  -1.549
  712POPC   D2A20474   5.579  -2.270  -1.417
  712POPC   C3A20475   5.627  -2.129  -1.284
  712POPC   C4A20476   5.675  -1.987  -1.151
  712POPC   C1B20477   5.648  -2.324  -1.685
  712POPC   C2B20478   5.696  -2.182  -1.553
  712POPC   C3B20479   5.744  -2.041  -1.420
  712POPC   C4B20480   5.792  -1.899  -1.287
  713POPC   NC320481  -1.356   9.771  24.093
  713POPC   PO420482  -1.231   9.772  23.937
  713POPC   GL120483  -1.106   9.773  23.781
  713POPC   GL220484  -1.031   9.743  23.840
  713POPC   C1A20485  -0.981   9.774  23.625
  713POPC   D2A20486  -0.856   9.774  23.468
  713POPC   C3A20487  -0.731   9.775  23.312
  713POPC   C4A20488  -0.606   9.776  23.156
  713POPC   C1B20489  -1.027   9.583  23.587
  713POPC   C2B20490  -0.902   9.583  23.431
  713POPC   C3B20491  -0.777   9.584  23.275
  713POPC   C4B20492  -0.652   9.585  23.119
  714POPC   NC320493   5.483  24.709  19.464
  714POPC   PO420494   5.531  24.547  19.357
  714POPC   GL120495   5.579  24.385  19.250
  714POPC   GL220496   5.672  24.389  19.287
  714POPC   C1A20497   5.627  24.223  19.143
  714POPC   D2A20498   5.676  24.061  19.036
  714POPC   C3A20499   5.724  23.899  18.929
  714POPC   C4A20500   5.772  23.737  18.822
  714POPC   C1B20501   5.572  24.106  19.295
  714POPC   C2B20502   5.620  23.944  19.188
  714POPC   C3B20503   5.668  23.782  19.081
  714POPC   C4B20504   5.716  23.620  18.974
  715POPC   NC320505  13.348   9.601  -7.829
  715POPC   PO420506  13.308   9.605  -7.633
  715POPC   GL120507  13.268   9.609  -7.437
  715POPC   GL220508  13.236   9.703  -7.446
  715POPC   C1A20509  13.228   9.613  -7.241
  715POPC   D2A20510  13.189   9.616  -7.045
  715POPC   C3A20511  13.149   9.620  -6.849
  715POPC   C4A20512  13.109   9.624  -6.653
  715POPC   C1B20513  13.044   9.545  -7.277
  715POPC   C2B20514  13.004   9.549  -7.081
  715POPC   C3B20515  12.964   9.553  -6.885
  715POPC   C4B20516  12.924   9.556  -6.689
  716POPC   NC320517  11.143   5.540  27.394
  716POPC   PO420518  11.130   5.592  27.201
  716POPC   GL120519  11.117   5.644  27.008
  716POPC   GL220520  11.175   5.566  26.983
  716POPC   C1A20521  11.104   5.696  26.815
  716POPC   D2A20522  11.091   5.747  26.623
  716POPC   C3A20523  11.078   5.799  26.430
  716POPC   C4A20524  11.065   5.851  26.237
  716POPC   C1B20525  10.942   5.580  26.795
  716POPC   C2B20526  10.929   5.632  26.602
  716POPC   C3B20527  10.916   5.684  26.410
  716POPC   C4B20528  10.903   5.735  26.217
  717POPC   NC320529  -1.490  23.100   5.120
  717POPC   PO420530  -1.368  22.951   5.174
  717POPC   GL120531  -1.246  22.802   5.228
  717POPC   GL220532  -1.169  22.865   5.227
  717POPC   C1A20533  -1.124  22.653   5.282
  717POPC   D2A20534  -1.002  22.504   5.335
  717POPC   C3A20535  -0.880  22.355   5.389
  717POPC   C4A20536  -0.758  22.206   5.443
  717POPC   C1B20537  -1.157  22.695   5.474
  717POPC   C2B20538  -1.035  22.546   5.528
  717POPC   C3B20539  -0.913  22.397   5.582
  717POPC   C4B20540  -0.791  22.248   5.636
  718POPC   NC320541  16.332  -5.071   2.398
  718POPC   PO420542  16.257  -4.903   2.477
  718POPC   GL120543  16.182  -4.735   2.556
  718POPC   GL220544  16.257  -4.683   2.516
  718POPC   C1A20545  16.108  -4.567   2.636
  718POPC   D2A20546  16.033  -4.400   2.715
  718POPC   C3A20547  15.959  -4.232   2.795
  718POPC   C4A20548  15.884  -4.064   2.874
  718POPC   C1B20549  15.999  -4.538   2.471
  718POPC   C2B20550  15.924  -4.370   2.550
  718POPC   C3B20551  15.849  -4.202   2.630
  718POPC   C4B20552  15.775  -4.034   2.709
  719POPC   NC320553   4.098  -6.959  12.271
  719POPC   PO420554   4.163  -6.771  12.246
  719POPC   GL120555   4.228  -6.583  12.221
  719POPC   GL220556   4.292  -6.615  12.151
  719POPC   C1A20557   4.293  -6.396  12.196
  719POPC   D2A20558   4.357  -6.208  12.171
  719POPC   C3A20559   4.422  -6.021  12.146
  719POPC   C4A20560   4.487  -5.833  12.121
  719POPC   C1B20561   4.154  -6.367  12.055
  719POPC   C2B20562   4.219  -6.179  12.030
  719POPC   C3B20563   4.283  -5.991  12.005
  719POPC   C4B20564   4.348  -5.804  11.980
  720POPC   NC320565   7.384  22.670  -2.613
  720POPC   PO420566   7.412  22.527  -2.476
  720POPC   GL120567   7.440  22.384  -2.339
  720POPC   GL220568   7.500  22.445  -2.287
  720POPC   C1A20569   7.467  22.241  -2.202
  720POPC   D2A20570   7.495  22.099  -2.064
  720POPC   C3A20571   7.522  21.956  -1.927
  720POPC   C4A20572   7.550  21.813  -1.790
  720POPC   C1B20573   7.310  22.310  -2.099
  720POPC   C2B20574   7.337  22.167  -1.962
  720POPC   C3B20575   7.365  22.024  -1.825
  720POPC   C4B20576   7.392  21.881  -1.687
  721POPC   NC320577  25.457  18.185  13.847
  721POPC   PO420578  25.285  18.093  13.805
  721POPC   GL120579  25.113  18.001  13.763
  721POPC   GL220580  25.084  18.079  13.707
  721POPC   C1A20581  24.940  17.908  13.721
  721POPC   D2A20582  24.768  17.816  13.680
  721POPC   C3A20583  24.595  17.723  13.638
  721POPC   C4A20584  24.423  17.631  13.596
  721POPC   C1B20585  25.025  17.823  13.561
  721POPC   C2B20586  24.852  17.731  13.519
  721POPC   C3B20587  24.680  17.638  13.478
  721POPC   C4B20588  24.507  17.546  13.436
  722POPC   NC320589  -5.244  19.087  13.845
  722POPC   PO420590  -5.078  18.984  13.802
  722POPC   GL120591  -4.912  18.881  13.759
  722POPC   GL220592  -4.919  18.834  13.847
  722POPC   C1A20593  -4.747  18.777  13.716
  722POPC   D2A20594  -4.581  18.674  13.672
  722POPC   C3A20595  -4.416  18.570  13.629
  722POPC   C4A20596  -4.250  18.467  13.586
  722POPC   C1B20597  -4.858  18.634  13.632
  722POPC   C2B20598  -4.693  18.530  13.589
  722POPC   C3B20599  -4.527  18.427  13.545
  722POPC   C4B20600  -4.361  18.324  13.502
  723POPC   NC320601   4.132   4.380  26.118
  723POPC   PO420602   4.189   4.443  25.937
  723POPC   GL120603   4.246   4.506  25.756
  723POPC   GL220604   4.249   4.600  25.789
  723POPC   C1A20605   4.303   4.568  25.575
  723POPC   D2A20606   4.359   4.631  25.393
  723POPC   C3A20607   4.416   4.693  25.212
  723POPC   C4A20608   4.473   4.756  25.031
  723POPC   C1B20609   4.494   4.543  25.626
  723POPC   C2B20610   4.551   4.605  25.445
  723POPC   C3B20611   4.608   4.668  25.263
  723POPC   C4B20612   4.665   4.731  25.082
  724POPC   NC320613  16.883  25.274   3.420
  724POPC   PO420614  16.810  25.101   3.490
  724POPC   GL120615  16.737  24.928   3.560
  724POPC   GL220616  16.812  24.924   3.627
  724POPC   C1A20617  16.664  24.756   3.630
  724POPC   D2A20618  16.592  24.583   3.701
  724POPC   C3A20619  16.519  24.411   3.771
  724POPC   C4A20620  16.446  24.238   3.841
  724POPC   C1B20621  16.553  24.856   3.762
  724POPC   C2B20622  16.480  24.684   3.832
  724POPC   C3B20623  16.407  24.511   3.903
  724POPC   C4B20624  16.334  24.339   3.973
  725POPC   NC320625  -2.706  13.468  22.405
  725POPC   PO420626  -2.570  13.428  22.264
  725POPC   GL120627  -2.434  13.388  22.123
  725POPC   GL220628  -2.411  13.302  22.169
  725POPC   C1A20629  -2.299  13.347  21.981
  725POPC   D2A20630  -2.163  13.307  21.840
  725POPC   C3A20631  -2.028  13.266  21.698
  725POPC   C4A20632  -1.892  13.226  21.557
  725POPC   C1B20633  -2.438  13.252  21.875
  725POPC   C2B20634  -2.303  13.211  21.733
  725POPC   C3B20635  -2.167  13.171  21.592
  725POPC   C4B20636  -2.032  13.130  21.450
  726POPC   NC320637  -2.463  18.896   0.158
  726POPC   PO420638  -2.325  18.797   0.264
  726POPC   GL120639  -2.187  18.698   0.370
  726POPC   GL220640  -2.211  18.752   0.451
  726POPC   C1A20641  -2.049  18.600   0.476
  726POPC   D2A20642  -1.911  18.501   0.583
  726POPC   C3A20643  -1.773  18.403   0.689
  726POPC   C4A20644  -1.635  18.304   0.795
  726POPC   C1B20645  -2.186  18.463   0.526
  726POPC   C2B20646  -2.048  18.364   0.633
  726POPC   C3B20647  -1.910  18.265   0.739
  726POPC   C4B20648  -1.772  18.167   0.845
  727POPC   NC320649  27.614  11.840   7.291
  727POPC   PO420650  27.416  11.826   7.318
  727POPC   GL120651  27.218  11.812   7.345
  727POPC   GL220652  27.209  11.909   7.326
  727POPC   C1A20653  27.021  11.798   7.372
  727POPC   D2A20654  26.823  11.783   7.400
  727POPC   C3A20655  26.626  11.769   7.427
  727POPC   C4A20656  26.428  11.755   7.454
  727POPC   C1B20657  26.997  11.757   7.178
  727POPC   C2B20658  26.799  11.742   7.205
  727POPC   C3B20659  26.602  11.728   7.232
  727POPC   C4B20660  26.404  11.714   7.260
  728POPC   NC320661  -2.195  23.362   9.057
  728POPC   PO420662  -2.065  23.210   9.069
  728POPC   GL120663  -1.935  23.058   9.081
  728POPC   GL220664  -1.877  23.113   9.142
  728POPC   C1A20665  -1.806  22.906   9.094
  728POPC   D2A20666  -1.676  22.755   9.106
  728POPC   C3A20667  -1.547  22.603   9.119
  728POPC   C4A20668  -1.417  22.451   9.131
  728POPC   C1B20669  -1.904  22.835   9.253
  728POPC   C2B20670  -1.775  22.684   9.265
  728POPC   C3B20671  -1.645  22.532   9.278
  728POPC   C4B20672  -1.515  22.380   9.290
  729POPC   NC320673   4.850  26.013  16.526
  729POPC   PO420674   4.905  25.835  16.454
  729POPC   GL120675   4.960  25.657  16.382
  729POPC   GL220676   5.055  25.676  16.408
  729POPC   C1A20677   5.015  25.478  16.310
  729POPC   D2A20678   5.071  25.300  16.239
  729POPC   C3A20679   5.126  25.121  16.167
  729POPC   C4A20680   5.181  24.943  16.095
  729POPC   C1B20681   4.983  25.396  16.490
  729POPC   C2B20682   5.038  25.218  16.418
  729POPC   C3B20683   5.094  25.039  16.346
  729POPC   C4B20684   5.149  24.861  16.274
  730POPC   NC320685  -7.918  11.454   7.392
  730POPC   PO420686  -7.722  11.437   7.426
  730POPC   GL120687  -7.526  11.420   7.460
  730POPC   GL220688  -7.544  11.357   7.536
  730POPC   C1A20689  -7.330  11.403   7.494
  730POPC   D2A20690  -7.133  11.385   7.529
  730POPC   C3A20691  -6.937  11.368   7.563
  730POPC   C4A20692  -6.741  11.351   7.597
  730POPC   C1B20693  -7.321  11.248   7.368
  730POPC   C2B20694  -7.125  11.231   7.402
  730POPC   C3B20695  -6.929  11.214   7.436
  730POPC   C4B20696  -6.732  11.197   7.470
  731POPC   NC320697  -7.457  15.023   8.780
  731POPC   PO420698  -7.265  14.968   8.794
  731POPC   GL120699  -7.073  14.913   8.808
  731POPC   GL220700  -7.102  14.823   8.841
  731POPC   C1A20701  -6.882  14.858   8.822
  731POPC   D2A20702  -6.690  14.802   8.837
  731POPC   C3A20703  -6.499  14.747   8.851
  731POPC   C4A20704  -6.307  14.692   8.865
  731POPC   C1B20705  -6.887  14.792   8.634
  731POPC   C2B20706  -6.695  14.737   8.648
  731POPC   C3B20707  -6.504  14.681   8.662
  731POPC   C4B20708  -6.312  14.626   8.676
  732POPC   NC320709   0.521  10.984  25.404
  732POPC   PO420710   0.624  10.967  25.233
  732POPC   GL120711   0.727  10.950  25.062
  732POPC   GL220712   0.757  11.045  25.071
  732POPC   C1A20713   0.829  10.934  24.891
  732POPC   D2A20714   0.932  10.917  24.721
  732POPC   C3A20715   1.034  10.901  24.550
  732POPC   C4A20716   1.137  10.884  24.379
  732POPC   C1B20717   0.990  10.872  24.994
  732POPC   C2B20718   1.092  10.855  24.823
  732POPC   C3B20719   1.195  10.839  24.652
  732POPC   C4B20720   1.297  10.822  24.481
  733POPC   NC320721  10.762  -2.545  22.827
  733POPC   PO420722  10.745  -2.404  22.686
  733POPC   GL120723  10.728  -2.263  22.545
  733POPC   GL220724  10.744  -2.192  22.614
  733POPC   C1A20725  10.712  -2.121  22.405
  733POPC   D2A20726  10.695  -1.980  22.264
  733POPC   C3A20727  10.679  -1.838  22.124
  733POPC   C4A20728  10.662  -1.697  21.983
  733POPC   C1B20729  10.909  -2.132  22.370
  733POPC   C2B20730  10.892  -1.991  22.230
  733POPC   C3B20731  10.875  -1.849  22.089
  733POPC   C4B20732  10.859  -1.708  21.949
  734POPC   NC320733  -7.104  10.941   3.970
  734POPC   PO420734  -6.914  10.930   4.033
  734POPC   GL120735  -6.724  10.919   4.096
  734POPC   GL220736  -6.749  10.972   4.178
  734POPC   C1A20737  -6.535  10.909   4.159
  734POPC   D2A20738  -6.345  10.898   4.222
  734POPC   C3A20739  -6.156  10.888   4.285
  734POPC   C4A20740  -5.966  10.877   4.348
  734POPC   C1B20741  -6.576  10.739   4.255
  734POPC   C2B20742  -6.387  10.728   4.318
  734POPC   C3B20743  -6.197  10.717   4.381
  734POPC   C4B20744  -6.008  10.707   4.444
  735POPC   NC320745  25.251   3.081   3.389
  735POPC   PO420746  25.081   3.158   3.461
  735POPC   GL120747  24.911   3.235   3.533
  735POPC   GL220748  24.941   3.327   3.506
  735POPC   C1A20749  24.742   3.312   3.606
  735POPC   D2A20750  24.572   3.390   3.678
  735POPC   C3A20751  24.403   3.467   3.751
  735POPC   C4A20752  24.233   3.544   3.823
  735POPC   C1B20753  24.654   3.287   3.428
  735POPC   C2B20754  24.485   3.364   3.500
  735POPC   C3B20755  24.315   3.441   3.573
  735POPC   C4B20756  24.145   3.518   3.645
  736POPC   NC320757   5.010  -7.216  12.489
  736POPC   PO420758   5.064  -7.026  12.461
  736POPC   GL120759   5.118  -6.836  12.433
  736POPC   GL220760   5.152  -6.859  12.342
  736POPC   C1A20761   5.173  -6.645  12.405
  736POPC   D2A20762   5.227  -6.455  12.378
  736POPC   C3A20763   5.282  -6.264  12.350
  736POPC   C4A20764   5.336  -6.074  12.322
  736POPC   C1B20765   4.992  -6.605  12.330
  736POPC   C2B20766   5.047  -6.414  12.302
  736POPC   C3B20767   5.101  -6.224  12.274
  736POPC   C4B20768   5.155  -6.033  12.246
  737POPC   NC320769  21.943  -2.413   4.762
  737POPC   PO420770  21.809  -2.276   4.818
  737POPC   GL120771  21.675  -2.139   4.874
  737POPC   GL220772  21.664  -2.110   4.779
  737POPC   C1A20773  21.541  -2.001   4.930
  737POPC   D2A20774  21.406  -1.864   4.986
  737POPC   C3A20775  21.272  -1.726   5.042
  737POPC   C4A20776  21.138  -1.589   5.098
  737POPC   C1B20777  21.394  -2.135   4.906
  737POPC   C2B20778  21.260  -1.998   4.962
  737POPC   C3B20779  21.125  -1.860   5.018
  737POPC   C4B20780  20.991  -1.723   5.074
  738POPC   NC320781   3.569  12.029  -6.877
  738POPC   PO420782   3.640  12.007  -6.691
  738POPC   GL120783   3.711  11.985  -6.505
  738POPC   GL220784   3.755  12.075  -6.512
  738POPC   C1A20785   3.782  11.963  -6.320
  738POPC   D2A20786   3.853  11.942  -6.134
  738POPC   C3A20787   3.924  11.920  -5.949
  738POPC   C4A20788   3.995  11.898  -5.763
  738POPC   C1B20789   3.617  12.049  -6.247
  738POPC   C2B20790   3.688  12.027  -6.061
  738POPC   C3B20791   3.759  12.006  -5.875
  738POPC   C4B20792   3.830  11.984  -5.690
  739POPC   NC320793   1.023  18.425  -3.392
  739POPC   PO420794   1.121  18.336  -3.242
  739POPC   GL120795   1.219  18.247  -3.092
  739POPC   GL220796   1.304  18.291  -3.121
  739POPC   C1A20797   1.317  18.158  -2.942
  739POPC   D2A20798   1.414  18.068  -2.793
  739POPC   C3A20799   1.512  17.979  -2.643
  739POPC   C4A20800   1.610  17.890  -2.493
  739POPC   C1B20801   1.276  18.313  -2.823
  739POPC   C2B20802   1.374  18.224  -2.673
  739POPC   C3B20803   1.471  18.135  -2.524
  739POPC   C4B20804   1.569  18.045  -2.374
  740POPC   NC320805  -3.826  20.704  14.765
  740POPC   PO420806  -3.673  20.586  14.713
  740POPC   GL120807  -3.520  20.468  14.661
  740POPC   GL220808  -3.476  20.545  14.616
  740POPC   C1A20809  -3.367  20.350  14.609
  740POPC   D2A20810  -3.215  20.231  14.558
  740POPC   C3A20811  -3.062  20.113  14.506
  740POPC   C4A20812  -2.909  19.995  14.454
  740POPC   C1B20813  -3.273  20.396  14.780
  740POPC   C2B20814  -3.121  20.278  14.728
  740POPC   C3B20815  -2.968  20.160  14.676
  740POPC   C4B20816  -2.815  20.042  14.624
  741POPC   NC320817   1.988  18.603  -3.879
  741POPC   PO420818   2.077  18.513  -3.724
  741POPC   GL120819   2.166  18.423  -3.569
  741POPC   GL220820   2.246  18.482  -3.581
  741POPC   C1A20821   2.255  18.334  -3.414
  741POPC   D2A20822   2.344  18.244  -3.259
  741POPC   C3A20823   2.433  18.155  -3.104
  741POPC   C4A20824   2.522  18.065  -2.949
  741POPC   C1B20825   2.176  18.469  -3.290
  741POPC   C2B20826   2.265  18.380  -3.135
  741POPC   C3B20827   2.354  18.290  -2.980
  741POPC   C4B20828   2.443  18.201  -2.825
  742POPC   NC320829  21.978  23.105  12.482
  742POPC   PO420830  21.842  22.963  12.447
  742POPC   GL120831  21.706  22.821  12.412
  742POPC   GL220832  21.774  22.769  12.360
  742POPC   C1A20833  21.570  22.678  12.377
  742POPC   D2A20834  21.434  22.536  12.343
  742POPC   C3A20835  21.298  22.393  12.308
  742POPC   C4A20836  21.162  22.251  12.273
  742POPC   C1B20837  21.626  22.584  12.545
  742POPC   C2B20838  21.490  22.442  12.510
  742POPC   C3B20839  21.354  22.299  12.475
  742POPC   C4B20840  21.218  22.157  12.440
  743POPC   NC320841   8.002  23.879  21.314
  743POPC   PO420842   8.027  23.730  21.183
  743POPC   GL120843   8.052  23.581  21.052
  743POPC   GL220844   8.132  23.549  21.104
  743POPC   C1A20845   8.077  23.431  20.922
  743POPC   D2A20846   8.101  23.282  20.791
  743POPC   C3A20847   8.126  23.132  20.661
  743POPC   C4A20848   8.151  22.983  20.530
  743POPC   C1B20849   7.959  23.314  21.034
  743POPC   C2B20850   7.984  23.165  20.903
  743POPC   C3B20851   8.009  23.015  20.772
  743POPC   C4B20852   8.034  22.866  20.642
  744POPC   NC320853  -7.943   7.432  11.440
  744POPC   PO420854  -7.747   7.463  11.420
  744POPC   GL120855  -7.551   7.494  11.400
  744POPC   GL220856  -7.534   7.444  11.484
  744POPC   C1A20857  -7.354   7.526  11.379
  744POPC   D2A20858  -7.158   7.557  11.359
  744POPC   C3A20859  -6.961   7.589  11.338
  744POPC   C4A20860  -6.765   7.620  11.318
  744POPC   C1B20861  -7.338   7.357  11.274
  744POPC   C2B20862  -7.142   7.388  11.253
  744POPC   C3B20863  -6.945   7.419  11.233
  744POPC   C4B20864  -6.749   7.451  11.213
  745POPC   NC320865  23.968  15.691   0.205
  745POPC   PO420866  23.810  15.630   0.312
  745POPC   GL120867  23.652  15.569   0.419
  745POPC   GL220868  23.591  15.601   0.347
  745POPC   C1A20869  23.495  15.507   0.525
  745POPC   D2A20870  23.337  15.446   0.632
  745POPC   C3A20871  23.180  15.384   0.738
  745POPC   C4A20872  23.022  15.323   0.845
  745POPC   C1B20873  23.504  15.328   0.436
  745POPC   C2B20874  23.346  15.267   0.542
  745POPC   C3B20875  23.189  15.206   0.649
  745POPC   C4B20876  23.031  15.144   0.756
  746POPC   NC320877  25.411  14.813   2.109
  746POPC   PO420878  25.240  14.761   2.199
  746POPC   GL120879  25.069  14.709   2.289
  746POPC   GL220880  25.018  14.769   2.227
  746POPC   C1A20881  24.898  14.657   2.379
  746POPC   D2A20882  24.727  14.605   2.469
  746POPC   C3A20883  24.556  14.553   2.559
  746POPC   C4A20884  24.385  14.501   2.649
  746POPC   C1B20885  24.876  14.505   2.250
  746POPC   C2B20886  24.705  14.453   2.340
  746POPC   C3B20887  24.534  14.401   2.430
  746POPC   C4B20888  24.363  14.349   2.520
  747POPC   NC320889  -1.035  23.582   5.477
  747POPC   PO420890  -0.917  23.428   5.526
  747POPC   GL120891  -0.799  23.274   5.575
  747POPC   GL220892  -0.718  23.333   5.566
  747POPC   C1A20893  -0.681  23.120   5.624
  747POPC   D2A20894  -0.562  22.967   5.672
  747POPC   C3A20895  -0.444  22.813   5.721
  747POPC   C4A20896  -0.326  22.659   5.770
  747POPC   C1B20897  -0.695  23.171   5.817
  747POPC   C2B20898  -0.577  23.017   5.865
  747POPC   C3B20899  -0.459  22.863   5.914
  747POPC   C4B20900  -0.341  22.709   5.963
  748POPC   NC320901  11.179  -5.227  19.585
  748POPC   PO420902  11.164  -5.061  19.475
  748POPC   GL120903  11.149  -4.895  19.365
  748POPC   GL220904  11.231  -4.921  19.315
  748POPC   C1A20905  11.134  -4.729  19.255
  748POPC   D2A20906  11.118  -4.562  19.144
  748POPC   C3A20907  11.103  -4.396  19.034
  748POPC   C4A20908  11.088  -4.230  18.924
  748POPC   C1B20909  11.021  -4.827  19.122
  748POPC   C2B20910  11.006  -4.661  19.011
  748POPC   C3B20911  10.991  -4.495  18.901
  748POPC   C4B20912  10.976  -4.329  18.791
  749POPC   NC320913  12.541   5.058  27.104
  749POPC   PO420914  12.511   5.110  26.913
  749POPC   GL120915  12.481   5.162  26.722
  749POPC   GL220916  12.502   5.069  26.693
  749POPC   C1A20917  12.450   5.214  26.531
  749POPC   D2A20918  12.420   5.266  26.341
  749POPC   C3A20919  12.389   5.318  26.150
  749POPC   C4A20920  12.359   5.370  25.959
  749POPC   C1B20921  12.257   5.164  26.549
  749POPC   C2B20922  12.227   5.216  26.358
  749POPC   C3B20923  12.197   5.268  26.167
  749POPC   C4B20924  12.166   5.320  25.976
  750POPC   NC320925  -3.185  -0.465   3.021
  750POPC   PO420926  -3.039  -0.348   3.093
  750POPC   GL120927  -2.893  -0.231   3.165
  750POPC   GL220928  -2.839  -0.313   3.186
  750POPC   C1A20929  -2.748  -0.115   3.237
  750POPC   D2A20930  -2.602   0.002   3.310
  750POPC   C3A20931  -2.457   0.118   3.382
  750POPC   C4A20932  -2.311   0.235   3.454
  750POPC   C1B20933  -2.665  -0.106   3.056
  750POPC   C2B20934  -2.519   0.011   3.128
  750POPC   C3B20935  -2.374   0.128   3.200
  750POPC   C4B20936  -2.228   0.244   3.272
  751POPC   NC320937   4.158  -5.086  18.132
  751POPC   PO420938   4.223  -4.920  18.042
  751POPC   GL120939   4.288  -4.754  17.952
  751POPC   GL220940   4.343  -4.809  17.890
  751POPC   C1A20941   4.353  -4.587  17.862
  751POPC   D2A20942   4.417  -4.421  17.772
  751POPC   C3A20943   4.482  -4.254  17.682
  751POPC   C4A20944   4.547  -4.088  17.592
  751POPC   C1B20945   4.199  -4.597  17.734
  751POPC   C2B20946   4.264  -4.431  17.644
  751POPC   C3B20947   4.329  -4.264  17.554
  751POPC   C4B20948   4.394  -4.098  17.464
  752POPC   NC320949  10.788  -1.514  23.796
  752POPC   PO420950  10.771  -1.383  23.646
  752POPC   GL120951  10.754  -1.252  23.496
  752POPC   GL220952  10.808  -1.185  23.548
  752POPC   C1A20953  10.737  -1.120  23.346
  752POPC   D2A20954  10.721  -0.989  23.197
  752POPC   C3A20955  10.704  -0.857  23.047
  752POPC   C4A20956  10.687  -0.726  22.897
  752POPC   C1B20957  10.905  -1.192  23.265
  752POPC   C2B20958  10.888  -1.060  23.115
  752POPC   C3B20959  10.872  -0.929  22.965
  752POPC   C4B20960  10.855  -0.798  22.815
  753POPC   NC320961  13.744  -7.663   8.935
  753POPC   PO420962  13.698  -7.469   8.946
  753POPC   GL120963  13.652  -7.275   8.957
  753POPC   GL220964  13.695  -7.270   9.047
  753POPC   C1A20965  13.607  -7.080   8.968
  753POPC   D2A20966  13.561  -6.886   8.980
  753POPC   C3A20967  13.516  -6.691   8.991
  753POPC   C4A20968  13.470  -6.497   9.002
  753POPC   C1B20969  13.782  -7.034   8.883
  753POPC   C2B20970  13.736  -6.840   8.894
  753POPC   C3B20971  13.690  -6.646   8.905
  753POPC   C4B20972  13.645  -6.451   8.916
  754POPC   NC320973  -8.124   8.117  10.269
  754POPC   PO420974  -7.925   8.140  10.262
  754POPC   GL120975  -7.726   8.163  10.255
  754POPC   GL220976  -7.729   8.213  10.341
  754POPC   C1A20977  -7.528   8.185  10.248
  754POPC   D2A20978  -7.329   8.208  10.241
  754POPC   C3A20979  -7.131   8.230  10.234
  754POPC   C4A20980  -6.932   8.253  10.227
  754POPC   C1B20981  -7.505   8.014  10.349
  754POPC   C2B20982  -7.306   8.037  10.342
  754POPC   C3B20983  -7.107   8.059  10.335
  754POPC   C4B20984  -6.909   8.082  10.328
  755POPC   NC320985  16.764  -6.322  13.411
  755POPC   PO420986  16.687  -6.142  13.371
  755POPC   GL120987  16.610  -5.962  13.331
  755POPC   GL220988  16.678  -5.919  13.391
  755POPC   C1A20989  16.533  -5.782  13.292
  755POPC   D2A20990  16.456  -5.601  13.252
  755POPC   C3A20991  16.379  -5.421  13.213
  755POPC   C4A20992  16.302  -5.241  13.173
  755POPC   C1B20993  16.657  -5.763  13.136
  755POPC   C2B20994  16.580  -5.582  13.097
  755POPC   C3B20995  16.503  -5.402  13.057
  755POPC   C4B20996  16.426  -5.222  13.017
  756POPC   NC320997  -2.606   5.936  -2.508
  756POPC   PO420998  -2.467   5.979  -2.370
  756POPC   GL120999  -2.328   6.022  -2.232
  756POPC   GL221000  -2.397   6.012  -2.160
  756POPC   C1A21001  -2.189   6.064  -2.095
  756POPC   D2A21002  -2.051   6.107  -1.957
  756POPC   C3A21003  -1.912   6.149  -1.820
  756POPC   C4A21004  -1.773   6.192  -1.682
  756POPC   C1B21005  -2.146   5.870  -2.079
  756POPC   C2B21006  -2.007   5.912  -1.941
  756POPC   C3B21007  -1.868   5.955  -1.803
  756POPC   C4B21008  -1.729   5.997  -1.666
  757POPC   NC321009   3.608  26.908   8.642
  757POPC   PO421010   3.680  26.722   8.656
  757POPC   GL121011   3.752  26.536   8.670
  757POPC   GL221012   3.742  26.540   8.769
  757POPC   C1A21013   3.824  26.350   8.684
  757POPC   D2A21014   3.896  26.164   8.698
  757POPC   C3A21015   3.968  25.978   8.712
  757POPC   C4A21016   4.040  25.792   8.726
  757POPC   C1B21017   3.639  26.277   8.668
  757POPC   C2B21018   3.711  26.091   8.682
  757POPC   C3B21019   3.783  25.905   8.696
  757POPC   C4B21020   3.855  25.719   8.710
  758POPC   NC321021   0.692  -1.130  -0.827
  758POPC   PO421022   0.790  -1.006  -0.704
  758POPC   GL121023   0.888  -0.882  -0.581
  758POPC   GL221024   0.909  -0.959  -0.521
  758POPC   C1A21025   0.986  -0.758  -0.458
  758POPC   D2A21026   1.083  -0.635  -0.336
  758POPC   C3A21027   1.181  -0.511  -0.213
  758POPC   C4A21028   1.279  -0.387  -0.090
  758POPC   C1B21029   1.155  -0.792  -0.560
  758POPC   C2B21030   1.253  -0.668  -0.437
  758POPC   C3B21031   1.350  -0.544  -0.314
  758POPC   C4B21032   1.448  -0.420  -0.191
  759POPC   NC321033  -0.886  24.345   8.693
  759POPC   PO421034  -0.770  24.183   8.712
  759POPC   GL121035  -0.654  24.021   8.731
  759POPC   GL221036  -0.573  24.078   8.719
  759POPC   C1A21037  -0.538  23.860   8.750
  759POPC   D2A21038  -0.421  23.698   8.769
  759POPC   C3A21039  -0.305  23.537   8.788
  759POPC   C4A21040  -0.189  23.375   8.807
  759POPC   C1B21041  -0.530  23.889   8.948
  759POPC   C2B21042  -0.413  23.727   8.967
  759POPC   C3B21043  -0.297  23.565   8.986
  759POPC   C4B21044  -0.181  23.404   9.005
  760POPC   NC321045  -6.927  16.651  10.320
  760POPC   PO421046  -6.741  16.578  10.314
  760POPC   GL121047  -6.555  16.505  10.308
  760POPC   GL221048  -6.526  16.573  10.376
  760POPC   C1A21049  -6.369  16.432  10.302
  760POPC   D2A21050  -6.182  16.359  10.296
  760POPC   C3A21051  -5.996  16.286  10.290
  760POPC   C4A21052  -5.810  16.213  10.284
  760POPC   C1B21053  -6.414  16.304  10.449
  760POPC   C2B21054  -6.228  16.231  10.443
  760POPC   C3B21055  -6.042  16.158  10.437
  760POPC   C4B21056  -5.855  16.085  10.431
  761POPC   NC321057  13.103  23.714  -1.411
  761POPC   PO421058  13.072  23.561  -1.286
  761POPC   GL121059  13.041  23.408  -1.161
  761POPC   GL221060  13.108  23.354  -1.211
  761POPC   C1A21061  13.010  23.256  -1.035
  761POPC   D2A21062  12.980  23.103  -0.910
  761POPC   C3A21063  12.949  22.951  -0.784
  761POPC   C4A21064  12.918  22.798  -0.659
  761POPC   C1B21065  13.155  23.325  -0.916
  761POPC   C2B21066  13.125  23.172  -0.791
  761POPC   C3B21067  13.094  23.019  -0.665
  761POPC   C4B21068  13.063  22.867  -0.540
  762POPC   NC321069  -4.534  18.616   3.336
  762POPC   PO421070  -4.371  18.526   3.410
  762POPC   GL121071  -4.208  18.436   3.484
  762POPC   GL221072  -4.237  18.460   3.577
  762POPC   C1A21073  -4.046  18.346   3.558
  762POPC   D2A21074  -3.883  18.256   3.632
  762POPC   C3A21075  -3.721  18.166   3.706
  762POPC   C4A21076  -3.558  18.076   3.780
  762POPC   C1B21077  -4.147  18.174   3.571
  762POPC   C2B21078  -3.985  18.084   3.645
  762POPC   C3B21079  -3.822  17.994   3.719
  762POPC   C4B21080  -3.659  17.904   3.793
  763POPC   NC321081  21.969  20.540  18.087
  763POPC   PO421082  21.836  20.417  18.002
  763POPC   GL121083  21.703  20.294  17.917
  763POPC   GL221084  21.741  20.314  17.827
  763POPC   C1A21085  21.569  20.171  17.833
  763POPC   D2A21086  21.436  20.049  17.748
  763POPC   C3A21087  21.302  19.926  17.664
  763POPC   C4A21088  21.169  19.803  17.579
  763POPC   C1B21089  21.697  20.019  17.853
  763POPC   C2B21090  21.564  19.896  17.768
  763POPC   C3B21091  21.430  19.773  17.684
  763POPC   C4B21092  21.297  19.650  17.599
  764POPC   NC321093  27.334  13.528   6.934
  764POPC   PO421094  27.140  13.489   6.965
  764POPC   GL121095  26.946  13.450   6.996
  764POPC   GL221096  26.935  13.430   6.898
  764POPC   C1A21097  26.752  13.411   7.026
  764POPC   D2A21098  26.559  13.372   7.057
  764POPC   C3A21099  26.365  13.333   7.087
  764POPC   C4A21100  26.171  13.294   7.118
  764POPC   C1B21101  26.796  13.219   7.061
  764POPC   C2B21102  26.603  13.180   7.091
  764POPC   C3B21103  26.409  13.141   7.122
  764POPC   C4B21104  26.215  13.102   7.153
  765POPC   NC321105   1.319  -4.297  16.999
  765POPC   PO421106   1.413  -4.139  16.919
  765POPC   GL121107   1.507  -3.981  16.839
  765POPC   GL221108   1.592  -4.010  16.882
  765POPC   C1A21109   1.601  -3.824  16.759
  765POPC   D2A21110   1.694  -3.666  16.680
  765POPC   C3A21111   1.788  -3.509  16.600
  765POPC   C4A21112   1.882  -3.351  16.520
  765POPC   C1B21113   1.646  -3.932  16.598
  765POPC   C2B21114   1.739  -3.775  16.518
  765POPC   C3B21115   1.833  -3.617  16.438
  765POPC   C4B21116   1.927  -3.460  16.358
  766POPC   NC321117  26.210  15.870   4.965
  766POPC   PO421118  26.030  15.800   5.017
  766POPC   GL121119  25.850  15.730   5.069
  766POPC   GL221120  25.807  15.798   5.010
  766POPC   C1A21121  25.670  15.661   5.121
  766POPC   D2A21122  25.489  15.591   5.173
  766POPC   C3A21123  25.309  15.522   5.225
  766POPC   C4A21124  25.129  15.452   5.277
  766POPC   C1B21125  25.676  15.532   4.968
  766POPC   C2B21126  25.495  15.462   5.020
  766POPC   C3B21127  25.315  15.393   5.072
  766POPC   C4B21128  25.135  15.323   5.124
  767POPC   NC321129  13.792  14.035  -7.205
  767POPC   PO421130  13.749  13.988  -7.015
  767POPC   GL121131  13.706  13.941  -6.825
  767POPC   GL221132  13.625  13.892  -6.856
  767POPC   C1A21133  13.664  13.894  -6.635
  767POPC   D2A21134  13.621  13.848  -6.446
  767POPC   C3A21135  13.579  13.801  -6.256
  767POPC   C4A21136  13.536  13.754  -6.066
  767POPC   C1B21137  13.772  13.727  -6.652
  767POPC   C2B21138  13.729  13.680  -6.463
  767POPC   C3B21139  13.687  13.634  -6.273
  767POPC   C4B21140  13.644  13.587  -6.083
  768POPC   NC321141  27.001   8.639   4.475
  768POPC   PO421142  26.810   8.652   4.532
  768POPC   GL121143  26.619   8.665   4.589
  768POPC   GL221144  26.592   8.606   4.513
  768POPC   C1A21145  26.427   8.679   4.645
  768POPC   D2A21146  26.236   8.692   4.702
  768POPC   C3A21147  26.044   8.706   4.758
  768POPC   C4A21148  25.853   8.719   4.815
  768POPC   C1B21149  26.451   8.518   4.762
  768POPC   C2B21150  26.259   8.532   4.819
  768POPC   C3B21151  26.068   8.545   4.875
  768POPC   C4B21152  25.876   8.559   4.932
  769POPC   NC321153  -4.836   9.853  -0.529
  769POPC   PO421154  -4.676   9.857  -0.410
  769POPC   GL121155  -4.516   9.861  -0.291
  769POPC   GL221156  -4.525   9.763  -0.275
  769POPC   C1A21157  -4.355   9.865  -0.171
  769POPC   D2A21158  -4.195   9.869  -0.052
  769POPC   C3A21159  -4.034   9.873   0.068
  769POPC   C4A21160  -3.874   9.877   0.187
  769POPC   C1B21161  -4.237   9.829  -0.329
  769POPC   C2B21162  -4.077   9.833  -0.209
  769POPC   C3B21163  -3.916   9.837  -0.090
  769POPC   C4B21164  -3.756   9.841   0.030
  770POPC   NC321165  19.481  -1.991  19.380
  770POPC   PO421166  19.374  -1.861  19.272
  770POPC   GL121167  19.267  -1.731  19.164
  770POPC   GL221168  19.255  -1.800  19.093
  770POPC   C1A21169  19.160  -1.601  19.056
  770POPC   D2A21170  19.052  -1.472  18.947
  770POPC   C3A21171  18.945  -1.342  18.839
  770POPC   C4A21172  18.838  -1.212  18.731
  770POPC   C1B21173  18.992  -1.665  19.145
  770POPC   C2B21174  18.885  -1.535  19.037
  770POPC   C3B21175  18.778  -1.405  18.929
  770POPC   C4B21176  18.671  -1.276  18.820
  771POPC   NC321177  15.336  27.168   9.638
  771POPC   PO421178  15.270  26.979   9.643
  771POPC   GL121179  15.204  26.790   9.648
  771POPC   GL221180  15.206  26.787   9.549
  771POPC   C1A21181  15.138  26.602   9.654
  771POPC   D2A21182  15.071  26.413   9.659
  771POPC   C3A21183  15.005  26.225   9.665
  771POPC   C4A21184  14.939  26.036   9.670
  771POPC   C1B21185  15.326  26.536   9.660
  771POPC   C2B21186  15.260  26.347   9.666
  771POPC   C3B21187  15.194  26.159   9.671
  771POPC   C4B21188  15.128  25.970   9.677
  772POPC   NC321189  19.006  25.455  10.227
  772POPC   PO421190  18.907  25.281  10.225
  772POPC   GL121191  18.808  25.107  10.223
  772POPC   GL221192  18.867  25.073  10.296
  772POPC   C1A21193  18.708  24.934  10.222
  772POPC   D2A21194  18.609  24.760  10.220
  772POPC   C3A21195  18.509  24.587  10.219
  772POPC   C4A21196  18.410  24.413  10.217
  772POPC   C1B21197  18.581  25.005  10.358
  772POPC   C2B21198  18.482  24.832  10.357
  772POPC   C3B21199  18.382  24.658  10.355
  772POPC   C4B21200  18.283  24.485  10.354
  773POPC   NC321201  -0.739  13.284  -4.239
  773POPC   PO421202  -0.622  13.252  -4.080
  773POPC   GL121203  -0.505  13.220  -3.921
  773POPC   GL221204  -0.570  13.269  -3.863
  773POPC   C1A21205  -0.388  13.189  -3.762
  773POPC   D2A21206  -0.270  13.157  -3.604
  773POPC   C3A21207  -0.153  13.126  -3.445
  773POPC   C4A21208  -0.036  13.094  -3.286
  773POPC   C1B21209  -0.483  13.017  -3.726
  773POPC   C2B21210  -0.366  12.985  -3.568
  773POPC   C3B21211  -0.248  12.953  -3.409
  773POPC   C4B21212  -0.131  12.922  -3.250
  774POPC   NC321213  11.484  12.413  27.762
  774POPC   PO421214  11.465  12.383  27.565
  774POPC   GL121215  11.446  12.353  27.368
  774POPC   GL221216  11.502  12.270  27.375
  774POPC   C1A21217  11.427  12.322  27.171
  774POPC   D2A21218  11.409  12.292  26.975
  774POPC   C3A21219  11.390  12.261  26.778
  774POPC   C4A21220  11.371  12.231  26.581
  774POPC   C1B21221  11.263  12.213  27.204
  774POPC   C2B21222  11.244  12.182  27.007
  774POPC   C3B21223  11.226  12.152  26.810
  774POPC   C4B21224  11.207  12.121  26.614
  775POPC   NC321225  20.306  21.415  19.159
  775POPC   PO421226  20.190  21.283  19.064
  775POPC   GL121227  20.074  21.151  18.969
  775POPC   GL221228  20.153  21.118  18.917
  775POPC   C1A21229  19.957  21.019  18.874
  775POPC   D2A21230  19.841  20.888  18.778
  775POPC   C3A21231  19.724  20.756  18.683
  775POPC   C4A21232  19.608  20.624  18.588
  775POPC   C1B21233  19.994  20.884  19.016
  775POPC   C2B21234  19.877  20.752  18.921
  775POPC   C3B21235  19.761  20.621  18.826
  775POPC   C4B21236  19.645  20.489  18.731
  776POPC   NC321237  -8.079   8.315  11.279
  776POPC   PO421238  -7.881   8.337  11.260
  776POPC   GL121239  -7.683   8.359  11.241
  776POPC   GL221240  -7.680   8.410  11.326
  776POPC   C1A21241  -7.485   8.380  11.221
  776POPC   D2A21242  -7.288   8.402  11.202
  776POPC   C3A21243  -7.090   8.423  11.182
  776POPC   C4A21244  -6.892   8.445  11.163
  776POPC   C1B21245  -7.457   8.210  11.322
  776POPC   C2B21246  -7.259   8.232  11.303
  776POPC   C3B21247  -7.061   8.253  11.283
  776POPC   C4B21248  -6.864   8.275  11.264
  777POPC   NC321249  22.498   7.180  -2.689
  777POPC   PO421250  22.358   7.210  -2.549
  777POPC   GL121251  22.218   7.240  -2.409
  777POPC   GL221252  22.154   7.269  -2.479
  777POPC   C1A21253  22.079   7.270  -2.269
  777POPC   D2A21254  21.939   7.299  -2.128
  777POPC   C3A21255  21.800   7.329  -1.988
  777POPC   C4A21256  21.660   7.359  -1.848
  777POPC   C1B21257  22.017   7.081  -2.290
  777POPC   C2B21258  21.877   7.110  -2.150
  777POPC   C3B21259  21.738   7.140  -2.010
  777POPC   C4B21260  21.598   7.170  -1.870
  778POPC   NC321261  13.005  20.945  -4.059
  778POPC   PO421262  12.975  20.824  -3.902
  778POPC   GL121263  12.945  20.703  -3.745
  778POPC   GL221264  12.998  20.765  -3.687
  778POPC   C1A21265  12.914  20.583  -3.589
  778POPC   D2A21266  12.884  20.462  -3.432
  778POPC   C3A21267  12.853  20.342  -3.276
  778POPC   C4A21268  12.823  20.221  -3.119
  778POPC   C1B21269  12.747  20.684  -3.544
  778POPC   C2B21270  12.717  20.563  -3.387
  778POPC   C3B21271  12.687  20.442  -3.230
  778POPC   C4B21272  12.656  20.322  -3.074
  779POPC   NC321273  14.707  26.231   3.946
  779POPC   PO421274  14.655  26.050   4.013
  779POPC   GL121275  14.603  25.869   4.080
  779POPC   GL221276  14.600  25.835   3.986
  779POPC   C1A21277  14.551  25.688   4.146
  779POPC   D2A21278  14.499  25.506   4.213
  779POPC   C3A21279  14.447  25.325   4.279
  779POPC   C4A21280  14.395  25.144   4.346
  779POPC   C1B21281  14.744  25.637   4.159
  779POPC   C2B21282  14.692  25.456   4.225
  779POPC   C3B21283  14.640  25.274   4.292
  779POPC   C4B21284  14.588  25.093   4.358
  780POPC   NC321285   3.257  -0.595  23.060
  780POPC   PO421286   3.330  -0.476  22.917
  780POPC   GL121287   3.403  -0.357  22.774
  780POPC   GL221288   3.477  -0.328  22.836
  780POPC   C1A21289   3.476  -0.237  22.631
  780POPC   D2A21290   3.550  -0.118  22.489
  780POPC   C3A21291   3.623   0.002  22.346
  780POPC   C4A21292   3.696   0.121  22.203
  780POPC   C1B21293   3.590  -0.387  22.564
  780POPC   C2B21294   3.663  -0.268  22.421
  780POPC   C3B21295   3.736  -0.149  22.279
  780POPC   C4B21296   3.810  -0.029  22.136
  781POPC   NC321297  -7.128   5.459  13.909
  781POPC   PO421298  -6.939   5.510  13.867
  781POPC   GL121299  -6.750   5.561  13.825
  781POPC   GL221300  -6.729   5.564  13.923
  781POPC   C1A21301  -6.561   5.612  13.784
  781POPC   D2A21302  -6.373   5.664  13.742
  781POPC   C3A21303  -6.184   5.715  13.701
  781POPC   C4A21304  -5.995   5.766  13.659
  781POPC   C1B21305  -6.510   5.419  13.779
  781POPC   C2B21306  -6.321   5.470  13.737
  781POPC   C3B21307  -6.133   5.522  13.695
  781POPC   C4B21308  -5.944   5.573  13.654
  782POPC   NC321309   4.975   8.558  -7.393
  782POPC   PO421310   5.027   8.573  -7.200
  782POPC   GL121311   5.079   8.588  -7.007
  782POPC   GL221312   5.062   8.490  -6.995
  782POPC   C1A21313   5.131   8.603  -6.815
  782POPC   D2A21314   5.183   8.618  -6.622
  782POPC   C3A21315   5.235   8.633  -6.430
  782POPC   C4A21316   5.287   8.648  -6.237
  782POPC   C1B21317   5.321   8.564  -6.863
  782POPC   C2B21318   5.373   8.579  -6.670
  782POPC   C3B21319   5.425   8.594  -6.478
  782POPC   C4B21320   5.477   8.609  -6.285
  783POPC   NC321321  18.403   7.758  25.698
  783POPC   PO421322  18.312   7.789  25.523
  783POPC   GL121323  18.221   7.820  25.348
  783POPC   GL221324  18.253   7.915  25.348
  783POPC   C1A21325  18.130   7.851  25.172
  783POPC   D2A21326  18.040   7.883  24.997
  783POPC   C3A21327  17.949   7.914  24.821
  783POPC   C4A21328  17.858   7.945  24.646
  783POPC   C1B21329  18.297   7.795  25.076
  783POPC   C2B21330  18.206   7.827  24.901
  783POPC   C3B21331  18.115   7.858  24.725
  783POPC   C4B21332  18.024   7.889  24.550
  784POPC   NC321333  -2.205  17.272  21.189
  784POPC   PO421334  -2.075  17.191  21.061
  784POPC   GL121335  -1.945  17.110  20.933
  784POPC   GL221336  -1.892  17.195  20.932
  784POPC   C1A21337  -1.815  17.028  20.805
  784POPC   D2A21338  -1.684  16.947  20.676
  784POPC   C3A21339  -1.554  16.865  20.548
  784POPC   C4A21340  -1.424  16.784  20.420
  784POPC   C1B21341  -1.705  16.962  20.958
  784POPC   C2B21342  -1.575  16.881  20.830
  784POPC   C3B21343  -1.444  16.799  20.702
  784POPC   C4B21344  -1.314  16.718  20.574
  785POPC   NC321345  10.706   8.644  27.940
  785POPC   PO421346  10.697   8.659  27.741
  785POPC   GL121347  10.688   8.674  27.542
  785POPC   GL221348  10.769   8.616  27.534
  785POPC   C1A21349  10.679   8.688  27.343
  785POPC   D2A21350  10.670   8.703  27.143
  785POPC   C3A21351  10.661   8.717  26.944
  785POPC   C4A21352  10.652   8.732  26.745
  785POPC   C1B21353  10.563   8.525  27.336
  785POPC   C2B21354  10.554   8.540  27.137
  785POPC   C3B21355  10.545   8.554  26.937
  785POPC   C4B21356  10.536   8.569  26.738
  786POPC   NC321357  12.341   1.066  25.466
  786POPC   PO421358  12.316   1.168  25.296
  786POPC   GL121359  12.291   1.270  25.126
  786POPC   GL221360  12.301   1.356  25.176
  786POPC   C1A21361  12.266   1.373  24.956
  786POPC   D2A21362  12.241   1.475  24.786
  786POPC   C3A21363  12.216   1.578  24.616
  786POPC   C4A21364  12.191   1.680  24.446
  786POPC   C1B21365  12.463   1.369  24.924
  786POPC   C2B21366  12.438   1.471  24.754
  786POPC   C3B21367  12.413   1.574  24.584
  786POPC   C4B21368  12.388   1.676  24.414
  787POPC   NC321369  10.502  11.324  27.949
  787POPC   PO421370  10.497  11.307  27.750
  787POPC   GL121371  10.492  11.290  27.551
  787POPC   GL221372  10.516  11.193  27.558
  787POPC   C1A21373  10.487  11.273  27.352
  787POPC   D2A21374  10.481  11.256  27.152
  787POPC   C3A21375  10.476  11.239  26.953
  787POPC   C4A21376  10.471  11.222  26.754
  787POPC   C1B21377  10.293  11.225  27.361
  787POPC   C2B21378  10.287  11.208  27.162
  787POPC   C3B21379  10.282  11.191  26.962
  787POPC   C4B21380  10.277  11.174  26.763
  788POPC   NC321381  -7.444  15.003  11.274
  788POPC   PO421382  -7.253  14.945  11.260
  788POPC   GL121383  -7.062  14.887  11.246
  788POPC   GL221384  -7.088  14.795  11.275
  788POPC   C1A21385  -6.871  14.829  11.231
  788POPC   D2A21386  -6.681  14.771  11.217
  788POPC   C3A21387  -6.490  14.713  11.202
  788POPC   C4A21388  -6.299  14.655  11.188
  788POPC   C1B21389  -6.902  14.777  11.041
  788POPC   C2B21390  -6.711  14.719  11.026
  788POPC   C3B21391  -6.520  14.661  11.012
  788POPC   C4B21392  -6.329  14.603  10.997
  789POPC   NC321393  13.293  27.678  11.085
  789POPC   PO421394  13.258  27.481  11.072
  789POPC   GL121395  13.223  27.284  11.059
  789POPC   GL221396  13.320  27.268  11.043
  789POPC   C1A21397  13.188  27.088  11.046
  789POPC   D2A21398  13.153  26.891  11.034
  789POPC   C3A21399  13.118  26.695  11.021
  789POPC   C4A21400  13.083  26.498  11.008
  789POPC   C1B21401  13.219  27.070  11.243
  789POPC   C2B21402  13.184  26.873  11.230
  789POPC   C3B21403  13.149  26.676  11.218
  789POPC   C4B21404  13.114  26.480  11.205
  790POPC   NC321405   9.994   8.702  -8.065
  790POPC   PO421406   9.997   8.718  -7.866
  790POPC   GL121407  10.000   8.734  -7.667
  790POPC   GL221408  10.099   8.725  -7.667
  790POPC   C1A21409  10.002   8.750  -7.467
  790POPC   D2A21410  10.005   8.765  -7.268
  790POPC   C3A21411  10.007   8.781  -7.068
  790POPC   C4A21412  10.010   8.797  -6.869
  790POPC   C1B21413  10.019   8.948  -7.483
  790POPC   C2B21414  10.022   8.964  -7.284
  790POPC   C3B21415  10.024   8.980  -7.084
  790POPC   C4B21416  10.027   8.996  -6.885
  791POPC   NC321417   3.881   5.065  -6.421
  791POPC   PO421418   3.947   5.118  -6.240
  791POPC   GL121419   4.013   5.171  -6.059
  791POPC   GL221420   4.089   5.106  -6.067
  791POPC   C1A21421   4.079   5.224  -5.878
  791POPC   D2A21422   4.146   5.277  -5.696
  791POPC   C3A21423   4.212   5.330  -5.515
  791POPC   C4A21424   4.278   5.383  -5.334
  791POPC   C1B21425   4.192   5.367  -5.961
  791POPC   C2B21426   4.259   5.420  -5.779
  791POPC   C3B21427   4.325   5.473  -5.598
  791POPC   C4B21428   4.391   5.526  -5.417
  792POPC   NC321429  21.965  23.337   8.392
  792POPC   PO421430  21.833  23.188   8.409
  792POPC   GL121431  21.701  23.039   8.426
  792POPC   GL221432  21.666  23.060   8.335
  792POPC   C1A21433  21.569  22.890   8.443
  792POPC   D2A21434  21.437  22.740   8.460
  792POPC   C3A21435  21.305  22.591   8.477
  792POPC   C4A21436  21.173  22.442   8.494
  792POPC   C1B21437  21.701  22.763   8.362
  792POPC   C2B21438  21.569  22.614   8.379
  792POPC   C3B21439  21.437  22.465   8.396
  792POPC   C4B21440  21.305  22.316   8.413
  793POPC   NC321441  -6.519  15.278   4.712
  793POPC   PO421442  -6.337  15.219   4.771
  793POPC   GL121443  -6.155  15.160   4.830
  793POPC   GL221444  -6.170  15.204   4.919
  793POPC   C1A21445  -5.974  15.100   4.890
  793POPC   D2A21446  -5.792  15.041   4.949
  793POPC   C3A21447  -5.611  14.981   5.009
  793POPC   C4A21448  -5.429  14.922   5.068
  793POPC   C1B21449  -6.052  14.931   4.961
  793POPC   C2B21450  -5.871  14.871   5.020
  793POPC   C3B21451  -5.689  14.812   5.080
  793POPC   C4B21452  -5.508  14.752   5.139
  794POPC   NC321453  10.386  -7.258   4.454
  794POPC   PO421454  10.386  -7.068   4.516
  794POPC   GL121455  10.386  -6.878   4.578
  794POPC   GL221456  10.393  -6.847   4.483
  794POPC   C1A21457  10.386  -6.688   4.640
  794POPC   D2A21458  10.385  -6.498   4.703
  794POPC   C3A21459  10.385  -6.308   4.765
  794POPC   C4A21460  10.385  -6.118   4.827
  794POPC   C1B21461  10.186  -6.684   4.626
  794POPC   C2B21462  10.186  -6.494   4.689
  794POPC   C3B21463  10.186  -6.304   4.751
  794POPC   C4B21464  10.186  -6.114   4.813
  795POPC   NC321465   0.419  21.910   0.219
  795POPC   PO421466   0.523  21.774   0.322
  795POPC   GL121467   0.627  21.638   0.425
  795POPC   GL221468   0.557  21.638   0.496
  795POPC   C1A21469   0.731  21.501   0.527
  795POPC   D2A21470   0.836  21.365   0.630
  795POPC   C3A21471   0.940  21.228   0.732
  795POPC   C4A21472   1.044  21.092   0.835
  795POPC   C1B21473   0.633  21.355   0.433
  795POPC   C2B21474   0.737  21.219   0.535
  795POPC   C3B21475   0.841  21.082   0.638
  795POPC   C4B21476   0.945  20.946   0.741
  796POPC   NC321477  25.208   4.697   1.922
  796POPC   PO421478  25.039   4.755   2.011
  796POPC   GL121479  24.870   4.813   2.100
  796POPC   GL221480  24.818   4.790   2.018
  796POPC   C1A21481  24.701   4.871   2.190
  796POPC   D2A21482  24.531   4.929   2.279
  796POPC   C3A21483  24.362   4.987   2.369
  796POPC   C4A21484  24.193   5.045   2.458
  796POPC   C1B21485  24.674   4.685   2.259
  796POPC   C2B21486  24.504   4.743   2.348
  796POPC   C3B21487  24.335   4.801   2.438
  796POPC   C4B21488  24.166   4.859   2.527
  797POPC   NC321489  11.933  -7.840  11.862
  797POPC   PO421490  11.915  -7.642  11.840
  797POPC   GL121491  11.897  -7.444  11.818
  797POPC   GL221492  11.953  -7.448  11.735
  797POPC   C1A21493  11.878  -7.246  11.796
  797POPC   D2A21494  11.860  -7.048  11.773
  797POPC   C3A21495  11.841  -6.850  11.751
  797POPC   C4A21496  11.823  -6.652  11.729
  797POPC   C1B21497  11.714  -7.274  11.685
  797POPC   C2B21498  11.696  -7.076  11.663
  797POPC   C3B21499  11.677  -6.878  11.640
  797POPC   C4B21500  11.659  -6.680  11.618
  798POPC   NC321501   8.760  26.558  17.050
  798POPC   PO421502   8.774  26.375  16.971
  798POPC   GL121503   8.788  26.192  16.892
  798POPC   GL221504   8.866  26.221  16.838
  798POPC   C1A21505   8.802  26.009  16.813
  798POPC   D2A21506   8.815  25.826  16.733
  798POPC   C3A21507   8.829  25.643  16.654
  798POPC   C4A21508   8.843  25.460  16.575
  798POPC   C1B21509   8.924  25.954  16.961
  798POPC   C2B21510   8.938  25.771  16.881
  798POPC   C3B21511   8.952  25.588  16.802
  798POPC   C4B21512   8.966  25.405  16.723
  799POPC   NC321513  -8.212   9.925  10.690
  799POPC   PO421514  -8.012   9.927  10.680
  799POPC   GL121515  -7.812   9.929  10.670
  799POPC   GL221516  -7.809   9.993  10.746
  799POPC   C1A21517  -7.612   9.930  10.660
  799POPC   D2A21518  -7.413   9.932  10.649
  799POPC   C3A21519  -7.213   9.933  10.639
  799POPC   C4A21520  -7.013   9.935  10.629
  799POPC   C1B21521  -7.605   9.777  10.788
  799POPC   C2B21522  -7.405   9.779  10.778
  799POPC   C3B21523  -7.205   9.781  10.768
  799POPC   C4B21524  -7.005   9.782  10.758
  800POPC   NC321525  24.245   1.897   2.543
  800POPC   PO421526  24.087   1.987   2.626
  800POPC   GL121527  23.929   2.077   2.709
  800POPC   GL221528  23.967   2.166   2.685
  800POPC   C1A21529  23.771   2.167   2.792
  800POPC   D2A21530  23.612   2.256   2.875
  800POPC   C3A21531  23.454   2.346   2.958
  800POPC   C4A21532  23.296   2.436   3.041
  800POPC   C1B21533  23.675   2.160   2.617
  800POPC   C2B21534  23.516   2.250   2.700
  800POPC   C3B21535  23.358   2.339   2.783
  800POPC   C4B21536  23.200   2.429   2.866
  801POPC   NC321537  -5.818  18.768  11.827
  801POPC   PO421538  -5.645  18.671  11.804
  801POPC   GL121539  -5.472  18.574  11.781
  801POPC   GL221540  -5.475  18.545  11.877
  801POPC   C1A21541  -5.298  18.477  11.759
  801POPC   D2A21542  -5.125  18.380  11.736
  801POPC   C3A21543  -4.951  18.283  11.714
  801POPC   C4A21544  -4.778  18.186  11.691
  801POPC   C1B21545  -5.398  18.312  11.705
  801POPC   C2B21546  -5.224  18.215  11.682
  801POPC   C3B21547  -5.051  18.118  11.660
  801POPC   C4B21548  -4.877  18.021  11.637
  802POPC   NC321549   7.823  -6.319  17.438
  802POPC   PO421550   7.846  -6.138  17.355
  802POPC   GL121551   7.869  -5.957  17.272
  802POPC   GL221552   7.965  -5.957  17.299
  802POPC   C1A21553   7.892  -5.777  17.189
  802POPC   D2A21554   7.914  -5.596  17.107
  802POPC   C3A21555   7.937  -5.416  17.024
  802POPC   C4A21556   7.960  -5.235  16.941
  802POPC   C1B21557   7.939  -5.863  17.015
  802POPC   C2B21558   7.962  -5.682  16.932
  802POPC   C3B21559   7.985  -5.502  16.850
  802POPC   C4B21560   8.008  -5.321  16.767
  803POPC   NC321561  14.222  23.530  20.991
  803POPC   PO421562  14.177  23.378  20.869
  803POPC   GL121563  14.132  23.226  20.747
  803POPC   GL221564  14.147  23.285  20.668
  803POPC   C1A21565  14.087  23.074  20.625
  803POPC   D2A21566  14.041  22.923  20.503
  803POPC   C3A21567  13.996  22.771  20.381
  803POPC   C4A21568  13.951  22.619  20.259
  803POPC   C1B21569  14.279  23.020  20.621
  803POPC   C2B21570  14.234  22.868  20.499
  803POPC   C3B21571  14.189  22.717  20.377
  803POPC   C4B21572  14.143  22.565  20.255
  804POPC   NC321573   3.984  19.214  -4.484
  804POPC   PO421574   4.049  19.116  -4.322
  804POPC   GL121575   4.114  19.018  -4.160
  804POPC   GL221576   4.200  18.997  -4.207
  804POPC   C1A21577   4.179  18.920  -3.998
  804POPC   D2A21578   4.244  18.822  -3.837
  804POPC   C3A21579   4.309  18.724  -3.675
  804POPC   C4A21580   4.374  18.626  -3.513
  804POPC   C1B21581   4.259  19.089  -3.928
  804POPC   C2B21582   4.324  18.991  -3.766
  804POPC   C3B21583   4.389  18.893  -3.604
  804POPC   C4B21584   4.454  18.795  -3.443
  805POPC   NC321585   2.006   5.659  -5.785
  805POPC   PO421586   2.093   5.706  -5.611
  805POPC   GL121587   2.180   5.753  -5.437
  805POPC   GL221588   2.185   5.656  -5.414
  805POPC   C1A21589   2.267   5.800  -5.263
  805POPC   D2A21590   2.354   5.846  -5.090
  805POPC   C3A21591   2.441   5.893  -4.916
  805POPC   C4A21592   2.528   5.940  -4.742
  805POPC   C1B21593   2.447   5.789  -5.350
  805POPC   C2B21594   2.534   5.836  -5.177
  805POPC   C3B21595   2.621   5.882  -5.003
  805POPC   C4B21596   2.708   5.929  -4.829
  806POPC   NC321597  14.149   5.213  -6.955
  806POPC   PO421598  14.099   5.267  -6.769
  806POPC   GL121599  14.049   5.321  -6.583
  806POPC   GL221600  14.021   5.411  -6.617
  806POPC   C1A21601  13.999   5.375  -6.397
  806POPC   D2A21602  13.949   5.428  -6.211
  806POPC   C3A21603  13.899   5.482  -6.025
  806POPC   C4A21604  13.849   5.536  -5.839
  806POPC   C1B21605  13.814   5.305  -6.427
  806POPC   C2B21606  13.764   5.359  -6.241
  806POPC   C3B21607  13.714   5.412  -6.055
  806POPC   C4B21608  13.664   5.466  -5.869
  807POPC   NC321609  27.824  10.579  10.482
  807POPC   PO421610  27.624  10.574  10.475
  807POPC   GL121611  27.424  10.569  10.468
  807POPC   GL221612  27.424  10.644  10.402
  807POPC   C1A21613  27.224  10.564  10.462
  807POPC   D2A21614  27.025  10.558  10.455
  807POPC   C3A21615  26.825  10.553  10.449
  807POPC   C4A21616  26.625  10.548  10.442
  807POPC   C1B21617  27.233  10.431  10.313
  807POPC   C2B21618  27.033  10.426  10.306
  807POPC   C3B21619  26.833  10.420  10.299
  807POPC   C4B21620  26.633  10.415  10.293
  808POPC   NC321621  22.006  23.326  11.080
  808POPC   PO421622  21.873  23.177  11.064
  808POPC   GL121623  21.740  23.028  11.048
  808POPC   GL221624  21.805  22.976  10.993
  808POPC   C1A21625  21.607  22.880  11.033
  808POPC   D2A21626  21.474  22.731  11.017
  808POPC   C3A21627  21.341  22.583  11.002
  808POPC   C4A21628  21.208  22.434  10.986
  808POPC   C1B21629  21.682  22.795  11.198
  808POPC   C2B21630  21.549  22.647  11.182
  808POPC   C3B21631  21.416  22.498  11.167
  808POPC   C4B21632  21.283  22.350  11.151
  809POPC   NC321633   7.678  26.830   3.701
  809POPC   PO421634   7.702  26.643   3.769
  809POPC   GL121635   7.726  26.456   3.837
  809POPC   GL221636   7.770  26.431   3.750
  809POPC   C1A21637   7.751  26.270   3.905
  809POPC   D2A21638   7.775  26.083   3.972
  809POPC   C3A21639   7.800  25.897   4.040
  809POPC   C4A21640   7.824  25.710   4.108
  809POPC   C1B21641   7.929  26.320   3.979
  809POPC   C2B21642   7.954  26.134   4.047
  809POPC   C3B21643   7.978  25.947   4.115
  809POPC   C4B21644   8.003  25.760   4.183
  810POPC   NC321645  19.997  -4.958   9.915
  810POPC   PO421646  19.887  -4.791   9.913
  810POPC   GL121647  19.777  -4.624   9.911
  810POPC   GL221648  19.854  -4.573   9.875
  810POPC   C1A21649  19.666  -4.457   9.909
  810POPC   D2A21650  19.556  -4.291   9.908
  810POPC   C3A21651  19.445  -4.124   9.906
  810POPC   C4A21652  19.335  -3.957   9.904
  810POPC   C1B21653  19.606  -4.499   9.723
  810POPC   C2B21654  19.496  -4.332   9.721
  810POPC   C3B21655  19.385  -4.165   9.720
  810POPC   C4B21656  19.275  -3.999   9.718
  811POPC   NC321657  21.623  16.148  22.043
  811POPC   PO421658  21.495  16.082  21.904
  811POPC   GL121659  21.367  16.016  21.765
  811POPC   GL221660  21.422  16.060  21.694
  811POPC   C1A21661  21.239  15.951  21.626
  811POPC   D2A21662  21.111  15.885  21.487
  811POPC   C3A21663  20.983  15.820  21.348
  811POPC   C4A21664  20.855  15.754  21.209
  811POPC   C1B21665  21.347  15.783  21.606
  811POPC   C2B21666  21.219  15.718  21.467
  811POPC   C3B21667  21.091  15.652  21.328
  811POPC   C4B21668  20.963  15.587  21.189
  812POPC   NC321669  20.427  21.595   1.163
  812POPC   PO421670  20.310  21.466   1.261
  812POPC   GL121671  20.193  21.337   1.359
  812POPC   GL221672  20.197  21.274   1.281
  812POPC   C1A21673  20.076  21.208   1.457
  812POPC   D2A21674  19.958  21.079   1.555
  812POPC   C3A21675  19.841  20.950   1.653
  812POPC   C4A21676  19.724  20.821   1.751
  812POPC   C1B21677  20.237  21.120   1.535
  812POPC   C2B21678  20.120  20.991   1.633
  812POPC   C3B21679  20.003  20.862   1.731
  812POPC   C4B21680  19.886  20.733   1.829
  813POPC   NC321681  27.046   9.171  15.529
  813POPC   PO421682  26.855   9.180  15.469
  813POPC   GL121683  26.664   9.189  15.409
  813POPC   GL221684  26.678   9.107  15.353
  813POPC   C1A21685  26.474   9.197  15.350
  813POPC   D2A21686  26.283   9.206  15.290
  813POPC   C3A21687  26.093   9.214  15.231
  813POPC   C4A21688  25.902   9.223  15.171
  813POPC   C1B21689  26.420   9.081  15.503
  813POPC   C2B21690  26.230   9.089  15.444
  813POPC   C3B21691  26.039   9.098  15.384
  813POPC   C4B21692  25.849   9.106  15.324
  814POPC   NC321693  25.079  13.625  18.996
  814POPC   PO421694  24.909  13.585  18.899
  814POPC   GL121695  24.739  13.545  18.802
  814POPC   GL221696  24.733  13.640  18.773
  814POPC   C1A21697  24.569  13.504  18.704
  814POPC   D2A21698  24.399  13.464  18.607
  814POPC   C3A21699  24.229  13.423  18.509
  814POPC   C4A21700  24.059  13.383  18.412
  814POPC   C1B21701  24.674  13.462  18.539
  814POPC   C2B21702  24.504  13.421  18.442
  814POPC   C3B21703  24.334  13.381  18.344
  814POPC   C4B21704  24.164  13.341  18.247
  815POPC   NC321705   4.778   0.454  -4.563
  815POPC   PO421706   4.839   0.564  -4.408
  815POPC   GL121707   4.900   0.674  -4.253
  815POPC   GL221708   4.861   0.607  -4.190
  815POPC   C1A21709   4.961   0.784  -4.097
  815POPC   D2A21710   5.023   0.895  -3.942
  815POPC   C3A21711   5.084   1.005  -3.786
  815POPC   C4A21712   5.145   1.115  -3.631
  815POPC   C1B21713   5.135   0.685  -4.095
  815POPC   C2B21714   5.196   0.795  -3.939
  815POPC   C3B21715   5.257   0.905  -3.784
  815POPC   C4B21716   5.318   1.015  -3.628
  816POPC   NC321717  -5.830  18.827  11.455
  816POPC   PO421718  -5.656  18.730  11.436
  816POPC   GL121719  -5.482  18.633  11.417
  816POPC   GL221720  -5.505  18.577  11.496
  816POPC   C1A21721  -5.308  18.536  11.397
  816POPC   D2A21722  -5.135  18.438  11.378
  816POPC   C3A21723  -4.961  18.341  11.358
  816POPC   C4A21724  -4.787  18.244  11.339
  816POPC   C1B21725  -5.397  18.402  11.277
  816POPC   C2B21726  -5.223  18.305  11.258
  816POPC   C3B21727  -5.049  18.207  11.239
  816POPC   C4B21728  -4.875  18.110  11.219
  817POPC   NC321729   5.933  -7.422  12.693
  817POPC   PO421730   5.976  -7.229  12.664
  817POPC   GL121731   6.019  -7.036  12.635
  817POPC   GL221732   6.051  -7.029  12.729
  817POPC   C1A21733   6.062  -6.843  12.605
  817POPC   D2A21734   6.106  -6.650  12.576
  817POPC   C3A21735   6.149  -6.457  12.546
  817POPC   C4A21736   6.192  -6.264  12.517
  817POPC   C1B21737   6.247  -6.893  12.547
  817POPC   C2B21738   6.290  -6.700  12.518
  817POPC   C3B21739   6.333  -6.507  12.488
  817POPC   C4B21740   6.377  -6.314  12.459
  818POPC   NC321741   8.498  25.950  18.296
  818POPC   PO421742   8.514  25.773  18.205
  818POPC   GL121743   8.530  25.596  18.114
  818POPC   GL221744   8.615  25.578  18.164
  818POPC   C1A21745   8.546  25.419  18.022
  818POPC   D2A21746   8.562  25.241  17.931
  818POPC   C3A21747   8.578  25.064  17.839
  818POPC   C4A21748   8.594  24.887  17.748
  818POPC   C1B21749   8.441  25.333  18.169
  818POPC   C2B21750   8.457  25.156  18.078
  818POPC   C3B21751   8.473  24.979  17.987
  818POPC   C4B21752   8.489  24.802  17.895
  819POPC   NC321753   9.598  17.683  26.282
  819POPC   PO421754   9.595  17.603  26.099
  819POPC   GL121755   9.592  17.523  25.916
  819POPC   GL221756   9.673  17.577  25.891
  819POPC   C1A21757   9.590  17.444  25.732
  819POPC   D2A21758   9.587  17.364  25.549
  819POPC   C3A21759   9.585  17.285  25.365
  819POPC   C4A21760   9.582  17.205  25.182
  819POPC   C1B21761   9.709  17.296  25.795
  819POPC   C2B21762   9.706  17.216  25.611
  819POPC   C3B21763   9.703  17.136  25.428
  819POPC   C4B21764   9.701  17.057  25.245
  820POPC   NC321765  19.051  25.377  11.819
  820POPC   PO421766  18.954  25.202  11.808
  820POPC   GL121767  18.857  25.027  11.797
  820POPC   GL221768  18.915  25.001  11.719
  820POPC   C1A21769  18.761  24.852  11.785
  820POPC   D2A21770  18.664  24.678  11.774
  820POPC   C3A21771  18.568  24.503  11.762
  820POPC   C4A21772  18.471  24.328  11.751
  820POPC   C1B21773  18.893  24.771  11.911
  820POPC   C2B21774  18.797  24.596  11.900
  820POPC   C3B21775  18.700  24.421  11.888
  820POPC   C4B21776  18.603  24.247  11.877
  821POPC   NC321777  26.498   3.144  11.506
  821POPC   PO421778  26.313   3.218  11.487
  821POPC   GL121779  26.128   3.292  11.468
  821POPC   GL221780  26.141   3.300  11.370
  821POPC   C1A21781  25.943   3.367  11.450
  821POPC   D2A21782  25.759   3.441  11.431
  821POPC   C3A21783  25.574   3.516  11.413
  821POPC   C4A21784  25.389   3.590  11.394
  821POPC   C1B21785  25.871   3.182  11.425
  821POPC   C2B21786  25.687   3.256  11.407
  821POPC   C3B21787  25.502   3.331  11.388
  821POPC   C4B21788  25.317   3.405  11.370
  822POPC   NC321789   8.177   6.265  -7.614
  822POPC   PO421790   8.192   6.308  -7.419
  822POPC   GL121791   8.207   6.351  -7.224
  822POPC   GL221792   8.284   6.412  -7.243
  822POPC   C1A21793   8.222   6.393  -7.029
  822POPC   D2A21794   8.237   6.436  -6.835
  822POPC   C3A21795   8.252   6.478  -6.640
  822POPC   C4A21796   8.267   6.521  -6.445
  822POPC   C1B21797   8.095   6.546  -7.053
  822POPC   C2B21798   8.110   6.588  -6.858
  822POPC   C3B21799   8.125   6.631  -6.663
  822POPC   C4B21800   8.140   6.674  -6.469
  823POPC   NC321801   4.726  -0.588  -3.777
  823POPC   PO421802   4.784  -0.470  -3.626
  823POPC   GL121803   4.842  -0.352  -3.475
  823POPC   GL221804   4.827  -0.427  -3.411
  823POPC   C1A21805   4.899  -0.233  -3.325
  823POPC   D2A21806   4.957  -0.115  -3.174
  823POPC   C3A21807   5.014   0.004  -3.024
  823POPC   C4A21808   5.072   0.122  -2.873
  823POPC   C1B21809   5.089  -0.292  -3.351
  823POPC   C2B21810   5.146  -0.174  -3.200
  823POPC   C3B21811   5.204  -0.055  -3.049
  823POPC   C4B21812   5.261   0.063  -2.899
  824POPC   NC321813  21.973  14.977  22.223
  824POPC   PO421814  21.842  14.922  22.082
  824POPC   GL121815  21.711  14.867  21.941
  824POPC   GL221816  21.752  14.932  21.877
  824POPC   C1A21817  21.580  14.812  21.801
  824POPC   D2A21818  21.448  14.757  21.660
  824POPC   C3A21819  21.317  14.702  21.520
  824POPC   C4A21820  21.186  14.647  21.379
  824POPC   C1B21821  21.706  14.670  21.738
  824POPC   C2B21822  21.575  14.615  21.598
  824POPC   C3B21823  21.443  14.560  21.457
  824POPC   C4B21824  21.312  14.505  21.317
  825POPC   NC321825  17.645  -6.026  12.855
  825POPC   PO421826  17.557  -5.849  12.823
  825POPC   GL121827  17.469  -5.672  12.791
  825POPC   GL221828  17.549  -5.626  12.831
  825POPC   C1A21829  17.382  -5.495  12.759
  825POPC   D2A21830  17.294  -5.319  12.726
  825POPC   C3A21831  17.207  -5.142  12.694
  825POPC   C4A21832  17.119  -4.965  12.662
  825POPC   C1B21833  17.467  -5.486  12.578
  825POPC   C2B21834  17.380  -5.309  12.546
  825POPC   C3B21835  17.292  -5.132  12.514
  825POPC   C4B21836  17.205  -4.956  12.481
  826POPC   NC321837  -6.353   2.310  11.793
  826POPC   PO421838  -6.173   2.393  11.771
  826POPC   GL121839  -5.993   2.476  11.749
  826POPC   GL221840  -6.003   2.522  11.837
  826POPC   C1A21841  -5.812   2.560  11.726
  826POPC   D2A21842  -5.632   2.643  11.704
  826POPC   C3A21843  -5.451   2.727  11.681
  826POPC   C4A21844  -5.271   2.810  11.659
  826POPC   C1B21845  -5.728   2.402  11.816
  826POPC   C2B21846  -5.548   2.486  11.794
  826POPC   C3B21847  -5.367   2.569  11.772
  826POPC   C4B21848  -5.187   2.653  11.749
  827POPC   NC321849  -8.115   8.378  10.925
  827POPC   PO421850  -7.917   8.398  10.910
  827POPC   GL121851  -7.719   8.418  10.895
  827POPC   GL221852  -7.720   8.486  10.969
  827POPC   C1A21853  -7.520   8.438  10.880
  827POPC   D2A21854  -7.322   8.459  10.866
  827POPC   C3A21855  -7.123   8.479  10.851
  827POPC   C4A21856  -6.925   8.499  10.836
  827POPC   C1B21857  -7.495   8.293  11.015
  827POPC   C2B21858  -7.297   8.313  11.000
  827POPC   C3B21859  -7.099   8.333  10.985
  827POPC   C4B21860  -6.900   8.353  10.971
  828POPC   NC321861  -2.801   8.939  -2.825
  828POPC   PO421862  -2.659   8.948  -2.684
  828POPC   GL121863  -2.517   8.957  -2.543
  828POPC   GL221864  -2.548   9.049  -2.518
  828POPC   C1A21865  -2.375   8.966  -2.403
  828POPC   D2A21866  -2.233   8.976  -2.262
  828POPC   C3A21867  -2.091   8.985  -2.122
  828POPC   C4A21868  -1.949   8.994  -1.981
  828POPC   C1B21869  -2.501   8.886  -2.270
  828POPC   C2B21870  -2.359   8.895  -2.130
  828POPC   C3B21871  -2.217   8.904  -1.989
  828POPC   C4B21872  -2.075   8.913  -1.848
  829POPC   NC321873  23.508  21.165  13.560
  829POPC   PO421874  23.359  21.038  13.517
  829POPC   GL121875  23.210  20.911  13.474
  829POPC   GL221876  23.183  20.969  13.397
  829POPC   C1A21877  23.062  20.784  13.432
  829POPC   D2A21878  22.913  20.657  13.389
  829POPC   C3A21879  22.765  20.530  13.347
  829POPC   C4A21880  22.616  20.403  13.304
  829POPC   C1B21881  23.184  20.681  13.312
  829POPC   C2B21882  23.036  20.554  13.269
  829POPC   C3B21883  22.887  20.427  13.227
  829POPC   C4B21884  22.739  20.300  13.184
  830POPC   NC321885  23.110  17.699   0.371
  830POPC   PO421886  22.962  17.612   0.474
  830POPC   GL121887  22.814  17.525   0.577
  830POPC   GL221888  22.762  17.513   0.492
  830POPC   C1A21889  22.666  17.439   0.680
  830POPC   D2A21890  22.517  17.352   0.782
  830POPC   C3A21891  22.369  17.266   0.885
  830POPC   C4A21892  22.221  17.179   0.988
  830POPC   C1B21893  22.752  17.260   0.654
  830POPC   C2B21894  22.604  17.174   0.757
  830POPC   C3B21895  22.456  17.087   0.859
  830POPC   C4B21896  22.307  17.000   0.962
  831POPC   NC321897  12.856  22.376  -2.879
  831POPC   PO421898  12.831  22.241  -2.734
  831POPC   GL121899  12.806  22.106  -2.589
  831POPC   GL221900  12.891  22.137  -2.546
  831POPC   C1A21901  12.782  21.970  -2.444
  831POPC   D2A21902  12.757  21.835  -2.299
  831POPC   C3A21903  12.733  21.699  -2.154
  831POPC   C4A21904  12.708  21.564  -2.009
  831POPC   C1B21905  12.678  22.104  -2.337
  831POPC   C2B21906  12.654  21.968  -2.192
  831POPC   C3B21907  12.629  21.833  -2.047
  831POPC   C4B21908  12.604  21.697  -1.902
  832POPC   NC321909  24.405  20.555  11.525
  832POPC   PO421910  24.244  20.437  11.506
  832POPC   GL121911  24.083  20.319  11.487
  832POPC   GL221912  24.054  20.372  11.407
  832POPC   C1A21913  23.923  20.202  11.468
  832POPC   D2A21914  23.762  20.084  11.449
  832POPC   C3A21915  23.602  19.967  11.430
  832POPC   C4A21916  23.441  19.849  11.411
  832POPC   C1B21917  24.027  20.079  11.350
  832POPC   C2B21918  23.866  19.961  11.331
  832POPC   C3B21919  23.706  19.844  11.312
  832POPC   C4B21920  23.545  19.726  11.293
  833POPC   NC321921  15.976  -2.281  -1.796
  833POPC   PO421922  15.912  -2.143  -1.666
  833POPC   GL121923  15.848  -2.005  -1.536
  833POPC   GL221924  15.830  -1.942  -1.612
  833POPC   C1A21925  15.783  -1.868  -1.406
  833POPC   D2A21926  15.719  -1.730  -1.276
  833POPC   C3A21927  15.654  -1.593  -1.146
  833POPC   C4A21928  15.590  -1.455  -1.016
  833POPC   C1B21929  15.597  -1.940  -1.422
  833POPC   C2B21930  15.533  -1.802  -1.292
  833POPC   C3B21931  15.469  -1.665  -1.162
  833POPC   C4B21932  15.404  -1.527  -1.032
  834POPC   NC321933  15.981  24.387  18.898
  834POPC   PO421934  15.912  24.227  18.800
  834POPC   GL121935  15.843  24.067  18.702
  834POPC   GL221936  15.888  24.007  18.768
  834POPC   C1A21937  15.774  23.907  18.604
  834POPC   D2A21938  15.704  23.747  18.506
  834POPC   C3A21939  15.635  23.587  18.408
  834POPC   C4A21940  15.566  23.427  18.310
  834POPC   C1B21941  15.609  23.909  18.717
  834POPC   C2B21942  15.540  23.749  18.619
  834POPC   C3B21943  15.470  23.589  18.521
  834POPC   C4B21944  15.401  23.429  18.423
  835POPC   NC321945  12.849  19.744  -4.942
  835POPC   PO421946  12.816  19.637  -4.776
  835POPC   GL121947  12.783  19.530  -4.610
  835POPC   GL221948  12.874  19.552  -4.577
  835POPC   C1A21949  12.750  19.423  -4.445
  835POPC   D2A21950  12.716  19.316  -4.279
  835POPC   C3A21951  12.683  19.209  -4.114
  835POPC   C4A21952  12.650  19.102  -3.948
  835POPC   C1B21953  12.677  19.586  -4.354
  835POPC   C2B21954  12.644  19.479  -4.189
  835POPC   C3B21955  12.611  19.372  -4.023
  835POPC   C4B21956  12.577  19.265  -3.857
  836POPC   NC321957  -6.302   7.439   2.340
  836POPC   PO421958  -6.122   7.465   2.424
  836POPC   GL121959  -5.942   7.491   2.508
  836POPC   GL221960  -5.969   7.432   2.584
  836POPC   C1A21961  -5.762   7.516   2.592
  836POPC   D2A21962  -5.583   7.542   2.675
  836POPC   C3A21963  -5.403   7.567   2.759
  836POPC   C4A21964  -5.223   7.593   2.843
  836POPC   C1B21965  -5.693   7.357   2.492
  836POPC   C2B21966  -5.514   7.382   2.576
  836POPC   C3B21967  -5.334   7.408   2.660
  836POPC   C4B21968  -5.154   7.434   2.744
  837POPC   NC321969  22.729  22.375   7.164
  837POPC   PO421970  22.584  22.242   7.197
  837POPC   GL121971  22.439  22.109   7.230
  837POPC   GL221972  22.409  22.117   7.135
  837POPC   C1A21973  22.294  21.975   7.264
  837POPC   D2A21974  22.148  21.842   7.297
  837POPC   C3A21975  22.003  21.708   7.331
  837POPC   C4A21976  21.858  21.575   7.364
  837POPC   C1B21977  22.418  21.827   7.213
  837POPC   C2B21978  22.273  21.694   7.246
  837POPC   C3B21979  22.127  21.560   7.279
  837POPC   C4B21980  21.982  21.427   7.313
  838POPC   NC321981   7.087  13.781  -7.522
  838POPC   PO421982   7.116  13.739  -7.329
  838POPC   GL121983   7.145  13.697  -7.136
  838POPC   GL221984   7.243  13.682  -7.154
  838POPC   C1A21985   7.175  13.656  -6.942
  838POPC   D2A21986   7.204  13.614  -6.749
  838POPC   C3A21987   7.234  13.573  -6.555
  838POPC   C4A21988   7.263  13.531  -6.362
  838POPC   C1B21989   7.212  13.849  -6.906
  838POPC   C2B21990   7.242  13.807  -6.713
  838POPC   C3B21991   7.271  13.766  -6.520
  838POPC   C4B21992   7.300  13.724  -6.326
  839POPC   NC321993   9.359  -6.465  17.408
  839POPC   PO421994   9.367  -6.283  17.326
  839POPC   GL121995   9.375  -6.101  17.244
  839POPC   GL221996   9.456  -6.128  17.192
  839POPC   C1A21997   9.383  -5.919  17.161
  839POPC   D2A21998   9.390  -5.737  17.079
  839POPC   C3A21999   9.398  -5.555  16.996
  839POPC   C4A22000   9.406  -5.373  16.914
  839POPC   C1B22001   9.267  -5.982  17.011
  839POPC   C2B22002   9.275  -5.800  16.928
  839POPC   C3B22003   9.283  -5.618  16.846
  839POPC   C4B22004   9.291  -5.436  16.763
  840POPC   NC322005  23.613  20.289  15.368
  840POPC   PO422006  23.464  20.170  15.307
  840POPC   GL122007  23.315  20.051  15.246
  840POPC   GL222008  23.305  20.105  15.163
  840POPC   C1A22009  23.167  19.931  15.186
  840POPC   D2A22010  23.018  19.812  15.125
  840POPC   C3A22011  22.870  19.692  15.065
  840POPC   C4A22012  22.721  19.573  15.004
  840POPC   C1B22013  23.299  19.814  15.092
  840POPC   C2B22014  23.150  19.694  15.032
  840POPC   C3B22015  23.002  19.575  14.971
  840POPC   C4B22016  22.853  19.456  14.911
  841POPC   NC322017   1.613  13.229  -5.762
  841POPC   PO422018   1.708  13.197  -5.589
  841POPC   GL122019   1.803  13.165  -5.416
  841POPC   GL222020   1.760  13.246  -5.377
  841POPC   C1A22021   1.898  13.132  -5.243
  841POPC   D2A22022   1.994  13.100  -5.071
  841POPC   C3A22023   2.089  13.067  -4.898
  841POPC   C4A22024   2.184  13.035  -4.725
  841POPC   C1B22025   1.745  13.021  -5.180
  841POPC   C2B22026   1.840  12.989  -5.007
  841POPC   C3B22027   1.935  12.956  -4.834
  841POPC   C4B22028   2.030  12.924  -4.661
  842POPC   NC322029  24.674  10.950  -0.243
  842POPC   PO422030  24.512  10.941  -0.126
  842POPC   GL122031  24.350  10.932  -0.009
  842POPC   GL222032  24.326  11.026  -0.035
  842POPC   C1A22033  24.188  10.923   0.108
  842POPC   D2A22034  24.025  10.914   0.224
  842POPC   C3A22035  23.863  10.905   0.341
  842POPC   C4A22036  23.701  10.896   0.458
  842POPC   C1B22037  24.080  10.854  -0.046
  842POPC   C2B22038  23.918  10.845   0.070
  842POPC   C3B22039  23.756  10.836   0.187
  842POPC   C4B22040  23.594  10.827   0.304
  843POPC   NC322041  -2.062  23.050   6.530
  843POPC   PO422042  -1.935  22.900   6.568
  843POPC   GL122043  -1.808  22.750   6.606
  843POPC   GL222044  -1.736  22.799   6.558
  843POPC   C1A22045  -1.682  22.600   6.644
  843POPC   D2A22046  -1.555  22.449   6.682
  843POPC   C3A22047  -1.429  22.299   6.720
  843POPC   C4A22048  -1.302  22.149   6.758
  843POPC   C1B22049  -1.628  22.688   6.815
  843POPC   C2B22050  -1.501  22.538   6.853
  843POPC   C3B22051  -1.375  22.388   6.891
  843POPC   C4B22052  -1.248  22.238   6.929
  844POPC   NC322053  19.232  24.464   4.421
  844POPC   PO422054  19.131  24.302   4.481
  844POPC   GL122055  19.030  24.140   4.541
  844POPC   GL222056  19.115  24.101   4.577
  844POPC   C1A22057  18.930  23.978   4.601
  844POPC   D2A22058  18.829  23.816   4.661
  844POPC   C3A22059  18.729  23.654   4.721
  844POPC   C4A22060  18.628  23.492   4.781
  844POPC   C1B22061  18.894  24.065   4.777
  844POPC   C2B22062  18.794  23.903   4.837
  844POPC   C3B22063  18.693  23.741   4.897
  844POPC   C4B22064  18.592  23.579   4.957
  845POPC   NC322065  26.013   4.710   3.719
  845POPC   PO422066  25.833   4.768   3.785
  845POPC   GL122067  25.653   4.826   3.851
  845POPC   GL222068  25.619   4.826   3.757
  845POPC   C1A22069  25.473   4.884   3.917
  845POPC   D2A22070  25.294   4.941   3.983
  845POPC   C3A22071  25.114   4.999   4.049
  845POPC   C4A22072  24.934   5.057   4.115
  845POPC   C1B22073  25.419   4.692   3.937
  845POPC   C2B22074  25.240   4.750   4.003
  845POPC   C3B22075  25.060   4.808   4.069
  845POPC   C4B22076  24.880   4.866   4.135
  846POPC   NC322077  -8.075   9.678  12.108
  846POPC   PO422078  -7.877   9.684  12.081
  846POPC   GL122079  -7.679   9.690  12.054
  846POPC   GL222080  -7.679   9.788  12.075
  846POPC   C1A22081  -7.481   9.696  12.026
  846POPC   D2A22082  -7.283   9.703  11.999
  846POPC   C3A22083  -7.085   9.709  11.971
  846POPC   C4A22084  -6.887   9.715  11.944
  846POPC   C1B22085  -7.453   9.654  12.220
  846POPC   C2B22086  -7.255   9.660  12.192
  846POPC   C3B22087  -7.057   9.666  12.165
  846POPC   C4B22088  -6.859   9.672  12.137
  847POPC   NC322089  -4.489  14.870   0.006
  847POPC   PO422090  -4.328  14.813   0.111
  847POPC   GL122091  -4.167  14.756   0.216
  847POPC   GL222092  -4.122  14.842   0.194
  847POPC   C1A22093  -4.007  14.699   0.320
  847POPC   D2A22094  -3.846  14.641   0.425
  847POPC   C3A22095  -3.686  14.584   0.529
  847POPC   C4A22096  -3.525  14.527   0.634
  847POPC   C1B22097  -4.085  14.780   0.485
  847POPC   C2B22098  -3.925  14.723   0.590
  847POPC   C3B22099  -3.764  14.666   0.694
  847POPC   C4B22100  -3.603  14.609   0.799
  848POPC   NC322101   1.522  16.049  -4.881
  848POPC   PO422102   1.616  15.982  -4.717
  848POPC   GL122103   1.710  15.915  -4.553
  848POPC   GL222104   1.636  15.951  -4.497
  848POPC   C1A22105   1.803  15.849  -4.390
  848POPC   D2A22106   1.897  15.782  -4.226
  848POPC   C3A22107   1.990  15.716  -4.063
  848POPC   C4A22108   2.084  15.649  -3.899
  848POPC   C1B22109   1.707  15.674  -4.406
  848POPC   C2B22110   1.801  15.608  -4.242
  848POPC   C3B22111   1.894  15.541  -4.079
  848POPC   C4B22112   1.988  15.474  -3.915
  849POPC   NC322113  -7.234   5.564  13.538
  849POPC   PO422114  -7.044   5.614  13.500
  849POPC   GL122115  -6.854   5.664  13.462
  849POPC   GL222116  -6.833   5.658  13.559
  849POPC   C1A22117  -6.664   5.714  13.424
  849POPC   D2A22118  -6.475   5.764  13.385
  849POPC   C3A22119  -6.285   5.814  13.347
  849POPC   C4A22120  -6.095   5.864  13.309
  849POPC   C1B22121  -6.618   5.521  13.402
  849POPC   C2B22122  -6.428   5.571  13.364
  849POPC   C3B22123  -6.238   5.621  13.326
  849POPC   C4B22124  -6.048   5.671  13.287
  850POPC   NC322125  14.252   1.954  -5.652
  850POPC   PO422126  14.208   2.043  -5.478
  850POPC   GL122127  14.164   2.132  -5.304
  850POPC   GL222128  14.255   2.109  -5.270
  850POPC   C1A22129  14.120   2.221  -5.131
  850POPC   D2A22130  14.075   2.310  -4.957
  850POPC   C3A22131  14.031   2.399  -4.784
  850POPC   C4A22132  13.987   2.488  -4.610
  850POPC   C1B22133  14.190   2.394  -5.202
  850POPC   C2B22134  14.146   2.483  -5.028
  850POPC   C3B22135  14.102   2.572  -4.854
  850POPC   C4B22136  14.058   2.661  -4.681
  851POPC   NC322137  20.390  16.940  22.722
  851POPC   PO422138  20.273  16.868  22.577
  851POPC   GL122139  20.156  16.796  22.432
  851POPC   GL222140  20.226  16.817  22.364
  851POPC   C1A22141  20.038  16.723  22.287
  851POPC   D2A22142  19.921  16.651  22.143
  851POPC   C3A22143  19.803  16.578  21.998
  851POPC   C4A22144  19.686  16.506  21.853
  851POPC   C1B22145  20.118  16.542  22.313
  851POPC   C2B22146  20.001  16.469  22.169
  851POPC   C3B22147  19.883  16.397  22.024
  851POPC   C4B22148  19.766  16.324  21.879
  852POPC   NC322149  19.119   1.874  -3.281
  852POPC   PO422150  19.010   1.961  -3.138
  852POPC   GL122151  18.901   2.048  -2.995
  852POPC   GL222152  18.968   2.121  -2.988
  852POPC   C1A22153  18.792   2.135  -2.851
  852POPC   D2A22154  18.683   2.221  -2.708
  852POPC   C3A22155  18.574   2.308  -2.564
  852POPC   C4A22156  18.465   2.395  -2.421
  852POPC   C1B22157  18.692   2.238  -2.990
  852POPC   C2B22158  18.583   2.325  -2.847
  852POPC   C3B22159  18.474   2.412  -2.703
  852POPC   C4B22160  18.365   2.499  -2.560
  853POPC   NC322161  24.333  -0.795  11.087
  853POPC   PO422162  24.172  -0.676  11.075
  853POPC   GL122163  24.011  -0.557  11.063
  853POPC   GL222164  24.067  -0.479  11.091
  853POPC   C1A22165  23.851  -0.439  11.051
  853POPC   D2A22166  23.690  -0.320  11.038
  853POPC   C3A22167  23.530  -0.202  11.026
  853POPC   C4A22168  23.369  -0.083  11.014
  853POPC   C1B22169  23.894  -0.400  10.859
  853POPC   C2B22170  23.734  -0.281  10.847
  853POPC   C3B22171  23.573  -0.162  10.835
  853POPC   C4B22172  23.413  -0.044  10.823
  854POPC   NC322173  19.893  -3.448  16.613
  854POPC   PO422174  19.780  -3.299  16.543
  854POPC   GL122175  19.667  -3.150  16.473
  854POPC   GL222176  19.748  -3.107  16.433
  854POPC   C1A22177  19.554  -3.001  16.402
  854POPC   D2A22178  19.440  -2.851  16.332
  854POPC   C3A22179  19.327  -2.702  16.261
  854POPC   C4A22180  19.214  -2.553  16.191
  854POPC   C1B22181  19.524  -3.103  16.233
  854POPC   C2B22182  19.411  -2.954  16.163
  854POPC   C3B22183  19.297  -2.805  16.092
  854POPC   C4B22184  19.184  -2.655  16.022
  855POPC   NC322185  16.778  25.960   5.267
  855POPC   PO422186  16.703  25.782   5.318
  855POPC   GL122187  16.628  25.604   5.369
  855POPC   GL222188  16.692  25.559   5.306
  855POPC   C1A22189  16.553  25.426   5.420
  855POPC   D2A22190  16.479  25.247   5.472
  855POPC   C3A22191  16.404  25.069   5.523
  855POPC   C4A22192  16.329  24.891   5.574
  855POPC   C1B22193  16.688  25.411   5.567
  855POPC   C2B22194  16.614  25.233   5.619
  855POPC   C3B22195  16.539  25.055   5.670
  855POPC   C4B22196  16.464  24.876   5.721
  856POPC   NC322197   1.200  -2.504  19.709
  856POPC   PO422198   1.296  -2.365  19.602
  856POPC   GL122199   1.392  -2.226  19.495
  856POPC   GL222200   1.479  -2.258  19.531
  856POPC   C1A22201   1.488  -2.087  19.388
  856POPC   D2A22202   1.583  -1.948  19.280
  856POPC   C3A22203   1.679  -1.809  19.173
  856POPC   C4A22204   1.775  -1.670  19.066
  856POPC   C1B22205   1.504  -2.216  19.235
  856POPC   C2B22206   1.600  -2.077  19.128
  856POPC   C3B22207   1.695  -1.938  19.021
  856POPC   C4B22208   1.791  -1.799  18.914
  857POPC   NC322209  23.978   8.293  21.018
  857POPC   PO422210  23.820   8.315  20.897
  857POPC   GL122211  23.662   8.337  20.776
  857POPC   GL222212  23.696   8.427  20.749
  857POPC   C1A22213  23.504   8.359  20.656
  857POPC   D2A22214  23.346   8.382  20.535
  857POPC   C3A22215  23.188   8.404  20.415
  857POPC   C4A22216  23.030   8.426  20.294
  857POPC   C1B22217  23.607   8.275  20.506
  857POPC   C2B22218  23.449   8.298  20.385
  857POPC   C3B22219  23.291   8.320  20.265
  857POPC   C4B22220  23.133   8.342  20.144
  858POPC   NC322221  20.863  16.743  -2.700
  858POPC   PO422222  20.744  16.669  -2.558
  858POPC   GL122223  20.625  16.595  -2.416
  858POPC   GL222224  20.605  16.515  -2.473
  858POPC   C1A22225  20.505  16.520  -2.274
  858POPC   D2A22226  20.386  16.446  -2.131
  858POPC   C3A22227  20.266  16.371  -1.989
  858POPC   C4A22228  20.147  16.297  -1.847
  858POPC   C1B22229  20.661  16.424  -2.193
  858POPC   C2B22230  20.542  16.350  -2.051
  858POPC   C3B22231  20.422  16.276  -1.908
  858POPC   C4B22232  20.303  16.201  -1.766
  859POPC   NC322233  -1.131  19.308  20.791
  859POPC   PO422234  -1.010  19.207  20.668
  859POPC   GL122235  -0.889  19.106  20.545
  859POPC   GL222236  -0.822  19.180  20.550
  859POPC   C1A22237  -0.768  19.005  20.422
  859POPC   D2A22238  -0.647  18.904  20.298
  859POPC   C3A22239  -0.526  18.803  20.175
  859POPC   C4A22240  -0.405  18.702  20.052
  859POPC   C1B22241  -0.681  18.917  20.579
  859POPC   C2B22242  -0.560  18.816  20.456
  859POPC   C3B22243  -0.439  18.715  20.332
  859POPC   C4B22244  -0.318  18.614  20.209
  860POPC   NC322245  26.421   6.819  16.401
  860POPC   PO422246  26.240   6.857  16.326
  860POPC   GL122247  26.059   6.895  16.251
  860POPC   GL222248  26.071   6.992  16.270
  860POPC   C1A22249  25.877   6.933  16.176
  860POPC   D2A22250  25.696   6.970  16.100
  860POPC   C3A22251  25.514   7.008  16.025
  860POPC   C4A22252  25.333   7.046  15.950
  860POPC   C1B22253  25.957   6.957  15.994
  860POPC   C2B22254  25.776   6.995  15.919
  860POPC   C3B22255  25.595   7.033  15.844
  860POPC   C4B22256  25.413   7.071  15.769
  861POPC   NC322257  -8.201  10.209   8.955
  861POPC   PO422258  -8.002  10.205   8.969
  861POPC   GL122259  -7.803  10.201   8.983
  861POPC   GL222260  -7.802  10.298   9.005
  861POPC   C1A22261  -7.603  10.196   8.997
  861POPC   D2A22262  -7.404  10.192   9.012
  861POPC   C3A22263  -7.204  10.187   9.026
  861POPC   C4A22264  -7.005  10.183   9.040
  861POPC   C1B22265  -7.618  10.152   9.192
  861POPC   C2B22266  -7.419  10.148   9.206
  861POPC   C3B22267  -7.219  10.144   9.220
  861POPC   C4B22268  -7.020  10.139   9.235
  862POPC   NC322269  12.067   7.896  27.739
  862POPC   PO422270  12.037   7.920  27.543
  862POPC   GL122271  12.007   7.944  27.347
  862POPC   GL222272  12.011   8.043  27.358
  862POPC   C1A22273  11.977   7.968  27.150
  862POPC   D2A22274  11.948   7.991  26.954
  862POPC   C3A22275  11.918   8.015  26.757
  862POPC   C4A22276  11.888   8.039  26.561
  862POPC   C1B22277  12.175   7.964  27.120
  862POPC   C2B22278  12.145   7.988  26.923
  862POPC   C3B22279  12.115   8.012  26.727
  862POPC   C4B22280  12.086   8.036  26.531
  863POPC   NC322281  20.617  24.376   8.322
  863POPC   PO422282  20.505  24.211   8.335
  863POPC   GL122283  20.393  24.046   8.348
  863POPC   GL222284  20.390  24.040   8.248
  863POPC   C1A22285  20.281  23.881   8.361
  863POPC   D2A22286  20.168  23.716   8.375
  863POPC   C3A22287  20.056  23.551   8.388
  863POPC   C4A22288  19.944  23.386   8.401
  863POPC   C1B22289  20.446  23.769   8.363
  863POPC   C2B22290  20.334  23.604   8.376
  863POPC   C3B22291  20.222  23.439   8.389
  863POPC   C4B22292  20.109  23.274   8.402
  864POPC   NC322293  27.402   8.953  14.109
  864POPC   PO422294  27.207   8.963  14.068
  864POPC   GL122295  27.012   8.973  14.027
  864POPC   GL222296  27.027   8.922  13.942
  864POPC   C1A22297  26.816   8.983  13.985
  864POPC   D2A22298  26.621   8.992  13.944
  864POPC   C3A22299  26.425   9.002  13.902
  864POPC   C4A22300  26.230   9.012  13.861
  864POPC   C1B22301  26.787   8.811  14.083
  864POPC   C2B22302  26.591   8.821  14.042
  864POPC   C3B22303  26.396   8.830  14.001
  864POPC   C4B22304  26.201   8.840  13.959
  865POPC   NC322305  -5.889  15.496  16.934
  865POPC   PO422306  -5.716  15.435  16.855
  865POPC   GL122307  -5.543  15.374  16.776
  865POPC   GL222308  -5.493  15.423  16.847
  865POPC   C1A22309  -5.370  15.313  16.696
  865POPC   D2A22310  -5.197  15.251  16.617
  865POPC   C3A22311  -5.024  15.190  16.537
  865POPC   C4A22312  -4.851  15.129  16.458
  865POPC   C1B22313  -5.374  15.150  16.812
  865POPC   C2B22314  -5.201  15.089  16.733
  865POPC   C3B22315  -5.028  15.027  16.653
  865POPC   C4B22316  -4.855  14.966  16.574
  866POPC   NC322317  20.927  24.235   9.579
  866POPC   PO422318  20.811  24.072   9.585
  866POPC   GL122319  20.695  23.909   9.591
  866POPC   GL222320  20.723  23.886   9.498
  866POPC   C1A22321  20.579  23.746   9.597
  866POPC   D2A22322  20.463  23.584   9.602
  866POPC   C3A22323  20.347  23.421   9.608
  866POPC   C4A22324  20.231  23.258   9.614
  866POPC   C1B22325  20.732  23.640   9.669
  866POPC   C2B22326  20.616  23.477   9.674
  866POPC   C3B22327  20.500  23.314   9.680
  866POPC   C4B22328  20.384  23.152   9.686
  867POPC   NC322329  20.521  20.953  19.506
  867POPC   PO422330  20.402  20.828  19.405
  867POPC   GL122331  20.283  20.703  19.304
  867POPC   GL222332  20.363  20.664  19.258
  867POPC   C1A22333  20.164  20.578  19.203
  867POPC   D2A22334  20.045  20.453  19.101
  867POPC   C3A22335  19.926  20.328  19.000
  867POPC   C4A22336  19.807  20.203  18.899
  867POPC   C1B22337  20.181  20.443  19.349
  867POPC   C2B22338  20.062  20.318  19.248
  867POPC   C3B22339  19.943  20.193  19.147
  867POPC   C4B22340  19.824  20.068  19.046
  868POPC   NC322341  25.112   4.679  17.974
  868POPC   PO422342  24.943   4.733  17.882
  868POPC   GL122343  24.774   4.787  17.790
  868POPC   GL222344  24.798   4.883  17.801
  868POPC   C1A22345  24.605   4.840  17.698
  868POPC   D2A22346  24.435   4.894  17.605
  868POPC   C3A22347  24.266   4.947  17.513
  868POPC   C4A22348  24.097   5.001  17.421
  868POPC   C1B22349  24.700   4.838  17.522
  868POPC   C2B22350  24.531   4.891  17.429
  868POPC   C3B22351  24.361   4.945  17.337
  868POPC   C4B22352  24.192   4.998  17.245
  869POPC   NC322353   5.689  -2.920  21.856
  869POPC   PO422354   5.736  -2.777  21.725
  869POPC   GL122355   5.783  -2.634  21.594
  869POPC   GL222356   5.808  -2.703  21.526
  869POPC   C1A22357   5.829  -2.490  21.462
  869POPC   D2A22358   5.876  -2.347  21.331
  869POPC   C3A22359   5.922  -2.203  21.199
  869POPC   C4A22360   5.969  -2.060  21.068
  869POPC   C1B22361   5.641  -2.492  21.394
  869POPC   C2B22362   5.688  -2.348  21.263
  869POPC   C3B22363   5.734  -2.205  21.131
  869POPC   C4B22364   5.781  -2.062  21.000
  870POPC   NC322365  15.005  26.810  13.966
  870POPC   PO422366  14.950  26.623  13.921
  870POPC   GL122367  14.895  26.436  13.876
  870POPC   GL222368  14.902  26.457  13.779
  870POPC   C1A22369  14.840  26.249  13.831
  870POPC   D2A22370  14.785  26.062  13.787
  870POPC   C3A22371  14.730  25.875  13.742
  870POPC   C4A22372  14.675  25.688  13.697
  870POPC   C1B22373  15.032  26.193  13.832
  870POPC   C2B22374  14.977  26.006  13.787
  870POPC   C3B22375  14.922  25.819  13.742
  870POPC   C4B22376  14.867  25.632  13.697
  871POPC   NC322377  18.518   3.726  -4.597
  871POPC   PO422378  18.421   3.793  -4.436
  871POPC   GL122379  18.324   3.860  -4.275
  871POPC   GL222380  18.376   3.945  -4.278
  871POPC   C1A22381  18.227   3.927  -4.113
  871POPC   D2A22382  18.129   3.995  -3.952
  871POPC   C3A22383  18.032   4.062  -3.790
  871POPC   C4A22384  17.935   4.129  -3.629
  871POPC   C1B22385  18.087   4.009  -4.231
  871POPC   C2B22386  17.990   4.076  -4.070
  871POPC   C3B22387  17.893   4.143  -3.908
  871POPC   C4B22388  17.795   4.210  -3.747
  872POPC   NC322389  24.155  13.848  -0.370
  872POPC   PO422390  23.996  13.808  -0.255
  872POPC   GL122391  23.837  13.768  -0.140
  872POPC   GL222392  23.779  13.823  -0.201
  872POPC   C1A22393  23.678  13.728  -0.025
  872POPC   D2A22394  23.519  13.689   0.089
  872POPC   C3A22395  23.360  13.649   0.204
  872POPC   C4A22396  23.201  13.609   0.319
  872POPC   C1B22397  23.640  13.566  -0.135
  872POPC   C2B22398  23.481  13.526  -0.020
  872POPC   C3B22399  23.322  13.486   0.095
  872POPC   C4B22400  23.163  13.446   0.209
  873POPC   NC322401   4.078  27.032   8.098
  873POPC   PO422402   4.144  26.844   8.118
  873POPC   GL122403   4.210  26.656   8.138
  873POPC   GL222404   4.194  26.661   8.236
  873POPC   C1A22405   4.275  26.468   8.158
  873POPC   D2A22406   4.341  26.281   8.177
  873POPC   C3A22407   4.406  26.093   8.197
  873POPC   C4A22408   4.472  25.905   8.217
  873POPC   C1B22409   4.089  26.401   8.132
  873POPC   C2B22410   4.154  26.213   8.152
  873POPC   C3B22411   4.220  26.025   8.172
  873POPC   C4B22412   4.286  25.837   8.191
  874POPC   NC322413  -0.570  15.169  -3.840
  874POPC   PO422414  -0.455  15.114  -3.686
  874POPC   GL122415  -0.340  15.059  -3.532
  874POPC   GL222416  -0.421  15.055  -3.473
  874POPC   C1A22417  -0.226  15.004  -3.377
  874POPC   D2A22418  -0.111  14.948  -3.223
  874POPC   C3A22419   0.003  14.893  -3.068
  874POPC   C4A22420   0.118  14.838  -2.914
  874POPC   C1B22421  -0.252  14.812  -3.426
  874POPC   C2B22422  -0.137  14.756  -3.272
  874POPC   C3B22423  -0.023  14.701  -3.118
  874POPC   C4B22424   0.092  14.646  -2.963
  875POPC   NC322425  -2.078   3.789  21.870
  875POPC   PO422426  -1.950   3.859  21.733
  875POPC   GL122427  -1.822   3.929  21.596
  875POPC   GL222428  -1.779   3.839  21.591
  875POPC   C1A22429  -1.694   3.999  21.460
  875POPC   D2A22430  -1.565   4.070  21.323
  875POPC   C3A22431  -1.437   4.140  21.187
  875POPC   C4A22432  -1.309   4.210  21.050
  875POPC   C1B22433  -1.820   3.948  21.314
  875POPC   C2B22434  -1.692   4.018  21.178
  875POPC   C3B22435  -1.564   4.088  21.041
  875POPC   C4B22436  -1.436   4.158  20.904
  876POPC   NC322437  -2.536  19.801  18.657
  876POPC   PO422438  -2.399  19.692  18.560
  876POPC   GL122439  -2.262  19.583  18.463
  876POPC   GL222440  -2.202  19.663  18.459
  876POPC   C1A22441  -2.125  19.474  18.366
  876POPC   D2A22442  -1.989  19.366  18.268
  876POPC   C3A22443  -1.852  19.257  18.171
  876POPC   C4A22444  -1.715  19.148  18.074
  876POPC   C1B22445  -2.044  19.420  18.540
  876POPC   C2B22446  -1.908  19.311  18.443
  876POPC   C3B22447  -1.771  19.203  18.346
  876POPC   C4B22448  -1.634  19.094  18.249
  877POPC   NC322449  19.572  -5.144  11.394
  877POPC   PO422450  19.465  -4.976  11.377
  877POPC   GL122451  19.358  -4.808  11.360
  877POPC   GL222452  19.379  -4.804  11.263
  877POPC   C1A22453  19.251  -4.640  11.344
  877POPC   D2A22454  19.145  -4.471  11.327
  877POPC   C3A22455  19.038  -4.303  11.311
  877POPC   C4A22456  18.931  -4.135  11.294
  877POPC   C1B22457  19.087  -4.748  11.306
  877POPC   C2B22458  18.981  -4.579  11.289
  877POPC   C3B22459  18.874  -4.411  11.273
  877POPC   C4B22460  18.767  -4.243  11.256
  878POPC   NC322461  14.490  22.719  21.846
  878POPC   PO422462  14.442  22.575  21.716
  878POPC   GL122463  14.394  22.431  21.586
  878POPC   GL222464  14.486  22.392  21.596
  878POPC   C1A22465  14.347  22.286  21.456
  878POPC   D2A22466  14.299  22.142  21.327
  878POPC   C3A22467  14.252  21.997  21.197
  878POPC   C4A22468  14.204  21.853  21.067
  878POPC   C1B22469  14.282  22.172  21.607
  878POPC   C2B22470  14.234  22.028  21.477
  878POPC   C3B22471  14.187  21.883  21.348
  878POPC   C4B22472  14.139  21.739  21.218
  879POPC   NC322473   4.523  -1.974  -2.483
  879POPC   PO422474   4.584  -1.841  -2.347
  879POPC   GL122475   4.645  -1.708  -2.211
  879POPC   GL222476   4.660  -1.782  -2.145
  879POPC   C1A22477   4.705  -1.575  -2.074
  879POPC   D2A22478   4.766  -1.442  -1.938
  879POPC   C3A22479   4.826  -1.309  -1.801
  879POPC   C4A22480   4.887  -1.176  -1.665
  879POPC   C1B22481   4.893  -1.593  -2.140
  879POPC   C2B22482   4.954  -1.460  -2.003
  879POPC   C3B22483   5.014  -1.327  -1.867
  879POPC   C4B22484   5.075  -1.194  -1.730
  880POPC   NC322485   1.175  22.532  19.644
  880POPC   PO422486   1.270  22.393  19.536
  880POPC   GL122487   1.365  22.254  19.428
  880POPC   GL222488   1.412  22.326  19.377
  880POPC   C1A22489   1.460  22.115  19.320
  880POPC   D2A22490   1.554  21.975  19.213
  880POPC   C3A22491   1.649  21.836  19.105
  880POPC   C4A22492   1.744  21.697  18.997
  880POPC   C1B22493   1.608  22.112  19.454
  880POPC   C2B22494   1.703  21.973  19.347
  880POPC   C3B22495   1.798  21.833  19.239
  880POPC   C4B22496   1.892  21.694  19.131
  881POPC   NC322497  21.498  23.789   9.148
  881POPC   PO422498  21.375  23.632   9.156
  881POPC   GL122499  21.252  23.475   9.164
  881POPC   GL222500  21.240  23.479   9.065
  881POPC   C1A22501  21.128  23.318   9.173
  881POPC   D2A22502  21.005  23.160   9.181
  881POPC   C3A22503  20.881  23.003   9.190
  881POPC   C4A22504  20.758  22.846   9.198
  881POPC   C1B22505  21.284  23.194   9.149
  881POPC   C2B22506  21.160  23.037   9.157
  881POPC   C3B22507  21.037  22.880   9.166
  881POPC   C4B22508  20.914  22.723   9.174
  882POPC   NC322509  26.661  14.034   4.563
  882POPC   PO422510  26.475  13.989   4.622
  882POPC   GL122511  26.289  13.944   4.681
  882POPC   GL222512  26.259  13.945   4.586
  882POPC   C1A22513  26.104  13.899   4.741
  882POPC   D2A22514  25.918  13.854   4.800
  882POPC   C3A22515  25.733  13.809   4.860
  882POPC   C4A22516  25.547  13.764   4.919
  882POPC   C1B22517  26.146  13.704   4.725
  882POPC   C2B22518  25.960  13.659   4.784
  882POPC   C3B22519  25.775  13.614   4.844
  882POPC   C4B22520  25.589  13.569   4.903
  883POPC   NC322521  26.845  15.385  12.804
  883POPC   PO422522  26.656  15.329  12.773
  883POPC   GL122523  26.467  15.273  12.742
  883POPC   GL222524  26.496  15.178  12.733
  883POPC   C1A22525  26.277  15.217  12.710
  883POPC   D2A22526  26.088  15.160  12.679
  883POPC   C3A22527  25.898  15.104  12.647
  883POPC   C4A22528  25.709  15.048  12.616
  883POPC   C1B22529  26.252  15.191  12.907
  883POPC   C2B22530  26.063  15.135  12.876
  883POPC   C3B22531  25.873  15.079  12.844
  883POPC   C4B22532  25.684  15.023  12.813
  884POPC   NC322533   7.333  -7.855   9.454
  884POPC   PO422534   7.359  -7.657   9.461
  884POPC   GL122535   7.385  -7.459   9.468
  884POPC   GL222536   7.477  -7.470   9.431
  884POPC   C1A22537   7.411  -7.261   9.474
  884POPC   D2A22538   7.437  -7.062   9.481
  884POPC   C3A22539   7.463  -6.864   9.487
  884POPC   C4A22540   7.489  -6.666   9.494
  884POPC   C1B22541   7.339  -7.245   9.288
  884POPC   C2B22542   7.365  -7.047   9.295
  884POPC   C3B22543   7.391  -6.849   9.302
  884POPC   C4B22544   7.417  -6.650   9.308
  885POPC   NC322545   8.839  27.135   4.303
  885POPC   PO422546   8.849  26.945   4.363
  885POPC   GL122547   8.859  26.755   4.423
  885POPC   GL222548   8.949  26.746   4.381
  885POPC   C1A22549   8.869  26.564   4.483
  885POPC   D2A22550   8.879  26.374   4.543
  885POPC   C3A22551   8.889  26.183   4.603
  885POPC   C4A22552   8.899  25.993   4.663
  885POPC   C1B22553   8.954  26.623   4.654
  885POPC   C2B22554   8.964  26.432   4.714
  885POPC   C3B22555   8.974  26.242   4.774
  885POPC   C4B22556   8.984  26.052   4.834
  886POPC   NC322557  -0.958   2.517  22.197
  886POPC   PO422558  -0.838   2.596  22.058
  886POPC   GL122559  -0.718   2.675  21.919
  886POPC   GL222560  -0.638   2.645  21.971
  886POPC   C1A22561  -0.598   2.754  21.780
  886POPC   D2A22562  -0.479   2.834  21.640
  886POPC   C3A22563  -0.359   2.913  21.501
  886POPC   C4A22564  -0.239   2.992  21.362
  886POPC   C1B22565  -0.599   2.581  21.680
  886POPC   C2B22566  -0.479   2.660  21.541
  886POPC   C3B22567  -0.359   2.739  21.402
  886POPC   C4B22568  -0.240   2.818  21.263
  887POPC   NC322569  14.797  16.398  26.037
  887POPC   PO422570  14.749  16.324  25.857
  887POPC   GL122571  14.701  16.250  25.677
  887POPC   GL222572  14.748  16.165  25.700
  887POPC   C1A22573  14.653  16.177  25.498
  887POPC   D2A22574  14.604  16.103  25.318
  887POPC   C3A22575  14.556  16.030  25.139
  887POPC   C4A22576  14.508  15.956  24.959
  887POPC   C1B22577  14.483  16.103  25.574
  887POPC   C2B22578  14.435  16.029  25.394
  887POPC   C3B22579  14.387  15.955  25.214
  887POPC   C4B22580  14.338  15.882  25.035
  888POPC   NC322581  17.963  25.927   8.029
  888POPC   PO422582  17.873  25.749   8.047
  888POPC   GL122583  17.783  25.571   8.065
  888POPC   GL222584  17.864  25.526   8.029
  888POPC   C1A22585  17.693  25.394   8.083
  888POPC   D2A22586  17.602  25.216   8.102
  888POPC   C3A22587  17.512  25.039   8.120
  888POPC   C4A22588  17.422  24.861   8.138
  888POPC   C1B22589  17.764  25.376   8.269
  888POPC   C2B22590  17.674  25.199   8.288
  888POPC   C3B22591  17.584  25.021   8.306
  888POPC   C4B22592  17.494  24.844   8.324
  889POPC   NC322593  20.803   6.839  -4.073
  889POPC   PO422594  20.685   6.873  -3.915
  889POPC   GL122595  20.567   6.907  -3.757
  889POPC   GL222596  20.506   6.833  -3.786
  889POPC   C1A22597  20.449   6.941  -3.599
  889POPC   D2A22598  20.331   6.976  -3.441
  889POPC   C3A22599  20.213   7.010  -3.283
  889POPC   C4A22600  20.095   7.044  -3.125
  889POPC   C1B22601  20.556   6.811  -3.491
  889POPC   C2B22602  20.438   6.845  -3.333
  889POPC   C3B22603  20.320   6.879  -3.175
  889POPC   C4B22604  20.202   6.914  -3.017
  890POPC   NC322605  12.626  -7.029   4.365
  890POPC   PO422606  12.592  -6.842   4.427
  890POPC   GL122607  12.558  -6.655   4.489
  890POPC   GL222608  12.578  -6.621   4.397
  890POPC   C1A22609  12.524  -6.468   4.551
  890POPC   D2A22610  12.491  -6.280   4.612
  890POPC   C3A22611  12.457  -6.093   4.674
  890POPC   C4A22612  12.423  -5.906   4.736
  890POPC   C1B22613  12.331  -6.486   4.502
  890POPC   C2B22614  12.298  -6.299   4.564
  890POPC   C3B22615  12.264  -6.112   4.625
  890POPC   C4B22616  12.230  -5.925   4.687
  891POPC   NC322617  24.706   1.006   4.899
  891POPC   PO422618  24.541   1.107   4.950
  891POPC   GL122619  24.376   1.208   5.001
  891POPC   GL222620  24.402   1.282   4.939
  891POPC   C1A22621  24.212   1.310   5.052
  891POPC   D2A22622  24.047   1.411   5.104
  891POPC   C3A22623  23.883   1.513   5.155
  891POPC   C4A22624  23.718   1.614   5.206
  891POPC   C1B22625  24.111   1.221   4.905
  891POPC   C2B22626  23.946   1.322   4.956
  891POPC   C3B22627  23.782   1.423   5.007
  891POPC   C4B22628  23.617   1.525   5.058
  892POPC   NC322629   9.458  27.809   7.120
  892POPC   PO422630   9.462  27.611   7.150
  892POPC   GL122631   9.466  27.413   7.180
  892POPC   GL222632   9.547  27.423   7.237
  892POPC   C1A22633   9.470  27.215   7.210
  892POPC   D2A22634   9.473  27.018   7.239
  892POPC   C3A22635   9.477  26.820   7.269
  892POPC   C4A22636   9.481  26.622   7.299
  892POPC   C1B22637   9.353  27.237   7.371
  892POPC   C2B22638   9.357  27.040   7.401
  892POPC   C3B22639   9.361  26.842   7.430
  892POPC   C4B22640   9.365  26.644   7.460
  893POPC   NC322641   7.225  -7.589  13.127
  893POPC   PO422642   7.254  -7.393  13.096
  893POPC   GL122643   7.283  -7.197  13.065
  893POPC   GL222644   7.321  -7.188  13.157
  893POPC   C1A22645   7.311  -7.002  13.034
  893POPC   D2A22646   7.340  -6.806  13.004
  893POPC   C3A22647   7.368  -6.611  12.973
  893POPC   C4A22648   7.397  -6.415  12.942
  893POPC   C1B22649   7.494  -7.040  12.962
  893POPC   C2B22650   7.522  -6.844  12.931
  893POPC   C3B22651   7.551  -6.649  12.900
  893POPC   C4B22652   7.579  -6.453  12.869
  894POPC   NC322653   1.386  13.793  25.406
  894POPC   PO422654   1.484  13.749  25.237
  894POPC   GL122655   1.582  13.705  25.068
  894POPC   GL222656   1.628  13.793  25.072
  894POPC   C1A22657   1.680  13.660  24.899
  894POPC   D2A22658   1.777  13.616  24.731
  894POPC   C3A22659   1.875  13.571  24.562
  894POPC   C4A22660   1.973  13.527  24.393
  894POPC   C1B22661   1.828  13.579  25.007
  894POPC   C2B22662   1.926  13.535  24.838
  894POPC   C3B22663   2.023  13.490  24.669
  894POPC   C4B22664   2.121  13.446  24.500
  895POPC   NC322665  -7.630  11.570  14.162
  895POPC   PO422666  -7.436  11.556  14.114
  895POPC   GL122667  -7.242  11.542  14.066
  895POPC   GL222668  -7.226  11.487  14.148
  895POPC   C1A22669  -7.049  11.527  14.018
  895POPC   D2A22670  -6.855  11.513  13.971
  895POPC   C3A22671  -6.662  11.498  13.923
  895POPC   C4A22672  -6.468  11.484  13.875
  895POPC   C1B22673  -7.087  11.361  13.914
  895POPC   C2B22674  -6.893  11.346  13.867
  895POPC   C3B22675  -6.700  11.332  13.819
  895POPC   C4B22676  -6.506  11.317  13.771
  896POPC   NC322677  -5.082  19.497   6.231
  896POPC   PO422678  -4.916  19.396   6.277
  896POPC   GL122679  -4.750  19.295   6.323
  896POPC   GL222680  -4.799  19.247   6.396
  896POPC   C1A22681  -4.583  19.194   6.369
  896POPC   D2A22682  -4.417  19.092   6.414
  896POPC   C3A22683  -4.250  18.991   6.460
  896POPC   C4A22684  -4.084  18.890   6.506
  896POPC   C1B22685  -4.635  19.050   6.240
  896POPC   C2B22686  -4.469  18.948   6.286
  896POPC   C3B22687  -4.303  18.847   6.332
  896POPC   C4B22688  -4.136  18.746   6.378
  897POPC   NC322689   6.193  -7.240   5.942
  897POPC   PO422690   6.234  -7.049   5.987
  897POPC   GL122691   6.275  -6.858   6.032
  897POPC   GL222692   6.356  -6.862   5.973
  897POPC   C1A22693   6.316  -6.668   6.077
  897POPC   D2A22694   6.356  -6.477   6.121
  897POPC   C3A22695   6.397  -6.287   6.166
  897POPC   C4A22696   6.438  -6.096   6.211
  897POPC   C1B22697   6.205  -6.608   5.921
  897POPC   C2B22698   6.246  -6.417   5.966
  897POPC   C3B22699   6.287  -6.226   6.011
  897POPC   C4B22700   6.328  -6.036   6.055
  898POPC   NC322701  27.536  12.595   7.250
  898POPC   PO422702  27.339  12.570   7.277
  898POPC   GL122703  27.142  12.545   7.304
  898POPC   GL222704  27.128  12.554   7.206
  898POPC   C1A22705  26.946  12.520   7.332
  898POPC   D2A22706  26.749  12.495   7.359
  898POPC   C3A22707  26.553  12.470   7.387
  898POPC   C4A22708  26.356  12.445   7.414
  898POPC   C1B22709  26.968  12.322   7.310
  898POPC   C2B22710  26.771  12.297   7.337
  898POPC   C3B22711  26.575  12.272   7.365
  898POPC   C4B22712  26.378  12.247   7.392
  899POPC   NC322713  17.911  -1.822  20.938
  899POPC   PO422714  17.819  -1.692  20.817
  899POPC   GL122715  17.727  -1.562  20.696
  899POPC   GL222716  17.719  -1.633  20.626
  899POPC   C1A22717  17.635  -1.432  20.575
  899POPC   D2A22718  17.543  -1.303  20.453
  899POPC   C3A22719  17.451  -1.173  20.332
  899POPC   C4A22720  17.359  -1.043  20.211
  899POPC   C1B22721  17.458  -1.488  20.650
  899POPC   C2B22722  17.366  -1.358  20.529
  899POPC   C3B22723  17.274  -1.228  20.407
  899POPC   C4B22724  17.182  -1.098  20.286
  900POPC   NC322725  24.865   2.552   3.090
  900POPC   PO422726  24.700   2.635   3.166
  900POPC   GL122727  24.535   2.718   3.242
  900POPC   GL222728  24.572   2.809   3.224
  900POPC   C1A22729  24.370   2.801   3.319
  900POPC   D2A22730  24.204   2.884   3.395
  900POPC   C3A22731  24.039   2.967   3.472
  900POPC   C4A22732  23.874   3.050   3.548
  900POPC   C1B22733  24.285   2.800   3.138
  900POPC   C2B22734  24.120   2.883   3.214
  900POPC   C3B22735  23.955   2.966   3.290
  900POPC   C4B22736  23.789   3.049   3.367
  901POPC   NC322737  13.808  -3.925  -0.860
  901POPC   PO422738  13.761  -3.772  -0.739
  901POPC   GL122739  13.714  -3.619  -0.618
  901POPC   GL222740  13.777  -3.655  -0.549
  901POPC   C1A22741  13.668  -3.467  -0.498
  901POPC   D2A22742  13.621  -3.314  -0.377
  901POPC   C3A22743  13.575  -3.162  -0.257
  901POPC   C4A22744  13.528  -3.009  -0.136
  901POPC   C1B22745  13.816  -3.359  -0.578
  901POPC   C2B22746  13.769  -3.206  -0.457
  901POPC   C3B22747  13.723  -3.053  -0.336
  901POPC   C4B22748  13.676  -2.901  -0.216
  902POPC   NC322749  15.963  22.154  -2.008
  902POPC   PO422750  15.893  22.019  -1.879
  902POPC   GL122751  15.823  21.884  -1.750
  902POPC   GL222752  15.895  21.820  -1.777
  902POPC   C1A22753  15.753  21.749  -1.620
  902POPC   D2A22754  15.682  21.613  -1.491
  902POPC   C3A22755  15.612  21.478  -1.361
  902POPC   C4A22756  15.542  21.343  -1.232
  902POPC   C1B22757  15.871  21.823  -1.478
  902POPC   C2B22758  15.801  21.688  -1.348
  902POPC   C3B22759  15.731  21.553  -1.219
  902POPC   C4B22760  15.661  21.418  -1.089
  903POPC   NC322761  -6.401   4.690   4.023
  903POPC   PO422762  -6.220   4.748   4.086
  903POPC   GL122763  -6.039   4.806   4.149
  903POPC   GL222764  -6.080   4.841   4.234
  903POPC   C1A22765  -5.858   4.863   4.212
  903POPC   D2A22766  -5.678   4.921   4.276
  903POPC   C3A22767  -5.497   4.978   4.339
  903POPC   C4A22768  -5.316   5.036   4.402
  903POPC   C1B22769  -5.832   4.685   4.300
  903POPC   C2B22770  -5.651   4.743   4.363
  903POPC   C3B22771  -5.471   4.800   4.426
  903POPC   C4B22772  -5.290   4.858   4.489
  904POPC   NC322773   6.593  16.077  -6.764
  904POPC   PO422774   6.630  16.008  -6.580
  904POPC   GL122775   6.667  15.939  -6.396
  904POPC   GL222776   6.723  16.019  -6.377
  904POPC   C1A22777   6.704  15.869  -6.212
  904POPC   D2A22778   6.740  15.800  -6.028
  904POPC   C3A22779   6.777  15.730  -5.844
  904POPC   C4A22780   6.814  15.661  -5.660
  904POPC   C1B22781   6.542  15.965  -6.143
  904POPC   C2B22782   6.579  15.896  -5.959
  904POPC   C3B22783   6.616  15.827  -5.775
  904POPC   C4B22784   6.653  15.757  -5.591
  905POPC   NC322785  -7.409   5.293   7.627
  905POPC   PO422786  -7.220   5.354   7.648
  905POPC   GL122787  -7.031   5.415   7.669
  905POPC   GL222788  -7.026   5.371   7.759
  905POPC   C1A22789  -6.842   5.476   7.690
  905POPC   D2A22790  -6.652   5.538   7.711
  905POPC   C3A22791  -6.463   5.599   7.732
  905POPC   C4A22792  -6.274   5.660   7.753
  905POPC   C1B22793  -6.777   5.308   7.604
  905POPC   C2B22794  -6.588   5.369   7.625
  905POPC   C3B22795  -6.399   5.430   7.646
  905POPC   C4B22796  -6.210   5.491   7.667
  906POPC   NC322797  -1.403   1.747  21.315
  906POPC   PO422798  -1.279   1.836  21.185
  906POPC   GL122799  -1.155   1.925  21.055
  906POPC   GL222800  -1.078   1.879  21.098
  906POPC   C1A22801  -1.032   2.014  20.925
  906POPC   D2A22802  -0.908   2.102  20.796
  906POPC   C3A22803  -0.785   2.191  20.666
  906POPC   C4A22804  -0.661   2.280  20.536
  906POPC   C1B22805  -1.053   1.859  20.800
  906POPC   C2B22806  -0.929   1.948  20.670
  906POPC   C3B22807  -0.806   2.037  20.540
  906POPC   C4B22808  -0.682   2.126  20.410
  907POPC   NC322809   5.491  -3.133  -1.663
  907POPC   PO422810   5.538  -2.988  -1.533
  907POPC   GL122811   5.585  -2.843  -1.403
  907POPC   GL222812   5.669  -2.825  -1.454
  907POPC   C1A22813   5.632  -2.699  -1.273
  907POPC   D2A22814   5.680  -2.554  -1.144
  907POPC   C3A22815   5.727  -2.410  -1.014
  907POPC   C4A22816   5.774  -2.265  -0.884
  907POPC   C1B22817   5.536  -2.566  -1.387
  907POPC   C2B22818   5.583  -2.421  -1.257
  907POPC   C3B22819   5.630  -2.276  -1.127
  907POPC   C4B22820   5.677  -2.132  -0.997
  908POPC   NC322821  19.383  -5.118   7.246
  908POPC   PO422822  19.280  -4.949   7.276
  908POPC   GL122823  19.177  -4.780   7.306
  908POPC   GL222824  19.248  -4.728   7.258
  908POPC   C1A22825  19.074  -4.611   7.335
  908POPC   D2A22826  18.971  -4.442   7.365
  908POPC   C3A22827  18.868  -4.273   7.394
  908POPC   C4A22828  18.765  -4.104   7.424
  908POPC   C1B22829  18.978  -4.639   7.162
  908POPC   C2B22830  18.875  -4.470   7.191
  908POPC   C3B22831  18.772  -4.301   7.221
  908POPC   C4B22832  18.669  -4.132   7.251
  909POPC   NC322833   8.462  27.954   9.103
  909POPC   PO422834   8.475  27.755   9.113
  909POPC   GL122835   8.488  27.556   9.123
  909POPC   GL222836   8.577  27.559   9.077
  909POPC   C1A22837   8.501  27.356   9.133
  909POPC   D2A22838   8.514  27.157   9.143
  909POPC   C3A22839   8.527  26.957   9.153
  909POPC   C4A22840   8.540  26.758   9.163
  909POPC   C1B22841   8.592  27.371   9.310
  909POPC   C2B22842   8.605  27.172   9.320
  909POPC   C3B22843   8.618  26.972   9.330
  909POPC   C4B22844   8.631  26.773   9.340
  910POPC   NC322845  -0.912   0.599  -1.040
  910POPC   PO422846  -0.796   0.702  -0.914
  910POPC   GL122847  -0.680   0.805  -0.788
  910POPC   GL222848  -0.753   0.805  -0.720
  910POPC   C1A22849  -0.564   0.908  -0.662
  910POPC   D2A22850  -0.447   1.011  -0.536
  910POPC   C3A22851  -0.331   1.114  -0.410
  910POPC   C4A22852  -0.215   1.217  -0.284
  910POPC   C1B22853  -0.494   0.737  -0.586
  910POPC   C2B22854  -0.378   0.840  -0.460
  910POPC   C3B22855  -0.262   0.943  -0.334
  910POPC   C4B22856  -0.146   1.046  -0.208
  911POPC   NC322857  17.940  -6.095   8.665
  911POPC   PO422858  17.851  -5.916   8.680
  911POPC   GL122859  17.762  -5.737   8.695
  911POPC   GL222860  17.836  -5.696   8.641
  911POPC   C1A22861  17.673  -5.559   8.710
  911POPC   D2A22862  17.585  -5.380   8.726
  911POPC   C3A22863  17.496  -5.202   8.741
  911POPC   C4A22864  17.407  -5.023   8.756
  911POPC   C1B22865  17.570  -5.596   8.543
  911POPC   C2B22866  17.481  -5.417   8.558
  911POPC   C3B22867  17.393  -5.239   8.574
  911POPC   C4B22868  17.304  -5.060   8.589
  912POPC   NC322869  24.936  11.784   0.227
  912POPC   PO422870  24.771  11.766   0.339
  912POPC   GL122871  24.606  11.748   0.451
  912POPC   GL222872  24.557  11.808   0.387
  912POPC   C1A22873  24.441  11.730   0.562
  912POPC   D2A22874  24.276  11.713   0.674
  912POPC   C3A22875  24.111  11.695   0.785
  912POPC   C4A22876  23.946  11.677   0.897
  912POPC   C1B22877  24.386  11.571   0.455
  912POPC   C2B22878  24.221  11.553   0.566
  912POPC   C3B22879  24.056  11.536   0.678
  912POPC   C4B22880  23.891  11.518   0.790
  913POPC   NC322881  -6.599  17.407   8.951
  913POPC   PO422882  -6.416  17.327   8.962
  913POPC   GL122883  -6.233  17.247   8.973
  913POPC   GL222884  -6.193  17.338   8.971
  913POPC   C1A22885  -6.050  17.166   8.984
  913POPC   D2A22886  -5.868  17.086   8.994
  913POPC   C3A22887  -5.685  17.005   9.005
  913POPC   C4A22888  -5.502  16.925   9.016
  913POPC   C1B22889  -6.059  17.174   9.183
  913POPC   C2B22890  -5.876  17.093   9.194
  913POPC   C3B22891  -5.693  17.013   9.205
  913POPC   C4B22892  -5.510  16.933   9.216
  914POPC   NC322893  27.607  11.565  12.519
  914POPC   PO422894  27.409  11.549  12.493
  914POPC   GL122895  27.211  11.533  12.467
  914POPC   GL222896  27.216  11.595  12.390
  914POPC   C1A22897  27.014  11.516  12.442
  914POPC   D2A22898  26.816  11.500  12.416
  914POPC   C3A22899  26.619  11.483  12.391
  914POPC   C4A22900  26.421  11.467  12.365
  914POPC   C1B22901  27.043  11.361  12.319
  914POPC   C2B22902  26.845  11.345  12.293
  914POPC   C3B22903  26.647  11.329  12.267
  914POPC   C4B22904  26.450  11.312  12.242
  915POPC   NC322905  -7.610  13.036  13.502
  915POPC   PO422906  -7.417  13.003  13.461
  915POPC   GL122907  -7.224  12.970  13.420
  915POPC   GL222908  -7.201  12.984  13.516
  915POPC   C1A22909  -7.031  12.937  13.379
  915POPC   D2A22910  -6.838  12.904  13.338
  915POPC   C3A22911  -6.645  12.871  13.297
  915POPC   C4A22912  -6.452  12.838  13.256
  915POPC   C1B22913  -7.057  12.742  13.414
  915POPC   C2B22914  -6.864  12.709  13.373
  915POPC   C3B22915  -6.671  12.676  13.332
  915POPC   C4B22916  -6.478  12.643  13.291
  916POPC   NC322917  27.389   6.964  13.008
  916POPC   PO422918  27.194   6.997  12.977
  916POPC   GL122919  26.999   7.030  12.946
  916POPC   GL222920  27.005   6.981  12.858
  916POPC   C1A22921  26.804   7.063  12.914
  916POPC   D2A22922  26.610   7.095  12.883
  916POPC   C3A22923  26.415   7.128  12.851
  916POPC   C4A22924  26.220   7.161  12.820
  916POPC   C1B22925  26.760   6.891  13.007
  916POPC   C2B22926  26.566   6.924  12.976
  916POPC   C3B22927  26.371   6.957  12.944
  916POPC   C4B22928  26.176   6.989  12.913
  917POPC   NC322929  23.433   9.805  21.836
  917POPC   PO422930  23.283   9.808  21.704
  917POPC   GL122931  23.133   9.811  21.572
  917POPC   GL222932  23.184   9.874  21.515
  917POPC   C1A22933  22.982   9.813  21.440
  917POPC   D2A22934  22.832   9.816  21.309
  917POPC   C3A22935  22.681   9.818  21.177
  917POPC   C4A22936  22.531   9.821  21.045
  917POPC   C1B22937  23.065   9.659  21.343
  917POPC   C2B22938  22.915   9.662  21.211
  917POPC   C3B22939  22.764   9.665  21.079
  917POPC   C4B22940  22.614   9.667  20.948
  918POPC   NC322941  13.462  -7.106   5.191
  918POPC   PO422942  13.416  -6.919   5.244
  918POPC   GL122943  13.370  -6.732   5.297
  918POPC   GL222944  13.353  -6.709   5.202
  918POPC   C1A22945  13.325  -6.544   5.351
  918POPC   D2A22946  13.279  -6.357   5.404
  918POPC   C3A22947  13.234  -6.169   5.458
  918POPC   C4A22948  13.188  -5.982   5.511
  918POPC   C1B22949  13.133  -6.597   5.373
  918POPC   C2B22950  13.088  -6.410   5.426
  918POPC   C3B22951  13.042  -6.222   5.480
  918POPC   C4B22952  12.996  -6.035   5.533
  919POPC   NC322953  21.457  12.209  -3.723
  919POPC   PO422954  21.329  12.185  -3.571
  919POPC   GL122955  21.201  12.161  -3.419
  919POPC   GL222956  21.196  12.063  -3.439
  919POPC   C1A22957  21.073  12.137  -3.268
  919POPC   D2A22958  20.944  12.113  -3.116
  919POPC   C3A22959  20.816  12.089  -2.965
  919POPC   C4A22960  20.688  12.065  -2.813
  919POPC   C1B22961  21.226  12.106  -3.143
  919POPC   C2B22962  21.098  12.082  -2.992
  919POPC   C3B22963  20.970  12.058  -2.840
  919POPC   C4B22964  20.841  12.034  -2.688
  920POPC   NC322965  -6.656  11.885   2.962
  920POPC   PO422966  -6.471  11.864   3.035
  920POPC   GL122967  -6.286  11.843   3.108
  920POPC   GL222968  -6.323  11.836   3.200
  920POPC   C1A22969  -6.101  11.821   3.181
  920POPC   D2A22970  -5.916  11.800   3.253
  920POPC   C3A22971  -5.731  11.778   3.326
  920POPC   C4A22972  -5.546  11.757   3.399
  920POPC   C1B22973  -6.116  11.623   3.161
  920POPC   C2B22974  -5.931  11.601   3.234
  920POPC   C3B22975  -5.746  11.580   3.307
  920POPC   C4B22976  -5.561  11.559   3.380
  921POPC   NC322977  19.064   5.962  -5.021
  921POPC   PO422978  18.965   6.004  -4.852
  921POPC   GL122979  18.866   6.046  -4.683
  921POPC   GL222980  18.861   6.142  -4.710
  921POPC   C1A22981  18.767   6.087  -4.514
  921POPC   D2A22982  18.668   6.129  -4.346
  921POPC   C3A22983  18.569   6.170  -4.177
  921POPC   C4A22984  18.470   6.212  -4.008
  921POPC   C1B22985  18.594   6.052  -4.607
  921POPC   C2B22986  18.495   6.094  -4.439
  921POPC   C3B22987  18.396   6.135  -4.270
  921POPC   C4B22988  18.297   6.177  -4.101
  922POPC   NC322989  23.153  21.329  14.233
  922POPC   PO422990  23.009  21.199  14.184
  922POPC   GL122991  22.865  21.069  14.135
  922POPC   GL222992  22.840  21.127  14.057
  922POPC   C1A22993  22.721  20.940  14.085
  922POPC   D2A22994  22.576  20.810  14.036
  922POPC   C3A22995  22.432  20.681  13.986
  922POPC   C4A22996  22.288  20.551  13.937
  922POPC   C1B22997  22.850  20.840  13.970
  922POPC   C2B22998  22.706  20.710  13.921
  922POPC   C3B22999  22.562  20.581  13.871
  922POPC   C4B23000  22.417  20.451  13.822
  923POPC   NC323001  12.977  25.925   2.150
  923POPC   PO423002  12.940  25.746   2.232
  923POPC   GL123003  12.903  25.567   2.314
  923POPC   GL223004  13.000  25.544   2.305
  923POPC   C1A23005  12.866  25.389   2.396
  923POPC   D2A23006  12.830  25.210   2.479
  923POPC   C3A23007  12.793  25.032   2.561
  923POPC   C4A23008  12.756  24.853   2.643
  923POPC   C1B23009  12.902  25.465   2.578
  923POPC   C2B23010  12.865  25.286   2.660
  923POPC   C3B23011  12.828  25.108   2.742
  923POPC   C4B23012  12.791  24.929   2.824
  924POPC   NC323013  13.151  21.185  23.719
  924POPC   PO423014  13.116  21.060  23.567
  924POPC   GL123015  13.081  20.935  23.415
  924POPC   GL223016  13.173  20.952  23.380
  924POPC   C1A23017  13.046  20.810  23.263
  924POPC   D2A23018  13.012  20.685  23.110
  924POPC   C3A23019  12.977  20.560  22.958
  924POPC   C4A23020  12.942  20.435  22.806
  924POPC   C1B23021  13.116  20.658  23.372
  924POPC   C2B23022  13.082  20.533  23.220
  924POPC   C3B23023  13.047  20.408  23.067
  924POPC   C4B23024  13.012  20.283  22.915
  925POPC   NC323025  -7.106   7.093  15.408
  925POPC   PO423026  -6.917   7.126  15.352
  925POPC   GL123027  -6.728   7.159  15.296
  925POPC   GL223028  -6.700   7.071  15.337
  925POPC   C1A23029  -6.538   7.191  15.241
  925POPC   D2A23030  -6.349   7.224  15.185
  925POPC   C3A23031  -6.159   7.256  15.130
  925POPC   C4A23032  -5.970   7.289  15.074
  925POPC   C1B23033  -6.573   7.099  15.067
  925POPC   C2B23034  -6.384   7.131  15.011
  925POPC   C3B23035  -6.195   7.164  14.956
  925POPC   C4B23036  -6.005   7.196  14.900
  926POPC   NC323037  24.005  -0.666  13.404
  926POPC   PO423038  23.850  -0.546  13.363
  926POPC   GL123039  23.695  -0.426  13.322
  926POPC   GL223040  23.757  -0.348  13.318
  926POPC   C1A23041  23.540  -0.306  13.281
  926POPC   D2A23042  23.386  -0.187  13.241
  926POPC   C3A23043  23.231  -0.067  13.200
  926POPC   C4A23044  23.076   0.053  13.159
  926POPC   C1B23045  23.568  -0.338  13.086
  926POPC   C2B23046  23.413  -0.218  13.045
  926POPC   C3B23047  23.258  -0.098  13.004
  926POPC   C4B23048  23.103   0.022  12.963
  927POPC   NC323049   1.035   1.309  23.040
  927POPC   PO423050   1.139   1.400  22.895
  927POPC   GL123051   1.243   1.491  22.750
  927POPC   GL223052   1.323   1.494  22.810
  927POPC   C1A23053   1.346   1.582  22.605
  927POPC   D2A23054   1.450   1.673  22.461
  927POPC   C3A23055   1.553   1.764  22.316
  927POPC   C4A23056   1.657   1.855  22.171
  927POPC   C1B23057   1.404   1.404  22.535
  927POPC   C2B23058   1.508   1.495  22.390
  927POPC   C3B23059   1.612   1.586  22.246
  927POPC   C4B23060   1.715   1.677  22.101
  928POPC   NC323061  -4.013   9.829  21.443
  928POPC   PO423062  -3.859   9.827  21.316
  928POPC   GL123063  -3.705   9.825  21.189
  928POPC   GL223064  -3.650   9.774  21.256
  928POPC   C1A23065  -3.550   9.822  21.062
  928POPC   D2A23066  -3.396   9.820  20.934
  928POPC   C3A23067  -3.241   9.817  20.807
  928POPC   C4A23068  -3.087   9.815  20.680
  928POPC   C1B23069  -3.616   9.649  20.985
  928POPC   C2B23070  -3.461   9.647  20.858
  928POPC   C3B23071  -3.307   9.645  20.731
  928POPC   C4B23072  -3.153   9.642  20.604
  929POPC   NC323073  -1.353  15.488  -3.109
  929POPC   PO423074  -1.232  15.429  -2.961
  929POPC   GL123075  -1.111  15.370  -2.813
  929POPC   GL223076  -1.190  15.339  -2.761
  929POPC   C1A23077  -0.989  15.311  -2.666
  929POPC   D2A23078  -0.868  15.253  -2.518
  929POPC   C3A23079  -0.746  15.194  -2.371
  929POPC   C4A23080  -0.625  15.135  -2.223
  929POPC   C1B23081  -0.975  15.130  -2.750
  929POPC   C2B23082  -0.853  15.072  -2.602
  929POPC   C3B23083  -0.732  15.013  -2.455
  929POPC   C4B23084  -0.611  14.954  -2.307
  930POPC   NC323085  12.932  17.642  25.923
  930POPC   PO423086  12.897  17.561  25.744
  930POPC   GL123087  12.862  17.480  25.565
  930POPC   GL223088  12.945  17.424  25.574
  930POPC   C1A23089  12.828  17.398  25.385
  930POPC   D2A23090  12.793  17.317  25.206
  930POPC   C3A23091  12.759  17.235  25.026
  930POPC   C4A23092  12.724  17.154  24.847
  930POPC   C1B23093  12.721  17.253  25.472
  930POPC   C2B23094  12.686  17.172  25.292
  930POPC   C3B23095  12.652  17.090  25.113
  930POPC   C4B23096  12.617  17.009  24.934
  931POPC   NC323097  -7.543  14.167  12.526
  931POPC   PO423098  -7.351  14.117  12.498
  931POPC   GL123099  -7.159  14.067  12.470
  931POPC   GL223100  -7.156  14.030  12.563
  931POPC   C1A23101  -6.968  14.018  12.442
  931POPC   D2A23102  -6.776  13.968  12.414
  931POPC   C3A23103  -6.585  13.919  12.386
  931POPC   C4A23104  -6.393  13.869  12.358
  931POPC   C1B23105  -7.024  13.839  12.373
  931POPC   C2B23106  -6.833  13.789  12.345
  931POPC   C3B23107  -6.641  13.740  12.317
  931POPC   C4B23108  -6.450  13.690  12.289
  932POPC   NC323109   7.663   1.232  -5.743
  932POPC   PO423110   7.682   1.326  -5.568
  932POPC   GL123111   7.701   1.420  -5.393
  932POPC   GL223112   7.800   1.403  -5.394
  932POPC   C1A23113   7.720   1.514  -5.217
  932POPC   D2A23114   7.740   1.609  -5.042
  932POPC   C3A23115   7.759   1.703  -4.866
  932POPC   C4A23116   7.778   1.797  -4.691
  932POPC   C1B23117   7.749   1.687  -5.313
  932POPC   C2B23118   7.768   1.782  -5.138
  932POPC   C3B23119   7.787   1.876  -4.962
  932POPC   C4B23120   7.807   1.970  -4.787
  933POPC   NC323121   7.184  16.940  -6.523
  933POPC   PO423122   7.214  16.862  -6.341
  933POPC   GL123123   7.244  16.784  -6.159
  933POPC   GL223124   7.252  16.876  -6.121
  933POPC   C1A23125   7.274  16.706  -5.978
  933POPC   D2A23126   7.304  16.628  -5.796
  933POPC   C3A23127   7.334  16.550  -5.615
  933POPC   C4A23128   7.364  16.472  -5.433
  933POPC   C1B23129   7.077  16.709  -5.944
  933POPC   C2B23130   7.107  16.631  -5.763
  933POPC   C3B23131   7.137  16.553  -5.581
  933POPC   C4B23132   7.167  16.475  -5.399
  934POPC   NC323133  26.145   7.121  17.160
  934POPC   PO423134  25.967   7.156  17.075
  934POPC   GL123135  25.789   7.191  16.990
  934POPC   GL223136  25.825   7.275  16.950
  934POPC   C1A23137  25.612   7.226  16.905
  934POPC   D2A23138  25.434   7.262  16.821
  934POPC   C3A23139  25.257   7.297  16.736
  934POPC   C4A23140  25.079   7.332  16.651
  934POPC   C1B23141  25.669   7.125  16.743
  934POPC   C2B23142  25.491   7.160  16.658
  934POPC   C3B23143  25.314   7.195  16.573
  934POPC   C4B23144  25.136   7.230  16.489
  935POPC   NC323145   3.494  26.790  11.804
  935POPC   PO423146   3.567  26.605  11.781
  935POPC   GL123147   3.640  26.420  11.758
  935POPC   GL223148   3.732  26.458  11.747
  935POPC   C1A23149   3.713  26.235  11.735
  935POPC   D2A23150   3.785  26.051  11.712
  935POPC   C3A23151   3.858  25.866  11.689
  935POPC   C4A23152   3.931  25.681  11.666
  935POPC   C1B23153   3.742  26.222  11.932
  935POPC   C2B23154   3.815  26.038  11.909
  935POPC   C3B23155   3.888  25.853  11.886
  935POPC   C4B23156   3.960  25.668  11.863
  936POPC   NC323157  16.867  26.326   7.103
  936POPC   PO423158  16.787  26.145   7.132
  936POPC   GL123159  16.707  25.964   7.161
  936POPC   GL223160  16.785  25.922   7.115
  936POPC   C1A23161  16.627  25.783   7.190
  936POPC   D2A23162  16.546  25.602   7.219
  936POPC   C3A23163  16.466  25.421   7.248
  936POPC   C4A23164  16.386  25.240   7.277
  936POPC   C1B23165  16.722  25.769   7.365
  936POPC   C2B23166  16.641  25.588   7.394
  936POPC   C3B23167  16.561  25.407   7.423
  936POPC   C4B23168  16.481  25.226   7.452
  937POPC   NC323169  26.173   6.802  16.959
  937POPC   PO423170  25.995   6.840  16.877
  937POPC   GL123171  25.817   6.878  16.795
  937POPC   GL223172  25.848   6.970  16.770
  937POPC   C1A23173  25.639   6.916  16.713
  937POPC   D2A23174  25.460   6.954  16.630
  937POPC   C3A23175  25.282   6.992  16.548
  937POPC   C4A23176  25.104   7.030  16.466
  937POPC   C1B23177  25.705   6.847  16.537
  937POPC   C2B23178  25.527   6.885  16.455
  937POPC   C3B23179  25.348   6.923  16.373
  937POPC   C4B23180  25.170   6.961  16.290
  938POPC   NC323181  -5.710  16.011   3.236
  938POPC   PO423182  -5.536  15.943   3.308
  938POPC   GL123183  -5.362  15.875   3.380
  938POPC   GL223184  -5.371  15.936   3.459
  938POPC   C1A23185  -5.188  15.808   3.453
  938POPC   D2A23186  -5.015  15.740   3.525
  938POPC   C3A23187  -4.841  15.673   3.598
  938POPC   C4A23188  -4.667  15.605   3.670
  938POPC   C1B23189  -5.286  15.664   3.552
  938POPC   C2B23190  -5.112  15.596   3.624
  938POPC   C3B23191  -4.938  15.529   3.697
  938POPC   C4B23192  -4.764  15.461   3.769
  939POPC   NC323193  21.894  23.428   8.678
  939POPC   PO423194  21.764  23.277   8.692
  939POPC   GL123195  21.634  23.126   8.706
  939POPC   GL223196  21.604  23.143   8.612
  939POPC   C1A23197  21.504  22.975   8.720
  939POPC   D2A23198  21.373  22.823   8.733
  939POPC   C3A23199  21.243  22.672   8.747
  939POPC   C4A23200  21.113  22.521   8.761
  939POPC   C1B23201  21.643  22.848   8.653
  939POPC   C2B23202  21.513  22.697   8.667
  939POPC   C3B23203  21.383  22.546   8.681
  939POPC   C4B23204  21.253  22.394   8.694
  940POPC   NC323205   2.023  15.723  -5.283
  940POPC   PO423206   2.111  15.660  -5.115
  940POPC   GL123207   2.199  15.597  -4.947
  940POPC   GL223208   2.130  15.644  -4.893
  940POPC   C1A23209   2.288  15.534  -4.779
  940POPC   D2A23210   2.376  15.470  -4.611
  940POPC   C3A23211   2.465  15.407  -4.443
  940POPC   C4A23212   2.553  15.344  -4.275
  940POPC   C1B23213   2.174  15.369  -4.781
  940POPC   C2B23214   2.263  15.306  -4.613
  940POPC   C3B23215   2.351  15.243  -4.445
  940POPC   C4B23216   2.439  15.179  -4.277
  941POPC   NC323217  -5.343  16.721   3.066
  941POPC   PO423218  -5.173  16.647   3.140
  941POPC   GL123219  -5.003  16.573   3.214
  941POPC   GL223220  -5.010  16.635   3.292
  941POPC   C1A23221  -4.833  16.499   3.289
  941POPC   D2A23222  -4.662  16.424   3.363
  941POPC   C3A23223  -4.492  16.350   3.438
  941POPC   C4A23224  -4.322  16.276   3.512
  941POPC   C1B23225  -4.937  16.362   3.390
  941POPC   C2B23226  -4.767  16.287   3.465
  941POPC   C3B23227  -4.597  16.213   3.539
  941POPC   C4B23228  -4.426  16.139   3.614
  942POPC   NC323229  26.181   8.752  17.586
  942POPC   PO423230  26.003   8.770  17.496
  942POPC   GL123231  25.825   8.788  17.406
  942POPC   GL223232  25.853   8.720  17.338
  942POPC   C1A23233  25.647   8.806  17.316
  942POPC   D2A23234  25.470   8.823  17.227
  942POPC   C3A23235  25.292   8.841  17.137
  942POPC   C4A23236  25.114   8.859  17.047
  942POPC   C1B23237  25.574   8.661  17.433
  942POPC   C2B23238  25.396   8.678  17.343
  942POPC   C3B23239  25.218   8.696  17.253
  942POPC   C4B23240  25.041   8.714  17.164
  943POPC   NC323241   9.323  16.628  -6.844
  943POPC   PO423242   9.326  16.554  -6.658
  943POPC   GL123243   9.329  16.480  -6.472
  943POPC   GL223244   9.352  16.571  -6.436
  943POPC   C1A23245   9.333  16.407  -6.286
  943POPC   D2A23246   9.336  16.333  -6.100
  943POPC   C3A23247   9.340  16.260  -5.914
  943POPC   C4A23248   9.343  16.186  -5.728
  943POPC   C1B23249   9.138  16.447  -6.267
  943POPC   C2B23250   9.141  16.373  -6.081
  943POPC   C3B23251   9.145  16.300  -5.895
  943POPC   C4B23252   9.148  16.226  -5.709
  944POPC   NC323253  21.365   6.782  -3.615
  944POPC   PO423254  21.239   6.818  -3.464
  944POPC   GL123255  21.113   6.854  -3.313
  944POPC   GL223256  21.041   6.806  -3.362
  944POPC   C1A23257  20.987   6.891  -3.162
  944POPC   D2A23258  20.862   6.927  -3.010
  944POPC   C3A23259  20.736   6.964  -2.859
  944POPC   C4A23260  20.610   7.000  -2.708
  944POPC   C1B23261  21.043   6.720  -3.074
  944POPC   C2B23262  20.917   6.756  -2.923
  944POPC   C3B23263  20.791   6.792  -2.772
  944POPC   C4B23264  20.665   6.829  -2.621
  945POPC   NC323265   1.712  25.759   7.007
  945POPC   PO423266   1.810  25.588   7.040
  945POPC   GL123267   1.908  25.417   7.073
  945POPC   GL223268   1.982  25.468   7.117
  945POPC   C1A23269   2.006  25.246   7.106
  945POPC   D2A23270   2.104  25.074   7.138
  945POPC   C3A23271   2.202  24.903   7.171
  945POPC   C4A23272   2.300  24.732   7.204
  945POPC   C1B23273   1.913  25.226   7.282
  945POPC   C2B23274   2.011  25.055   7.315
  945POPC   C3B23275   2.109  24.884   7.347
  945POPC   C4B23276   2.207  24.713   7.380
  946POPC   NC323277   8.661  -5.067  19.848
  946POPC   PO423278   8.675  -4.900  19.738
  946POPC   GL123279   8.689  -4.733  19.628
  946POPC   GL223280   8.731  -4.686  19.705
  946POPC   C1A23281   8.702  -4.567  19.518
  946POPC   D2A23282   8.716  -4.400  19.409
  946POPC   C3A23283   8.729  -4.234  19.299
  946POPC   C4A23284   8.743  -4.067  19.189
  946POPC   C1B23285   8.882  -4.624  19.453
  946POPC   C2B23286   8.896  -4.458  19.343
  946POPC   C3B23287   8.910  -4.291  19.234
  946POPC   C4B23288   8.923  -4.125  19.124
  947POPC   NC323289  23.761   2.588   1.091
  947POPC   PO423290  23.611   2.671   1.193
  947POPC   GL123291  23.461   2.754   1.295
  947POPC   GL223292  23.483   2.843   1.256
  947POPC   C1A23293  23.311   2.838   1.398
  947POPC   D2A23294  23.160   2.921   1.500
  947POPC   C3A23295  23.010   3.005   1.603
  947POPC   C4A23296  22.860   3.088   1.705
  947POPC   C1B23297  23.186   2.801   1.246
  947POPC   C2B23298  23.036   2.884   1.348
  947POPC   C3B23299  22.886   2.967   1.450
  947POPC   C4B23300  22.736   3.051   1.553
  948POPC   NC323301  16.423  20.900  -2.933
  948POPC   PO423302  16.348  20.782  -2.790
  948POPC   GL123303  16.273  20.664  -2.647
  948POPC   GL223304  16.350  20.601  -2.659
  948POPC   C1A23305  16.198  20.545  -2.504
  948POPC   D2A23306  16.124  20.427  -2.362
  948POPC   C3A23307  16.049  20.308  -2.219
  948POPC   C4A23308  15.974  20.190  -2.076
  948POPC   C1B23309  16.301  20.647  -2.366
  948POPC   C2B23310  16.227  20.528  -2.223
  948POPC   C3B23311  16.152  20.410  -2.081
  948POPC   C4B23312  16.077  20.292  -1.938
  949POPC   NC323313  22.472   3.694  -1.298
  949POPC   PO423314  22.335   3.768  -1.173
  949POPC   GL123315  22.198   3.842  -1.048
  949POPC   GL223316  22.125   3.802  -1.104
  949POPC   C1A23317  22.061   3.916  -0.922
  949POPC   D2A23318  21.923   3.990  -0.797
  949POPC   C3A23319  21.786   4.064  -0.671
  949POPC   C4A23320  21.649   4.138  -0.546
  949POPC   C1B23321  22.069   3.748  -0.814
  949POPC   C2B23322  21.932   3.822  -0.689
  949POPC   C3B23323  21.794   3.896  -0.563
  949POPC   C4B23324  21.657   3.970  -0.438
  950POPC   NC323325  14.081   7.739  -7.512
  950POPC   PO423326  14.030   7.766  -7.320
  950POPC   GL123327  13.979   7.793  -7.128
  950POPC   GL223328  13.974   7.892  -7.143
  950POPC   C1A23329  13.928   7.820  -6.937
  950POPC   D2A23330  13.877   7.846  -6.745
  950POPC   C3A23331  13.826   7.873  -6.554
  950POPC   C4A23332  13.775   7.900  -6.362
  950POPC   C1B23333  13.735   7.803  -6.986
  950POPC   C2B23334  13.684   7.830  -6.794
  950POPC   C3B23335  13.633   7.857  -6.603
  950POPC   C4B23336  13.582   7.884  -6.411
  951POPC   NC323337  23.241  20.589   4.169
  951POPC   PO423338  23.090  20.471   4.228
  951POPC   GL123339  22.939  20.353   4.287
  951POPC   GL223340  22.982  20.276   4.239
  951POPC   C1A23341  22.789  20.235   4.345
  951POPC   D2A23342  22.638  20.118   4.404
  951POPC   C3A23343  22.488  20.000   4.462
  951POPC   C4A23344  22.337  19.882   4.521
  951POPC   C1B23345  22.890  20.189   4.512
  951POPC   C2B23346  22.739  20.072   4.570
  951POPC   C3B23347  22.588  19.954   4.629
  951POPC   C4B23348  22.438  19.836   4.687
  952POPC   NC323349   9.918  -2.796  22.643
  952POPC   PO423350   9.911  -2.653  22.504
  952POPC   GL123351   9.904  -2.510  22.365
  952POPC   GL223352   9.905  -2.580  22.293
  952POPC   C1A23353   9.897  -2.367  22.225
  952POPC   D2A23354   9.891  -2.223  22.086
  952POPC   C3A23355   9.884  -2.080  21.946
  952POPC   C4A23356   9.877  -1.937  21.807
  952POPC   C1B23357   9.698  -2.372  22.229
  952POPC   C2B23358   9.691  -2.229  22.090
  952POPC   C3B23359   9.684  -2.086  21.951
  952POPC   C4B23360   9.677  -1.942  21.811
  953POPC   NC323361  15.099  -6.310  15.609
  953POPC   PO423362  15.040  -6.130  15.545
  953POPC   GL123363  14.981  -5.950  15.481
  953POPC   GL223364  14.993  -5.979  15.386
  953POPC   C1A23365  14.922  -5.770  15.417
  953POPC   D2A23366  14.862  -5.589  15.354
  953POPC   C3A23367  14.803  -5.409  15.290
  953POPC   C4A23368  14.744  -5.229  15.226
  953POPC   C1B23369  14.732  -5.833  15.413
  953POPC   C2B23370  14.673  -5.653  15.349
  953POPC   C3B23371  14.614  -5.473  15.286
  953POPC   C4B23372  14.554  -5.293  15.222
  954POPC   NC323373   5.920  22.529  22.221
  954POPC   PO423374   5.962  22.390  22.084
  954POPC   GL123375   6.004  22.251  21.947
  954POPC   GL223376   6.078  22.308  21.911
  954POPC   C1A23377   6.046  22.111  21.810
  954POPC   D2A23378   6.087  21.972  21.672
  954POPC   C3A23379   6.129  21.832  21.535
  954POPC   C4A23380   6.171  21.693  21.398
  954POPC   C1B23381   6.174  22.025  21.937
  954POPC   C2B23382   6.215  21.885  21.799
  954POPC   C3B23383   6.257  21.746  21.662
  954POPC   C4B23384   6.299  21.606  21.525
  955POPC   NC323385  21.360  20.236  19.338
  955POPC   PO423386  21.233  20.120  19.237
  955POPC   GL123387  21.106  20.004  19.136
  955POPC   GL223388  21.183  19.960  19.089
  955POPC   C1A23389  20.979  19.887  19.034
  955POPC   D2A23390  20.851  19.771  18.933
  955POPC   C3A23391  20.724  19.654  18.831
  955POPC   C4A23392  20.597  19.538  18.730
  955POPC   C1B23393  20.989  19.750  19.179
  955POPC   C2B23394  20.862  19.633  19.077
  955POPC   C3B23395  20.735  19.517  18.976
  955POPC   C4B23396  20.608  19.400  18.875
  956POPC   NC323397  -8.112   9.935   8.070
  956POPC   PO423398  -7.914   9.932   8.097
  956POPC   GL123399  -7.716   9.929   8.124
  956POPC   GL223400  -7.719  10.023   8.159
  956POPC   C1A23401  -7.518   9.926   8.152
  956POPC   D2A23402  -7.320   9.924   8.179
  956POPC   C3A23403  -7.122   9.921   8.207
  956POPC   C4A23404  -6.924   9.918   8.234
  956POPC   C1B23405  -7.545   9.857   8.338
  956POPC   C2B23406  -7.347   9.855   8.365
  956POPC   C3B23407  -7.149   9.852   8.392
  956POPC   C4B23408  -6.951   9.849   8.420
  957POPC   NC323409  -4.575   1.591   2.933
  957POPC   PO423410  -4.414   1.686   3.004
  957POPC   GL123411  -4.253   1.781   3.075
  957POPC   GL223412  -4.209   1.694   3.092
  957POPC   C1A23413  -4.092   1.877   3.146
  957POPC   D2A23414  -3.932   1.972   3.216
  957POPC   C3A23415  -3.771   2.068   3.287
  957POPC   C4A23416  -3.610   2.163   3.358
  957POPC   C1B23417  -4.013   1.880   2.962
  957POPC   C2B23418  -3.853   1.975   3.033
  957POPC   C3B23419  -3.692   2.071   3.104
  957POPC   C4B23420  -3.531   2.166   3.174
  958POPC   NC323421   5.830  21.136  23.492
  958POPC   PO423422   5.874  21.009  23.344
  958POPC   GL123423   5.918  20.882  23.196
  958POPC   GL223424   5.996  20.847  23.249
  958POPC   C1A23425   5.963  20.755  23.048
  958POPC   D2A23426   6.007  20.628  22.900
  958POPC   C3A23427   6.052  20.501  22.752
  958POPC   C4A23428   6.096  20.374  22.604
  958POPC   C1B23429   5.844  20.617  23.131
  958POPC   C2B23430   5.888  20.490  22.983
  958POPC   C3B23431   5.933  20.363  22.835
  958POPC   C4B23432   5.977  20.236  22.687
  959POPC   NC323433  -6.333  18.010  10.457
  959POPC   PO423434  -6.153  17.923  10.449
  959POPC   GL123435  -5.973  17.836  10.441
  959POPC   GL223436  -5.996  17.781  10.521
  959POPC   C1A23437  -5.793  17.750  10.433
  959POPC   D2A23438  -5.613  17.663  10.425
  959POPC   C3A23439  -5.433  17.577  10.417
  959POPC   C4A23440  -5.253  17.490  10.409
  959POPC   C1B23441  -5.866  17.608  10.312
  959POPC   C2B23442  -5.686  17.522  10.304
  959POPC   C3B23443  -5.506  17.435  10.296
  959POPC   C4B23444  -5.326  17.349  10.288
  960POPC   NC323445  24.976   5.790   0.928
  960POPC   PO423446  24.809   5.835   1.028
  960POPC   GL123447  24.642   5.880   1.128
  960POPC   GL223448  24.608   5.931   1.049
  960POPC   C1A23449  24.474   5.924   1.228
  960POPC   D2A23450  24.307   5.969   1.327
  960POPC   C3A23451  24.139   6.013   1.427
  960POPC   C4A23452  23.972   6.058   1.527
  960POPC   C1B23453  24.387   5.759   1.156
  960POPC   C2B23454  24.220   5.803   1.256
  960POPC   C3B23455  24.053   5.848   1.356
  960POPC   C4B23456  23.885   5.893   1.455
  961POPC   NC323457  27.761  10.125  11.688
  961POPC   PO423458  27.562  10.123  11.671
  961POPC   GL123459  27.363  10.121  11.654
  961POPC   GL223460  27.368  10.192  11.584
  961POPC   C1A23461  27.164  10.119  11.637
  961POPC   D2A23462  26.964  10.116  11.621
  961POPC   C3A23463  26.765  10.114  11.604
  961POPC   C4A23464  26.566  10.112  11.587
  961POPC   C1B23465  27.177   9.978  11.496
  961POPC   C2B23466  26.978   9.975  11.479
  961POPC   C3B23467  26.779   9.973  11.463
  961POPC   C4B23468  26.580   9.971  11.446
  962POPC   NC323469  12.114  27.462  13.736
  962POPC   PO423470  12.089  27.268  13.694
  962POPC   GL123471  12.064  27.074  13.652
  962POPC   GL223472  12.099  27.089  13.560
  962POPC   C1A23473  12.038  26.880  13.611
  962POPC   D2A23474  12.013  26.686  13.569
  962POPC   C3A23475  11.987  26.492  13.528
  962POPC   C4A23476  11.962  26.298  13.486
  962POPC   C1B23477  12.223  26.842  13.676
  962POPC   C2B23478  12.198  26.648  13.635
  962POPC   C3B23479  12.172  26.454  13.593
  962POPC   C4B23480  12.147  26.260  13.552
  963POPC   NC323481   1.426  -1.516  21.025
  963POPC   PO423482   1.520  -1.390  20.902
  963POPC   GL123483   1.614  -1.264  20.779
  963POPC   GL223484   1.676  -1.237  20.853
  963POPC   C1A23485   1.708  -1.137  20.656
  963POPC   D2A23486   1.802  -1.011  20.532
  963POPC   C3A23487   1.896  -0.884  20.409
  963POPC   C4A23488   1.990  -0.758  20.286
  963POPC   C1B23489   1.834  -1.283  20.602
  963POPC   C2B23490   1.928  -1.157  20.479
  963POPC   C3B23491   2.022  -1.030  20.356
  963POPC   C4B23492   2.116  -0.904  20.232
  964POPC   NC323493  21.267  22.984  14.815
  964POPC   PO423494  21.138  22.843  14.756
  964POPC   GL123495  21.009  22.702  14.697
  964POPC   GL223496  21.055  22.636  14.757
  964POPC   C1A23497  20.881  22.560  14.638
  964POPC   D2A23498  20.752  22.419  14.580
  964POPC   C3A23499  20.624  22.277  14.521
  964POPC   C4A23500  20.495  22.136  14.462
  964POPC   C1B23501  20.757  22.610  14.788
  964POPC   C2B23502  20.629  22.469  14.729
  964POPC   C3B23503  20.500  22.328  14.670
  964POPC   C4B23504  20.372  22.186  14.611
  965POPC   NC323505  22.094  23.142   7.822
  965POPC   PO423506  21.959  22.996   7.845
  965POPC   GL123507  21.824  22.850   7.868
  965POPC   GL223508  21.782  22.876   7.782
  965POPC   C1A23509  21.689  22.704   7.892
  965POPC   D2A23510  21.555  22.559   7.915
  965POPC   C3A23511  21.420  22.413   7.939
  965POPC   C4A23512  21.285  22.267   7.962
  965POPC   C1B23513  21.810  22.577   7.795
  965POPC   C2B23514  21.675  22.432   7.819
  965POPC   C3B23515  21.540  22.286   7.842
  965POPC   C4B23516  21.406  22.140   7.865
  966POPC   NC323517  23.971  15.409   0.054
  966POPC   PO423518  23.813  15.351   0.162
  966POPC   GL123519  23.655  15.293   0.270
  966POPC   GL223520  23.594  15.329   0.200
  966POPC   C1A23521  23.497  15.235   0.379
  966POPC   D2A23522  23.340  15.177   0.487
  966POPC   C3A23523  23.182  15.119   0.596
  966POPC   C4A23524  23.024  15.061   0.704
  966POPC   C1B23525  23.499  15.058   0.286
  966POPC   C2B23526  23.341  15.000   0.394
  966POPC   C3B23527  23.183  14.942   0.503
  966POPC   C4B23528  23.025  14.884   0.611
  967POPC   NC323529  17.452  -6.363  10.727
  967POPC   PO423530  17.366  -6.182  10.717
  967POPC   GL123531  17.280  -6.001  10.707
  967POPC   GL223532  17.368  -5.962  10.679
  967POPC   C1A23533  17.195  -5.821  10.698
  967POPC   D2A23534  17.109  -5.640  10.688
  967POPC   C3A23535  17.024  -5.460  10.679
  967POPC   C4A23536  16.938  -5.279  10.669
  967POPC   C1B23537  17.148  -5.853  10.506
  967POPC   C2B23538  17.063  -5.672  10.496
  967POPC   C3B23539  16.977  -5.492  10.487
  967POPC   C4B23540  16.891  -5.311  10.477
  968POPC   NC323541  -3.509  12.743  -1.912
  968POPC   PO423542  -3.365  12.720  -1.775
  968POPC   GL123543  -3.221  12.697  -1.638
  968POPC   GL223544  -3.226  12.795  -1.617
  968POPC   C1A23545  -3.077  12.675  -1.501
  968POPC   D2A23546  -2.934  12.652  -1.364
  968POPC   C3A23547  -2.790  12.630  -1.227
  968POPC   C4A23548  -2.646  12.607  -1.090
  968POPC   C1B23549  -3.216  12.639  -1.361
  968POPC   C2B23550  -3.072  12.616  -1.224
  968POPC   C3B23551  -2.928  12.594  -1.087
  968POPC   C4B23552  -2.785  12.571  -0.950
  969POPC   NC323553  27.582  13.432   9.370
  969POPC   PO423554  27.385  13.398   9.373
  969POPC   GL123555  27.188  13.364   9.376
  969POPC   GL223556  27.192  13.332   9.282
  969POPC   C1A23557  26.991  13.331   9.380
  969POPC   D2A23558  26.793  13.297   9.383
  969POPC   C3A23559  26.596  13.264   9.387
  969POPC   C4A23560  26.399  13.230   9.390
  969POPC   C1B23561  27.023  13.145   9.445
  969POPC   C2B23562  26.826  13.111   9.449
  969POPC   C3B23563  26.629  13.078   9.452
  969POPC   C4B23564  26.432  13.044   9.455
  970POPC   NC323565  16.144   8.326  -6.866
  970POPC   PO423566  16.070   8.348  -6.682
  970POPC   GL123567  15.996   8.370  -6.498
  970POPC   GL223568  15.905   8.347  -6.532
  970POPC   C1A23569  15.922   8.391  -6.313
  970POPC   D2A23570  15.847   8.413  -6.129
  970POPC   C3A23571  15.773   8.434  -5.944
  970POPC   C4A23572  15.699   8.456  -5.760
  970POPC   C1B23573  15.955   8.197  -6.277
  970POPC   C2B23574  15.881   8.219  -6.093
  970POPC   C3B23575  15.807   8.241  -5.908
  970POPC   C4B23576  15.733   8.262  -5.724
  971POPC   NC323577  19.947  14.954  -4.178
  971POPC   PO423578  19.836  14.897  -4.022
  971POPC   GL123579  19.725  14.840  -3.866
  971POPC   GL223580  19.642  14.869  -3.914
  971POPC   C1A23581  19.613  14.783  -3.710
  971POPC   D2A23582  19.502  14.726  -3.554
  971POPC   C3A23583  19.390  14.669  -3.398
  971POPC   C4A23584  19.279  14.612  -3.242
  971POPC   C1B23585  19.596  14.600  -3.789
  971POPC   C2B23586  19.484  14.543  -3.633
  971POPC   C3B23587  19.373  14.486  -3.477
  971POPC   C4B23588  19.262  14.429  -3.321
  972POPC   NC323589  27.387   9.554  14.267
  972POPC   PO423590  27.192   9.556  14.225
  972POPC   GL123591  26.997   9.558  14.183
  972POPC   GL223592  27.016   9.523  14.091
  972POPC   C1A23593  26.801   9.560  14.141
  972POPC   D2A23594  26.606   9.562  14.098
  972POPC   C3A23595  26.410   9.564  14.056
  972POPC   C4A23596  26.215   9.566  14.014
  972POPC   C1B23597  26.784   9.373  14.209
  972POPC   C2B23598  26.589   9.375  14.167
  972POPC   C3B23599  26.394   9.377  14.125
  972POPC   C4B23600  26.198   9.379  14.083
  973POPC   NC323601  -3.298   3.741  -0.791
  973POPC   PO423602  -3.155   3.810  -0.669
  973POPC   GL123603  -3.012   3.879  -0.547
  973POPC   GL223604  -3.061   3.842  -0.468
  973POPC   C1A23605  -2.869   3.948  -0.425
  973POPC   D2A23606  -2.727   4.017  -0.304
  973POPC   C3A23607  -2.584   4.086  -0.182
  973POPC   C4A23608  -2.441   4.155  -0.060
  973POPC   C1B23609  -2.770   3.776  -0.445
  973POPC   C2B23610  -2.627   3.845  -0.323
  973POPC   C3B23611  -2.484   3.914  -0.201
  973POPC   C4B23612  -2.341   3.983  -0.080
  974POPC   NC323613   5.024  25.963   2.946
  974POPC   PO423614   5.079  25.789   3.027
  974POPC   GL123615   5.134  25.615   3.108
  974POPC   GL223616   5.189  25.594   3.027
  974POPC   C1A23617   5.189  25.440   3.189
  974POPC   D2A23618   5.244  25.266   3.271
  974POPC   C3A23619   5.299  25.091   3.352
  974POPC   C4A23620   5.354  24.917   3.433
  974POPC   C1B23621   5.346  25.530   3.275
  974POPC   C2B23622   5.401  25.355   3.356
  974POPC   C3B23623   5.456  25.181   3.437
  974POPC   C4B23624   5.511  25.006   3.518
  975POPC   NC323625  15.131  22.656  21.665
  975POPC   PO423626  15.077  22.512  21.537
  975POPC   GL123627  15.023  22.368  21.409
  975POPC   GL223628  15.012  22.436  21.337
  975POPC   C1A23629  14.968  22.224  21.281
  975POPC   D2A23630  14.914  22.080  21.154
  975POPC   C3A23631  14.859  21.936  21.026
  975POPC   C4A23632  14.805  21.792  20.898
  975POPC   C1B23633  15.160  22.198  21.229
  975POPC   C2B23634  15.105  22.054  21.101
  975POPC   C3B23635  15.051  21.910  20.974
  975POPC   C4B23636  14.996  21.766  20.846
  976POPC   NC323637  25.326  15.440   2.341
  976POPC   PO423638  25.156  15.381   2.427
  976POPC   GL123639  24.986  15.322   2.513
  976POPC   GL223640  24.939  15.403   2.477
  976POPC   C1A23641  24.815  15.262   2.600
  976POPC   D2A23642  24.645  15.203   2.686
  976POPC   C3A23643  24.474  15.143   2.773
  976POPC   C4A23644  24.304  15.084   2.859
  976POPC   C1B23645  24.767  15.161   2.434
  976POPC   C2B23646  24.596  15.102   2.521
  976POPC   C3B23647  24.426  15.042   2.607
  976POPC   C4B23648  24.255  14.983   2.693
  977POPC   NC323649   6.096   5.982  27.094
  977POPC   PO423650   6.137   6.033  26.905
  977POPC   GL123651   6.178   6.084  26.716
  977POPC   GL223652   6.274   6.093  26.739
  977POPC   C1A23653   6.218   6.135  26.527
  977POPC   D2A23654   6.259   6.186  26.338
  977POPC   C3A23655   6.299   6.237  26.149
  977POPC   C4A23656   6.340   6.288  25.960
  977POPC   C1B23657   6.248   5.943  26.481
  977POPC   C2B23658   6.288   5.994  26.292
  977POPC   C3B23659   6.329   6.045  26.103
  977POPC   C4B23660   6.369   6.096  25.914
  978POPC   NC323661   0.307  13.111  24.892
  978POPC   PO423662   0.418  13.072  24.730
  978POPC   GL123663   0.529  13.033  24.568
  978POPC   GL223664   0.598  12.989  24.626
  978POPC   C1A23665   0.639  12.994  24.406
  978POPC   D2A23666   0.750  12.954  24.244
  978POPC   C3A23667   0.860  12.915  24.082
  978POPC   C4A23668   0.971  12.876  23.920
  978POPC   C1B23669   0.546  12.818  24.385
  978POPC   C2B23670   0.657  12.778  24.223
  978POPC   C3B23671   0.768  12.739  24.061
  978POPC   C4B23672   0.878  12.700  23.899
  979POPC   NC323673  19.683  24.426  14.465
  979POPC   PO423674  19.571  24.271  14.407
  979POPC   GL123675  19.459  24.116  14.349
  979POPC   GL223676  19.508  24.113  14.262
  979POPC   C1A23677  19.347  23.961  14.291
  979POPC   D2A23678  19.234  23.806  14.233
  979POPC   C3A23679  19.122  23.651  14.175
  979POPC   C4A23680  19.010  23.496  14.117
  979POPC   C1B23681  19.480  23.835  14.370
  979POPC   C2B23682  19.368  23.680  14.312
  979POPC   C3B23683  19.256  23.525  14.254
  979POPC   C4B23684  19.143  23.370  14.196
  980POPC   NC323685  17.207  -0.019  -3.229
  980POPC   PO423686  17.125   0.094  -3.086
  980POPC   GL123687  17.043   0.207  -2.943
  980POPC   GL223688  17.013   0.273  -3.012
  980POPC   C1A23689  16.962   0.320  -2.799
  980POPC   D2A23690  16.880   0.433  -2.656
  980POPC   C3A23691  16.799   0.546  -2.512
  980POPC   C4A23692  16.717   0.659  -2.369
  980POPC   C1B23693  16.790   0.220  -2.818
  980POPC   C2B23694  16.708   0.333  -2.675
  980POPC   C3B23695  16.626   0.446  -2.532
  980POPC   C4B23696  16.545   0.559  -2.388
  981POPC   NC323697  11.160  17.370  -6.466
  981POPC   PO423698  11.143  17.289  -6.284
  981POPC   GL123699  11.126  17.208  -6.102
  981POPC   GL223700  11.179  17.128  -6.133
  981POPC   C1A23701  11.110  17.127  -5.920
  981POPC   D2A23702  11.093  17.046  -5.738
  981POPC   C3A23703  11.077  16.965  -5.556
  981POPC   C4A23704  11.060  16.884  -5.374
  981POPC   C1B23705  11.279  17.217  -5.864
  981POPC   C2B23706  11.263  17.136  -5.682
  981POPC   C3B23707  11.246  17.055  -5.500
  981POPC   C4B23708  11.229  16.974  -5.318
  982POPC   NC323709   6.040  19.973  -4.666
  982POPC   PO423710   6.081  19.862  -4.505
  982POPC   GL123711   6.122  19.751  -4.344
  982POPC   GL223712   6.213  19.733  -4.380
  982POPC   C1A23713   6.163  19.640  -4.183
  982POPC   D2A23714   6.204  19.529  -4.021
  982POPC   C3A23715   6.245  19.418  -3.860
  982POPC   C4A23716   6.286  19.307  -3.699
  982POPC   C1B23717   6.232  19.802  -4.088
  982POPC   C2B23718   6.273  19.691  -3.927
  982POPC   C3B23719   6.314  19.580  -3.766
  982POPC   C4B23720   6.355  19.469  -3.605
  983POPC   NC323721  11.016   1.545  -5.973
  983POPC   PO423722  11.004   1.640  -5.797
  983POPC   GL123723  10.992   1.735  -5.621
  983POPC   GL223724  11.089   1.757  -5.627
  983POPC   C1A23725  10.980   1.830  -5.446
  983POPC   D2A23726  10.967   1.924  -5.270
  983POPC   C3A23727  10.955   2.019  -5.095
  983POPC   C4A23728  10.943   2.114  -4.919
  983POPC   C1B23729  10.936   2.000  -5.541
  983POPC   C2B23730  10.923   2.095  -5.365
  983POPC   C3B23731  10.911   2.190  -5.190
  983POPC   C4B23732  10.899   2.284  -5.014
  984POPC   NC323733  26.437   6.503  16.193
  984POPC   PO423734  26.255   6.544  16.121
  984POPC   GL123735  26.073   6.585  16.049
  984POPC   GL223736  26.091   6.683  16.060
  984POPC   C1A23737  25.891   6.626  15.976
  984POPC   D2A23738  25.710   6.666  15.904
  984POPC   C3A23739  25.528   6.707  15.831
  984POPC   C4A23740  25.346   6.748  15.759
  984POPC   C1B23741  25.967   6.635  15.791
  984POPC   C2B23742  25.785   6.675  15.719
  984POPC   C3B23743  25.603   6.716  15.646
  984POPC   C4B23744  25.422   6.757  15.574
  985POPC   NC323745   3.219  -6.098  14.783
  985POPC   PO423746   3.292  -5.920  14.730
  985POPC   GL123747   3.365  -5.742  14.677
  985POPC   GL223748   3.458  -5.775  14.691
  985POPC   C1A23749   3.438  -5.563  14.624
  985POPC   D2A23750   3.511  -5.385  14.571
  985POPC   C3A23751   3.584  -5.206  14.518
  985POPC   C4A23752   3.657  -5.028  14.465
  985POPC   C1B23753   3.445  -5.623  14.433
  985POPC   C2B23754   3.518  -5.445  14.380
  985POPC   C3B23755   3.591  -5.266  14.327
  985POPC   C4B23756   3.664  -5.088  14.274
  986POPC   NC323757  26.839   8.485  15.994
  986POPC   PO423758  26.652   8.504  15.927
  986POPC   GL123759  26.465   8.523  15.860
  986POPC   GL223760  26.477   8.441  15.804
  986POPC   C1A23761  26.277   8.541  15.793
  986POPC   D2A23762  26.090   8.560  15.725
  986POPC   C3A23763  25.902   8.578  15.658
  986POPC   C4A23764  25.715   8.597  15.591
  986POPC   C1B23765  26.212   8.428  15.944
  986POPC   C2B23766  26.024   8.447  15.877
  986POPC   C3B23767  25.837   8.466  15.810
  986POPC   C4B23768  25.649   8.484  15.743
  987POPC   NC323769   4.418   0.773  -4.639
  987POPC   PO423770   4.484   0.879  -4.483
  987POPC   GL123771   4.550   0.985  -4.327
  987POPC   GL223772   4.504   0.922  -4.265
  987POPC   C1A23773   4.616   1.092  -4.171
  987POPC   D2A23774   4.681   1.198  -4.015
  987POPC   C3A23775   4.747   1.305  -3.859
  987POPC   C4A23776   4.813   1.411  -3.703
  987POPC   C1B23777   4.780   0.979  -4.163
  987POPC   C2B23778   4.846   1.085  -4.007
  987POPC   C3B23779   4.912   1.191  -3.851
  987POPC   C4B23780   4.978   1.298  -3.695
  988POPC   NC323781  -5.601  10.504   0.603
  988POPC   PO423782  -5.430  10.501   0.706
  988POPC   GL123783  -5.259  10.498   0.809
  988POPC   GL223784  -5.270  10.400   0.825
  988POPC   C1A23785  -5.087  10.495   0.912
  988POPC   D2A23786  -4.916  10.492   1.016
  988POPC   C3A23787  -4.744  10.489   1.119
  988POPC   C4A23788  -4.573  10.486   1.222
  988POPC   C1B23789  -4.986  10.457   0.744
  988POPC   C2B23790  -4.815  10.454   0.847
  988POPC   C3B23791  -4.644  10.451   0.950
  988POPC   C4B23792  -4.472  10.448   1.054
  989POPC   NC323793   9.859  16.803  26.627
  989POPC   PO423794   9.853  16.733  26.440
  989POPC   GL123795   9.847  16.663  26.253
  989POPC   GL223796   9.872  16.572  26.286
  989POPC   C1A23797   9.842  16.594  26.065
  989POPC   D2A23798   9.836  16.524  25.878
  989POPC   C3A23799   9.831  16.455  25.690
  989POPC   C4A23800   9.825  16.385  25.503
  989POPC   C1B23801   9.648  16.550  26.087
  989POPC   C2B23802   9.642  16.481  25.900
  989POPC   C3B23803   9.637  16.411  25.712
  989POPC   C4B23804   9.631  16.342  25.525
  990POPC   NC323805  12.729   5.123  -7.217
  990POPC   PO423806  12.702   5.180  -7.027
  990POPC   GL123807  12.675   5.237  -6.837
  990POPC   GL223808  12.665   5.331  -6.867
  990POPC   C1A23809  12.647   5.293  -6.647
  990POPC   D2A23810  12.620   5.350  -6.458
  990POPC   C3A23811  12.592   5.406  -6.268
  990POPC   C4A23812  12.565   5.463  -6.078
  990POPC   C1B23813  12.450   5.266  -6.668
  990POPC   C2B23814  12.423   5.323  -6.478
  990POPC   C3B23815  12.395   5.379  -6.288
  990POPC   C4B23816  12.368   5.436  -6.098
  991POPC   NC323817  21.892  -3.298   7.648
  991POPC   PO423818  21.759  -3.151   7.674
  991POPC   GL123819  21.626  -3.004   7.700
  991POPC   GL223820  21.653  -2.964   7.613
  991POPC   C1A23821  21.492  -2.858   7.726
  991POPC   D2A23822  21.359  -2.711   7.753
  991POPC   C3A23823  21.225  -2.565   7.779
  991POPC   C4A23824  21.092  -2.418   7.805
  991POPC   C1B23825  21.354  -2.967   7.632
  991POPC   C2B23826  21.220  -2.820   7.658
  991POPC   C3B23827  21.087  -2.674   7.685
  991POPC   C4B23828  20.953  -2.527   7.711
  992POPC   NC323829  11.307  21.862  23.453
  992POPC   PO423830  11.287  21.729  23.305
  992POPC   GL123831  11.267  21.596  23.157
  992POPC   GL223832  11.272  21.670  23.090
  992POPC   C1A23833  11.246  21.463  23.009
  992POPC   D2A23834  11.226  21.331  22.860
  992POPC   C3A23835  11.205  21.198  22.712
  992POPC   C4A23836  11.185  21.065  22.564
  992POPC   C1B23837  11.445  21.442  23.001
  992POPC   C2B23838  11.424  21.309  22.852
  992POPC   C3B23839  11.404  21.176  22.704
  992POPC   C4B23840  11.384  21.043  22.556
  993POPC   NC323841   0.942   0.522  22.434
  993POPC   PO423842   1.045   0.624  22.296
  993POPC   GL123843   1.148   0.726  22.158
  993POPC   GL223844   1.227   0.728  22.219
  993POPC   C1A23845   1.251   0.828  22.020
  993POPC   D2A23846   1.355   0.929  21.883
  993POPC   C3A23847   1.458   1.031  21.745
  993POPC   C4A23848   1.561   1.133  21.607
  993POPC   C1B23849   1.317   0.655  21.942
  993POPC   C2B23850   1.420   0.757  21.805
  993POPC   C3B23851   1.523   0.859  21.667
  993POPC   C4B23852   1.627   0.961  21.529
  994POPC   NC323853  -4.605   3.967  19.037
  994POPC   PO423854  -4.448   4.039  18.936
  994POPC   GL123855  -4.291   4.111  18.835
  994POPC   GL223856  -4.233   4.040  18.875
  994POPC   C1A23857  -4.135   4.183  18.733
  994POPC   D2A23858  -3.978   4.255  18.632
  994POPC   C3A23859  -3.822   4.327  18.530
  994POPC   C4A23860  -3.665   4.399  18.429
  994POPC   C1B23861  -4.177   4.061  18.581
  994POPC   C2B23862  -4.021   4.133  18.479
  994POPC   C3B23863  -3.864   4.205  18.378
  994POPC   C4B23864  -3.708   4.277  18.276
  995POPC   NC323865  27.535   9.185   6.597
  995POPC   PO423866  27.338   9.194   6.633
  995POPC   GL123867  27.141   9.203   6.669
  995POPC   GL223868  27.135   9.104   6.657
  995POPC   C1A23869  26.945   9.212   6.705
  995POPC   D2A23870  26.748   9.222   6.741
  995POPC   C3A23871  26.552   9.231   6.777
  995POPC   C4A23872  26.355   9.240   6.813
  995POPC   C1B23873  26.979   9.186   6.900
  995POPC   C2B23874  26.783   9.195   6.936
  995POPC   C3B23875  26.586   9.204   6.972
  995POPC   C4B23876  26.389   9.214   7.008
  996POPC   NC323877  22.023  -3.375  10.044
  996POPC   PO423878  21.887  -3.228  10.042
  996POPC   GL123879  21.751  -3.081  10.040
  996POPC   GL223880  21.818  -3.019  10.082
  996POPC   C1A23881  21.616  -2.934  10.038
  996POPC   D2A23882  21.480  -2.787  10.035
  996POPC   C3A23883  21.345  -2.640  10.033
  996POPC   C4A23884  21.209  -2.493  10.031
  996POPC   C1B23885  21.679  -2.878   9.856
  996POPC   C2B23886  21.543  -2.731   9.854
  996POPC   C3B23887  21.408  -2.584   9.852
  996POPC   C4B23888  21.272  -2.437   9.850
  997POPC   NC323889  13.536  24.521  -0.164
  997POPC   PO423890  13.497  24.356  -0.057
  997POPC   GL123891  13.458  24.191   0.050
  997POPC   GL223892  13.438  24.141  -0.035
  997POPC   C1A23893  13.419  24.027   0.156
  997POPC   D2A23894  13.380  23.862   0.263
  997POPC   C3A23895  13.341  23.698   0.369
  997POPC   C4A23896  13.302  23.533   0.476
  997POPC   C1B23897  13.611  23.973   0.143
  997POPC   C2B23898  13.572  23.808   0.250
  997POPC   C3B23899  13.533  23.644   0.356
  997POPC   C4B23900  13.494  23.479   0.463
  998POPC   NC323901  -4.808  12.532  20.114
  998POPC   PO423902  -4.646  12.509  19.999
  998POPC   GL123903  -4.484  12.486  19.884
  998POPC   GL223904  -4.469  12.395  19.923
  998POPC   C1A23905  -4.322  12.463  19.769
  998POPC   D2A23906  -4.160  12.440  19.653
  998POPC   C3A23907  -3.998  12.417  19.538
  998POPC   C4A23908  -3.836  12.394  19.423
  998POPC   C1B23909  -4.435  12.381  19.625
  998POPC   C2B23910  -4.273  12.358  19.510
  998POPC   C3B23911  -4.111  12.335  19.395
  998POPC   C4B23912  -3.949  12.312  19.280
  999POPC   NC323913   1.721  18.371  -3.855
  999POPC   PO423914   1.812  18.284  -3.700
  999POPC   GL123915   1.903  18.197  -3.545
  999POPC   GL223916   1.986  18.249  -3.564
  999POPC   C1A23917   1.995  18.109  -3.390
  999POPC   D2A23918   2.086  18.022  -3.235
  999POPC   C3A23919   2.178  17.934  -3.080
  999POPC   C4A23920   2.269  17.847  -2.925
  999POPC   C1B23921   1.931  18.256  -3.270
  999POPC   C2B23922   2.022  18.168  -3.115
  999POPC   C3B23923   2.114  18.081  -2.960
  999POPC   C4B23924   2.205  17.993  -2.805
 1000POPC   NC323925  -4.359  20.083   5.142
 1000POPC   PO423926  -4.201  19.974   5.198
 1000POPC   GL123927  -4.043  19.865   5.254
 1000POPC   GL223928  -4.073  19.872   5.350
 1000POPC   C1A23929  -3.885  19.756   5.311
 1000POPC   D2A23930  -3.727  19.647   5.367
 1000POPC   C3A23931  -3.569  19.538   5.424
 1000POPC   C4A23932  -3.411  19.429   5.480
 1000POPC   C1B23933  -3.993  19.589   5.289
 1000POPC   C2B23934  -3.835  19.480   5.346
 1000POPC   C3B23935  -3.677  19.371   5.402
 1000POPC   C4B23936  -3.519  19.262   5.459
 1001POPC   NC323937  16.226  26.725   8.049
 1001POPC   PO423938  16.151  26.541   8.069
 1001POPC   GL123939  16.076  26.357   8.089
 1001POPC   GL223940  16.146  26.321   8.026
 1001POPC   C1A23941  16.001  26.172   8.109
 1001POPC   D2A23942  15.926  25.988   8.128
 1001POPC   C3A23943  15.851  25.803   8.148
 1001POPC   C4A23944  15.776  25.619   8.168
 1001POPC   C1B23945  16.123  26.139   8.263
 1001POPC   C2B23946  16.048  25.955   8.283
 1001POPC   C3B23947  15.973  25.770   8.303
 1001POPC   C4B23948  15.898  25.586   8.323
 1002POPC   NC323949  10.656  -4.829  20.221
 1002POPC   PO423950  10.644  -4.668  20.104
 1002POPC   GL123951  10.632  -4.507  19.987
 1002POPC   GL223952  10.712  -4.539  19.935
 1002POPC   C1A23953  10.621  -4.345  19.869
 1002POPC   D2A23954  10.609  -4.184  19.752
 1002POPC   C3A23955  10.598  -4.022  19.634
 1002POPC   C4A23956  10.586  -3.861  19.517
 1002POPC   C1B23957  10.500  -4.445  19.745
 1002POPC   C2B23958  10.488  -4.283  19.627
 1002POPC   C3B23959  10.477  -4.122  19.510
 1002POPC   C4B23960  10.465  -3.960  19.392
 1003POPC   NC323961   9.735  27.332  15.011
 1003POPC   PO423962   9.734  27.139  14.958
 1003POPC   GL123963   9.733  26.946  14.905
 1003POPC   GL223964   9.782  26.923  14.989
 1003POPC   C1A23965   9.732  26.753  14.852
 1003POPC   D2A23966   9.731  26.561  14.798
 1003POPC   C3A23967   9.730  26.368  14.745
 1003POPC   C4A23968   9.729  26.175  14.692
 1003POPC   C1B23969   9.557  26.728  14.946
 1003POPC   C2B23970   9.556  26.536  14.892
 1003POPC   C3B23971   9.555  26.343  14.839
 1003POPC   C4B23972   9.554  26.150  14.786
 1004POPC   NC323973  23.451  -0.065   3.531
 1004POPC   PO423974  23.301   0.047   3.601
 1004POPC   GL123975  23.151   0.159   3.671
 1004POPC   GL223976  23.215   0.235   3.686
 1004POPC   C1A23977  23.001   0.271   3.741
 1004POPC   D2A23978  22.851   0.384   3.811
 1004POPC   C3A23979  22.701   0.496   3.881
 1004POPC   C4A23980  22.551   0.608   3.951
 1004POPC   C1B23981  22.965   0.338   3.556
 1004POPC   C2B23982  22.815   0.451   3.626
 1004POPC   C3B23983  22.665   0.563   3.696
 1004POPC   C4B23984  22.515   0.675   3.766
 1005POPC   NC323985   2.126  -0.636  22.360
 1005POPC   PO423986   2.216  -0.519  22.225
 1005POPC   GL123987   2.306  -0.402  22.090
 1005POPC   GL223988   2.362  -0.362  22.162
 1005POPC   C1A23989   2.396  -0.285  21.955
 1005POPC   D2A23990   2.485  -0.168  21.820
 1005POPC   C3A23991   2.575  -0.051  21.685
 1005POPC   C4A23992   2.665   0.066  21.550
 1005POPC   C1B23993   2.535  -0.426  21.925
 1005POPC   C2B23994   2.624  -0.309  21.790
 1005POPC   C3B23995   2.714  -0.192  21.655
 1005POPC   C4B23996   2.804  -0.075  21.520
 1006POPC   NC323997  -5.134  19.143  14.118
 1006POPC   PO423998  -4.970  19.038  14.071
 1006POPC   GL123999  -4.806  18.933  14.024
 1006POPC   GL224000  -4.817  18.879  14.108
 1006POPC   C1A24001  -4.643  18.828  13.977
 1006POPC   D2A24002  -4.479  18.722  13.931
 1006POPC   C3A24003  -4.316  18.617  13.884
 1006POPC   C4A24004  -4.152  18.512  13.837
 1006POPC   C1B24005  -4.756  18.696  13.878
 1006POPC   C2B24006  -4.592  18.591  13.831
 1006POPC   C3B24007  -4.429  18.486  13.784
 1006POPC   C4B24008  -4.265  18.381  13.737
 1007POPC   NC324009   7.473  25.966  18.018
 1007POPC   PO424010   7.500  25.789  17.930
 1007POPC   GL124011   7.527  25.612  17.842
 1007POPC   GL224012   7.622  25.610  17.874
 1007POPC   C1A24013   7.554  25.434  17.753
 1007POPC   D2A24014   7.581  25.257  17.665
 1007POPC   C3A24015   7.608  25.079  17.576
 1007POPC   C4A24016   7.635  24.902  17.488
 1007POPC   C1B24017   7.496  25.342  17.921
 1007POPC   C2B24018   7.523  25.164  17.832
 1007POPC   C3B24019   7.550  24.987  17.744
 1007POPC   C4B24020   7.577  24.810  17.656
 1008POPC   NC324021   6.385  23.801  20.989
 1008POPC   PO424022   6.426  23.653  20.861
 1008POPC   GL124023   6.467  23.505  20.733
 1008POPC   GL224024   6.504  23.571  20.668
 1008POPC   C1A24025   6.508  23.356  20.605
 1008POPC   D2A24026   6.548  23.208  20.478
 1008POPC   C3A24027   6.589  23.059  20.350
 1008POPC   C4A24028   6.630  22.911  20.222
 1008POPC   C1B24029   6.689  23.336  20.687
 1008POPC   C2B24030   6.730  23.187  20.559
 1008POPC   C3B24031   6.771  23.039  20.431
 1008POPC   C4B24032   6.811  22.891  20.304
 1009POPC   NC324033  27.341   8.704   5.776
 1009POPC   PO424034  27.146   8.718   5.819
 1009POPC   GL124035  26.951   8.732   5.862
 1009POPC   GL224036  26.929   8.729   5.765
 1009POPC   C1A24037  26.756   8.746   5.905
 1009POPC   D2A24038  26.562   8.759   5.949
 1009POPC   C3A24039  26.367   8.773   5.992
 1009POPC   C4A24040  26.172   8.787   6.035
 1009POPC   C1B24041  26.744   8.546   5.914
 1009POPC   C2B24042  26.549   8.560   5.957
 1009POPC   C3B24043  26.355   8.574   6.000
 1009POPC   C4B24044  26.160   8.588   6.043
 1010POPC   NC324045  10.312  -2.426  -3.183
 1010POPC   PO424046  10.305  -2.289  -3.038
 1010POPC   GL124047  10.298  -2.152  -2.893
 1010POPC   GL224048  10.379  -2.193  -2.850
 1010POPC   C1A24049  10.291  -2.015  -2.747
 1010POPC   D2A24050  10.283  -1.877  -2.602
 1010POPC   C3A24051  10.276  -1.740  -2.456
 1010POPC   C4A24052  10.269  -1.603  -2.311
 1010POPC   C1B24053  10.408  -1.894  -2.855
 1010POPC   C2B24054  10.401  -1.757  -2.710
 1010POPC   C3B24055  10.394  -1.620  -2.564
 1010POPC   C4B24056  10.386  -1.482  -2.419
 1011POPC   NC324057  10.458  13.247  -7.816
 1011POPC   PO424058  10.451  13.209  -7.620
 1011POPC   GL124059  10.444  13.171  -7.424
 1011POPC   GL224060  10.514  13.101  -7.435
 1011POPC   C1A24061  10.436  13.133  -7.228
 1011POPC   D2A24062  10.429  13.094  -7.031
 1011POPC   C3A24063  10.421  13.056  -6.835
 1011POPC   C4A24064  10.414  13.018  -6.639
 1011POPC   C1B24065  10.577  13.271  -7.195
 1011POPC   C2B24066  10.570  13.232  -6.999
 1011POPC   C3B24067  10.563  13.194  -6.803
 1011POPC   C4B24068  10.555  13.156  -6.607
 1012POPC   NC324069  -0.006  24.893  12.662
 1012POPC   PO424070   0.101  24.727  12.631
 1012POPC   GL124071   0.208  24.561  12.600
 1012POPC   GL224072   0.292  24.615  12.598
 1012POPC   C1A24073   0.314  24.394  12.570
 1012POPC   D2A24074   0.421  24.228  12.539
 1012POPC   C3A24075   0.527  24.061  12.509
 1012POPC   C4A24076   0.634  23.895  12.478
 1012POPC   C1B24077   0.335  24.371  12.767
 1012POPC   C2B24078   0.441  24.205  12.737
 1012POPC   C3B24079   0.548  24.038  12.706
 1012POPC   C4B24080   0.654  23.872  12.676
 1013POPC   NC324081  25.997  17.391   6.994
 1013POPC   PO424082  25.818  17.308   7.026
 1013POPC   GL124083  25.639  17.225   7.058
 1013POPC   GL224084  25.656  17.159   6.984
 1013POPC   C1A24085  25.460  17.142   7.089
 1013POPC   D2A24086  25.280  17.059   7.121
 1013POPC   C3A24087  25.101  16.976   7.152
 1013POPC   C4A24088  24.922  16.893   7.184
 1013POPC   C1B24089  25.541  17.016   7.221
 1013POPC   C2B24090  25.362  16.933   7.253
 1013POPC   C3B24091  25.183  16.850   7.284
 1013POPC   C4B24092  25.004  16.767   7.316
 1014POPC   NC324093  25.636   2.973  15.295
 1014POPC   PO424094  25.460   3.050  15.238
 1014POPC   GL124095  25.284   3.127  15.181
 1014POPC   GL224096  25.315   3.126  15.086
 1014POPC   C1A24097  25.109   3.204  15.124
 1014POPC   D2A24098  24.933   3.280  15.067
 1014POPC   C3A24099  24.758   3.357  15.010
 1014POPC   C4A24100  24.582   3.434  14.953
 1014POPC   C1B24101  25.035   3.019  15.102
 1014POPC   C2B24102  24.859   3.096  15.045
 1014POPC   C3B24103  24.684   3.173  14.988
 1014POPC   C4B24104  24.508   3.249  14.931
 1015POPC   NC324105   5.510  -0.160  -4.380
 1015POPC   PO424106   5.562  -0.043  -4.226
 1015POPC   GL124107   5.614   0.074  -4.072
 1015POPC   GL224108   5.581   0.004  -4.008
 1015POPC   C1A24109   5.665   0.191  -3.918
 1015POPC   D2A24110   5.717   0.307  -3.764
 1015POPC   C3A24111   5.768   0.424  -3.610
 1015POPC   C4A24112   5.820   0.541  -3.456
 1015POPC   C1B24113   5.847   0.108  -3.917
 1015POPC   C2B24114   5.899   0.225  -3.763
 1015POPC   C3B24115   5.951   0.342  -3.609
 1015POPC   C4B24116   6.002   0.459  -3.455
 1016POPC   NC324117  16.895  -4.250   1.337
 1016POPC   PO424118  16.816  -4.091   1.429
 1016POPC   GL124119  16.737  -3.932   1.521
 1016POPC   GL224120  16.791  -3.871   1.463
 1016POPC   C1A24121  16.659  -3.773   1.614
 1016POPC   D2A24122  16.580  -3.614   1.706
 1016POPC   C3A24123  16.502  -3.455   1.799
 1016POPC   C4A24124  16.423  -3.296   1.891
 1016POPC   C1B24125  16.509  -3.770   1.481
 1016POPC   C2B24126  16.431  -3.611   1.573
 1016POPC   C3B24127  16.352  -3.452   1.666
 1016POPC   C4B24128  16.274  -3.293   1.758
 1017POPC   NC324129  17.901   0.606  23.102
 1017POPC   PO424130  17.810   0.710  22.957
 1017POPC   GL124131  17.719   0.814  22.812
 1017POPC   GL224132  17.787   0.782  22.747
 1017POPC   C1A24133  17.627   0.918  22.668
 1017POPC   D2A24134  17.536   1.021  22.523
 1017POPC   C3A24135  17.444   1.125  22.379
 1017POPC   C4A24136  17.353   1.229  22.234
 1017POPC   C1B24137  17.513   0.759  22.626
 1017POPC   C2B24138  17.422   0.863  22.481
 1017POPC   C3B24139  17.330   0.966  22.337
 1017POPC   C4B24140  17.239   1.070  22.192
 1018POPC   NC324141  19.328   2.040  23.060
 1018POPC   PO424142  19.220   2.126  22.915
 1018POPC   GL124143  19.112   2.212  22.770
 1018POPC   GL224144  19.121   2.130  22.714
 1018POPC   C1A24145  19.003   2.298  22.626
 1018POPC   D2A24146  18.895   2.383  22.481
 1018POPC   C3A24147  18.786   2.469  22.337
 1018POPC   C4A24148  18.678   2.555  22.192
 1018POPC   C1B24149  18.836   2.223  22.707
 1018POPC   C2B24150  18.728   2.309  22.562
 1018POPC   C3B24151  18.619   2.394  22.417
 1018POPC   C4B24152  18.511   2.480  22.273
 1019POPC   NC324153  23.488   4.498  -0.581
 1019POPC   PO424154  23.340   4.563  -0.463
 1019POPC   GL124155  23.192   4.628  -0.345
 1019POPC   GL224156  23.154   4.680  -0.421
 1019POPC   C1A24157  23.045   4.693  -0.226
 1019POPC   D2A24158  22.897   4.758  -0.108
 1019POPC   C3A24159  22.750   4.823   0.011
 1019POPC   C4A24160  22.602   4.888   0.129
 1019POPC   C1B24161  22.934   4.535  -0.277
 1019POPC   C2B24162  22.786   4.600  -0.159
 1019POPC   C3B24163  22.639   4.665  -0.041
 1019POPC   C4B24164  22.491   4.730   0.078
 1020POPC   NC324165  -2.783  11.143  -2.835
 1020POPC   PO424166  -2.643  11.133  -2.692
 1020POPC   GL124167  -2.503  11.123  -2.549
 1020POPC   GL224168  -2.537  11.208  -2.510
 1020POPC   C1A24169  -2.364  11.112  -2.406
 1020POPC   D2A24170  -2.224  11.102  -2.264
 1020POPC   C3A24171  -2.085  11.091  -2.121
 1020POPC   C4A24172  -1.945  11.081  -1.978
 1020POPC   C1B24173  -2.490  11.009  -2.291
 1020POPC   C2B24174  -2.350  10.998  -2.148
 1020POPC   C3B24175  -2.211  10.988  -2.005
 1020POPC   C4B24176  -2.071  10.977  -1.862
 1021POPC   NC324177   3.059   2.782  -5.199
 1021POPC   PO424178   3.136   2.864  -5.034
 1021POPC   GL124179   3.213   2.946  -4.869
 1021POPC   GL224180   3.287   2.879  -4.870
 1021POPC   C1A24181   3.290   3.028  -4.704
 1021POPC   D2A24182   3.368   3.110  -4.538
 1021POPC   C3A24183   3.445   3.192  -4.373
 1021POPC   C4A24184   3.522   3.274  -4.208
 1021POPC   C1B24185   3.400   3.152  -4.816
 1021POPC   C2B24186   3.477   3.234  -4.651
 1021POPC   C3B24187   3.554   3.316  -4.486
 1021POPC   C4B24188   3.632   3.398  -4.321
 1022POPC   NC324189  24.534   0.440   5.534
 1022POPC   PO424190  24.371   0.547   5.580
 1022POPC   GL124191  24.208   0.654   5.626
 1022POPC   GL224192  24.230   0.718   5.552
 1022POPC   C1A24193  24.045   0.761   5.671
 1022POPC   D2A24194  23.883   0.868   5.717
 1022POPC   C3A24195  23.720   0.975   5.762
 1022POPC   C4A24196  23.557   1.082   5.808
 1022POPC   C1B24197  23.938   0.651   5.543
 1022POPC   C2B24198  23.775   0.758   5.589
 1022POPC   C3B24199  23.612   0.865   5.634
 1022POPC   C4B24200  23.449   0.972   5.680
 1023POPC   NC324201  24.578  10.673  -0.393
 1023POPC   PO424202  24.417  10.666  -0.275
 1023POPC   GL124203  24.256  10.659  -0.157
 1023POPC   GL224204  24.245  10.562  -0.177
 1023POPC   C1A24205  24.095  10.652  -0.039
 1023POPC   D2A24206  23.933  10.646   0.080
 1023POPC   C3A24207  23.772  10.639   0.198
 1023POPC   C4A24208  23.611  10.632   0.316
 1023POPC   C1B24209  24.211  10.608   0.118
 1023POPC   C2B24210  24.050  10.601   0.236
 1023POPC   C3B24211  23.889  10.595   0.354
 1023POPC   C4B24212  23.728  10.588   0.472
 1024POPC   NC324213  21.890  -1.981   3.704
 1024POPC   PO424214  21.756  -1.849   3.772
 1024POPC   GL124215  21.622  -1.717   3.840
 1024POPC   GL224216  21.560  -1.742   3.766
 1024POPC   C1A24217  21.489  -1.584   3.908
 1024POPC   D2A24218  21.355  -1.452   3.977
 1024POPC   C3A24219  21.222  -1.319   4.045
 1024POPC   C4A24220  21.088  -1.187   4.113
 1024POPC   C1B24221  21.408  -1.726   4.025
 1024POPC   C2B24222  21.274  -1.593   4.093
 1024POPC   C3B24223  21.141  -1.461   4.161
 1024POPC   C4B24224  21.007  -1.328   4.229
 1025POPC   NC324225  17.486  25.865   6.167
 1025POPC   PO424226  17.402  25.688   6.205
 1025POPC   GL124227  17.318  25.511   6.243
 1025POPC   GL224228  17.395  25.465   6.200
 1025POPC   C1A24229  17.233  25.334   6.282
 1025POPC   D2A24230  17.149  25.156   6.320
 1025POPC   C3A24231  17.064  24.979   6.359
 1025POPC   C4A24232  16.980  24.802   6.397
 1025POPC   C1B24233  17.328  25.327   6.458
 1025POPC   C2B24234  17.244  25.149   6.496
 1025POPC   C3B24235  17.159  24.972   6.535
 1025POPC   C4B24236  17.075  24.795   6.573
 1026POPC   NC324237  16.307  -2.141  -1.774
 1026POPC   PO424238  16.239  -2.005  -1.644
 1026POPC   GL124239  16.171  -1.869  -1.514
 1026POPC   GL224240  16.161  -1.803  -1.589
 1026POPC   C1A24241  16.103  -1.733  -1.384
 1026POPC   D2A24242  16.034  -1.596  -1.255
 1026POPC   C3A24243  15.966  -1.460  -1.125
 1026POPC   C4A24244  15.898  -1.324  -0.995
 1026POPC   C1B24245  15.916  -1.796  -1.416
 1026POPC   C2B24246  15.847  -1.660  -1.286
 1026POPC   C3B24247  15.779  -1.524  -1.156
 1026POPC   C4B24248  15.711  -1.388  -1.026
 1027POPC   NC324249  20.431  -3.670   4.639
 1027POPC   PO424250  20.314  -3.518   4.697
 1027POPC   GL124251  20.197  -3.366   4.755
 1027POPC   GL224252  20.208  -3.323   4.666
 1027POPC   C1A24253  20.081  -3.215   4.814
 1027POPC   D2A24254  19.964  -3.063   4.872
 1027POPC   C3A24255  19.848  -2.912   4.931
 1027POPC   C4A24256  19.731  -2.760   4.989
 1027POPC   C1B24257  19.920  -3.313   4.747
 1027POPC   C2B24258  19.803  -3.161   4.806
 1027POPC   C3B24259  19.686  -3.010   4.864
 1027POPC   C4B24260  19.570  -2.858   4.923
 1028POPC   NC324261  24.628  10.812  20.314
 1028POPC   PO424262  24.465  10.806  20.198
 1028POPC   GL124263  24.302  10.800  20.082
 1028POPC   GL224264  24.346  10.861  20.017
 1028POPC   C1A24265  24.139  10.793  19.966
 1028POPC   D2A24266  23.976  10.787  19.851
 1028POPC   C3A24267  23.813  10.780  19.735
 1028POPC   C4A24268  23.650  10.774  19.619
 1028POPC   C1B24269  24.215  10.636  19.868
 1028POPC   C2B24270  24.052  10.630  19.753
 1028POPC   C3B24271  23.889  10.623  19.637
 1028POPC   C4B24272  23.726  10.617  19.521
 1029POPC   NC324273  -4.158  20.755   6.013
 1029POPC   PO424274  -4.004  20.636   6.059
 1029POPC   GL124275  -3.850  20.517   6.105
 1029POPC   GL224276  -3.902  20.478   6.181
 1029POPC   C1A24277  -3.696  20.398   6.151
 1029POPC   D2A24278  -3.541  20.280   6.197
 1029POPC   C3A24279  -3.387  20.161   6.243
 1029POPC   C4A24280  -3.233  20.042   6.289
 1029POPC   C1B24281  -3.767  20.258   6.028
 1029POPC   C2B24282  -3.613  20.139   6.074
 1029POPC   C3B24283  -3.459  20.020   6.120
 1029POPC   C4B24284  -3.305  19.901   6.166
 1030POPC   NC324285  14.776   6.719  -7.130
 1030POPC   PO424286  14.714   6.756  -6.944
 1030POPC   GL124287  14.652   6.793  -6.758
 1030POPC   GL224288  14.645   6.890  -6.779
 1030POPC   C1A24289  14.589   6.830  -6.571
 1030POPC   D2A24290  14.527   6.866  -6.385
 1030POPC   C3A24291  14.464   6.903  -6.198
 1030POPC   C4A24292  14.402   6.940  -6.012
 1030POPC   C1B24293  14.400   6.805  -6.630
 1030POPC   C2B24294  14.337   6.842  -6.443
 1030POPC   C3B24295  14.275   6.878  -6.257
 1030POPC   C4B24296  14.212   6.915  -6.071
 1031POPC   NC324297  12.823  26.799   4.246
 1031POPC   PO424298  12.786  26.613   4.310
 1031POPC   GL124299  12.749  26.427   4.374
 1031POPC   GL224300  12.847  26.413   4.389
 1031POPC   C1A24301  12.712  26.241   4.438
 1031POPC   D2A24302  12.674  26.056   4.503
 1031POPC   C3A24303  12.637  25.870   4.567
 1031POPC   C4A24304  12.600  25.684   4.631
 1031POPC   C1B24305  12.694  26.310   4.626
 1031POPC   C2B24306  12.657  26.124   4.690
 1031POPC   C3B24307  12.619  25.938   4.754
 1031POPC   C4B24308  12.582  25.752   4.818
 1032POPC   NC324309  -1.318  23.625  14.013
 1032POPC   PO424310  -1.197  23.474  13.964
 1032POPC   GL124311  -1.076  23.323  13.915
 1032POPC   GL224312  -1.095  23.279  14.003
 1032POPC   C1A24313  -0.955  23.171  13.866
 1032POPC   D2A24314  -0.834  23.020  13.816
 1032POPC   C3A24315  -0.713  22.868  13.767
 1032POPC   C4A24316  -0.592  22.717  13.718
 1032POPC   C1B24317  -1.110  23.074  13.785
 1032POPC   C2B24318  -0.989  22.922  13.736
 1032POPC   C3B24319  -0.868  22.771  13.686
 1032POPC   C4B24320  -0.747  22.620  13.637
 1033POPC   NC324321  -2.601   1.813  -0.303
 1033POPC   PO424322  -2.469   1.904  -0.184
 1033POPC   GL124323  -2.337   1.995  -0.065
 1033POPC   GL224324  -2.373   1.944   0.014
 1033POPC   C1A24325  -2.205   2.086   0.054
 1033POPC   D2A24326  -2.072   2.177   0.174
 1033POPC   C3A24327  -1.940   2.268   0.293
 1033POPC   C4A24328  -1.808   2.359   0.412
 1033POPC   C1B24329  -2.073   1.940   0.020
 1033POPC   C2B24330  -1.941   2.031   0.139
 1033POPC   C3B24331  -1.808   2.122   0.258
 1033POPC   C4B24332  -1.676   2.213   0.378
 1034POPC   NC324333  -1.111  20.215  -0.167
 1034POPC   PO424334  -0.989  20.100  -0.058
 1034POPC   GL124335  -0.867  19.985   0.051
 1034POPC   GL224336  -0.940  19.972   0.119
 1034POPC   C1A24337  -0.745  19.870   0.160
 1034POPC   D2A24338  -0.624  19.754   0.268
 1034POPC   C3A24339  -0.502  19.639   0.377
 1034POPC   C4A24340  -0.380  19.524   0.486
 1034POPC   C1B24341  -0.810  19.708   0.060
 1034POPC   C2B24342  -0.688  19.593   0.169
 1034POPC   C3B24343  -0.566  19.478   0.278
 1034POPC   C4B24344  -0.444  19.363   0.387
 1035POPC   NC324345   1.630  15.857  24.866
 1035POPC   PO424346   1.728  15.792  24.704
 1035POPC   GL124347   1.826  15.727  24.542
 1035POPC   GL224348   1.911  15.764  24.578
 1035POPC   C1A24349   1.923  15.662  24.380
 1035POPC   D2A24350   2.021  15.596  24.218
 1035POPC   C3A24351   2.118  15.531  24.056
 1035POPC   C4A24352   2.216  15.466  23.894
 1035POPC   C1B24353   1.960  15.488  24.472
 1035POPC   C2B24354   2.057  15.423  24.310
 1035POPC   C3B24355   2.155  15.357  24.148
 1035POPC   C4B24356   2.253  15.292  23.986
 1036POPC   NC324357   7.113  21.386  23.617
 1036POPC   PO424358   7.146  21.256  23.469
 1036POPC   GL124359   7.179  21.126  23.321
 1036POPC   GL224360   7.241  21.075  23.380
 1036POPC   C1A24361   7.212  20.996  23.172
 1036POPC   D2A24362   7.246  20.866  23.024
 1036POPC   C3A24363   7.279  20.736  22.875
 1036POPC   C4A24364   7.312  20.606  22.727
 1036POPC   C1B24365   7.059  20.884  23.236
 1036POPC   C2B24366   7.092  20.754  23.088
 1036POPC   C3B24367   7.126  20.624  22.939
 1036POPC   C4B24368   7.159  20.494  22.791
 1037POPC   NC324369   1.253   7.933  -5.821
 1037POPC   PO424370   1.350   7.953  -5.647
 1037POPC   GL124371   1.447   7.973  -5.473
 1037POPC   GL224372   1.398   7.894  -5.437
 1037POPC   C1A24373   1.544   7.993  -5.299
 1037POPC   D2A24374   1.641   8.013  -5.126
 1037POPC   C3A24375   1.738   8.033  -4.952
 1037POPC   C4A24376   1.835   8.053  -4.778
 1037POPC   C1B24377   1.689   7.873  -5.367
 1037POPC   C2B24378   1.786   7.893  -5.193
 1037POPC   C3B24379   1.883   7.913  -5.019
 1037POPC   C4B24380   1.980   7.933  -4.845
 1038POPC   NC324381  14.371  -5.599  17.876
 1038POPC   PO424382  14.317  -5.426  17.791
 1038POPC   GL124383  14.263  -5.253  17.706
 1038POPC   GL224384  14.357  -5.239  17.676
 1038POPC   C1A24385  14.209  -5.080  17.621
 1038POPC   D2A24386  14.155  -4.907  17.537
 1038POPC   C3A24387  14.101  -4.734  17.452
 1038POPC   C4A24388  14.047  -4.561  17.367
 1038POPC   C1B24389  14.168  -5.176  17.451
 1038POPC   C2B24390  14.114  -5.003  17.366
 1038POPC   C3B24391  14.060  -4.830  17.281
 1038POPC   C4B24392  14.006  -4.657  17.197
 1039POPC   NC324393  18.732  23.457  17.894
 1039POPC   PO424394  18.629  23.309  17.807
 1039POPC   GL124395  18.526  23.161  17.720
 1039POPC   GL224396  18.574  23.094  17.778
 1039POPC   C1A24397  18.424  23.012  17.634
 1039POPC   D2A24398  18.321  22.864  17.547
 1039POPC   C3A24399  18.219  22.715  17.461
 1039POPC   C4A24400  18.116  22.567  17.374
 1039POPC   C1B24401  18.281  23.030  17.773
 1039POPC   C2B24402  18.179  22.881  17.686
 1039POPC   C3B24403  18.076  22.733  17.600
 1039POPC   C4B24404  17.973  22.584  17.513
 1040POPC   NC324405  16.852   6.854  -6.338
 1040POPC   PO424406  16.773   6.889  -6.158
 1040POPC   GL124407  16.694   6.924  -5.978
 1040POPC   GL224408  16.603   6.932  -6.019
 1040POPC   C1A24409  16.615   6.959  -5.797
 1040POPC   D2A24410  16.535   6.993  -5.617
 1040POPC   C3A24411  16.456   7.028  -5.436
 1040POPC   C4A24412  16.377   7.063  -5.256
 1040POPC   C1B24413  16.585   6.762  -5.772
 1040POPC   C2B24414  16.506   6.797  -5.592
 1040POPC   C3B24415  16.427   6.832  -5.411
 1040POPC   C4B24416  16.348   6.867  -5.231
 1041POPC   NC324417  23.089  -1.941  12.822
 1041POPC   PO424418  22.943  -1.809  12.786
 1041POPC   GL124419  22.797  -1.677  12.750
 1041POPC   GL224420  22.849  -1.640  12.674
 1041POPC   C1A24421  22.651  -1.545  12.714
 1041POPC   D2A24422  22.504  -1.414  12.679
 1041POPC   C3A24423  22.358  -1.282  12.643
 1041POPC   C4A24424  22.212  -1.150  12.607
 1041POPC   C1B24425  22.564  -1.676  12.590
 1041POPC   C2B24426  22.417  -1.544  12.554
 1041POPC   C3B24427  22.271  -1.412  12.519
 1041POPC   C4B24428  22.125  -1.280  12.483
 1042POPC   NC324429  20.256  17.989  -2.482
 1042POPC   PO424430  20.143  17.901  -2.343
 1042POPC   GL124431  20.030  17.813  -2.204
 1042POPC   GL224432  20.101  17.743  -2.190
 1042POPC   C1A24433  19.917  17.724  -2.064
 1042POPC   D2A24434  19.804  17.636  -1.925
 1042POPC   C3A24435  19.691  17.547  -1.785
 1042POPC   C4A24436  19.578  17.459  -1.646
 1042POPC   C1B24437  20.002  17.838  -1.923
 1042POPC   C2B24438  19.889  17.750  -1.784
 1042POPC   C3B24439  19.776  17.661  -1.644
 1042POPC   C4B24440  19.663  17.573  -1.505
 1043POPC   NC324441   2.925  10.429  -6.738
 1043POPC   PO424442   3.003  10.423  -6.554
 1043POPC   GL124443   3.081  10.417  -6.370
 1043POPC   GL224444   3.047  10.324  -6.359
 1043POPC   C1A24445   3.159  10.411  -6.186
 1043POPC   D2A24446   3.237  10.406  -6.002
 1043POPC   C3A24447   3.315  10.400  -5.818
 1043POPC   C4A24448   3.393  10.394  -5.634
 1043POPC   C1B24449   3.330  10.340  -6.261
 1043POPC   C2B24450   3.408  10.334  -6.077
 1043POPC   C3B24451   3.486  10.328  -5.893
 1043POPC   C4B24452   3.564  10.323  -5.709
 1044POPC   NC324453  27.361   6.291   7.628
 1044POPC   PO424454  27.166   6.327   7.652
 1044POPC   GL124455  26.971   6.363   7.676
 1044POPC   GL224456  26.980   6.448   7.624
 1044POPC   C1A24457  26.775   6.398   7.699
 1044POPC   D2A24458  26.580   6.434   7.723
 1044POPC   C3A24459  26.384   6.469   7.746
 1044POPC   C4A24460  26.189   6.505   7.770
 1044POPC   C1B24461  26.737   6.300   7.529
 1044POPC   C2B24462  26.541   6.335   7.553
 1044POPC   C3B24463  26.346   6.371   7.577
 1044POPC   C4B24464  26.150   6.407   7.600
 1045POPC   NC324465  20.954   4.689  -3.265
 1045POPC   PO424466  20.831   4.751  -3.120
 1045POPC   GL124467  20.708   4.813  -2.975
 1045POPC   GL224468  20.629   4.790  -3.032
 1045POPC   C1A24469  20.586   4.875  -2.830
 1045POPC   D2A24470  20.463   4.938  -2.684
 1045POPC   C3A24471  20.341   5.000  -2.539
 1045POPC   C4A24472  20.218   5.062  -2.394
 1045POPC   C1B24473  20.585   4.691  -2.752
 1045POPC   C2B24474  20.462   4.753  -2.607
 1045POPC   C3B24475  20.339   4.816  -2.461
 1045POPC   C4B24476  20.217   4.878  -2.316
 1046POPC   NC324477  12.364  18.211  -5.912
 1046POPC   PO424478  12.335  18.121  -5.736
 1046POPC   GL124479  12.306  18.031  -5.560
 1046POPC   GL224480  12.403  18.004  -5.558
 1046POPC   C1A24481  12.278  17.941  -5.383
 1046POPC   D2A24482  12.249  17.851  -5.207
 1046POPC   C3A24483  12.221  17.761  -5.030
 1046POPC   C4A24484  12.192  17.671  -4.854
 1046POPC   C1B24485  12.324  18.111  -5.289
 1046POPC   C2B24486  12.296  18.021  -5.112
 1046POPC   C3B24487  12.267  17.931  -4.936
 1046POPC   C4B24488  12.239  17.841  -4.760
 1047POPC   NC324489  16.807  22.843  -0.667
 1047POPC   PO424490  16.723  22.700  -0.555
 1047POPC   GL124491  16.639  22.557  -0.443
 1047POPC   GL224492  16.618  22.505  -0.525
 1047POPC   C1A24493  16.555  22.415  -0.331
 1047POPC   D2A24494  16.471  22.272  -0.218
 1047POPC   C3A24495  16.387  22.130  -0.106
 1047POPC   C4A24496  16.303  21.987   0.006
 1047POPC   C1B24497  16.731  22.322  -0.317
 1047POPC   C2B24498  16.647  22.179  -0.205
 1047POPC   C3B24499  16.563  22.036  -0.093
 1047POPC   C4B24500  16.479  21.894   0.020
 1048POPC   NC324501  -6.962  15.982  12.631
 1048POPC   PO424502  -6.776  15.915  12.602
 1048POPC   GL124503  -6.590  15.848  12.573
 1048POPC   GL224504  -6.554  15.940  12.585
 1048POPC   C1A24505  -6.404  15.780  12.545
 1048POPC   D2A24506  -6.217  15.713  12.516
 1048POPC   C3A24507  -6.031  15.645  12.488
 1048POPC   C4A24508  -5.845  15.578  12.459
 1048POPC   C1B24509  -6.385  15.749  12.741
 1048POPC   C2B24510  -6.199  15.681  12.713
 1048POPC   C3B24511  -6.012  15.614  12.684
 1048POPC   C4B24512  -5.826  15.546  12.656
 1049POPC   NC324513  18.464  -2.677  19.499
 1049POPC   PO424514  18.367  -2.542  19.388
 1049POPC   GL124515  18.270  -2.407  19.277
 1049POPC   GL224516  18.270  -2.470  19.200
 1049POPC   C1A24517  18.173  -2.271  19.166
 1049POPC   D2A24518  18.077  -2.136  19.056
 1049POPC   C3A24519  17.980  -2.000  18.945
 1049POPC   C4A24520  17.883  -1.865  18.834
 1049POPC   C1B24521  17.998  -2.345  19.229
 1049POPC   C2B24522  17.902  -2.210  19.118
 1049POPC   C3B24523  17.805  -2.074  19.007
 1049POPC   C4B24524  17.708  -1.939  18.896
 1050POPC   NC324525  12.623  25.676  18.419
 1050POPC   PO424526  12.590  25.504  18.323
 1050POPC   GL124527  12.557  25.332  18.227
 1050POPC   GL224528  12.656  25.315  18.224
 1050POPC   C1A24529  12.525  25.159  18.131
 1050POPC   D2A24530  12.492  24.987  18.036
 1050POPC   C3A24531  12.460  24.814  17.940
 1050POPC   C4A24532  12.427  24.642  17.844
 1050POPC   C1B24533  12.514  25.064  18.307
 1050POPC   C2B24534  12.481  24.891  18.211
 1050POPC   C3B24535  12.448  24.719  18.115
 1050POPC   C4B24536  12.416  24.547  18.019
 1051POPC   NC324537   9.220  -5.148  19.777
 1051POPC   PO424538   9.228  -4.981  19.668
 1051POPC   GL124539   9.236  -4.814  19.559
 1051POPC   GL224540   9.293  -4.860  19.491
 1051POPC   C1A24541   9.243  -4.646  19.450
 1051POPC   D2A24542   9.251  -4.479  19.341
 1051POPC   C3A24543   9.258  -4.311  19.232
 1051POPC   C4A24544   9.266  -4.144  19.123
 1051POPC   C1B24545   9.079  -4.703  19.351
 1051POPC   C2B24546   9.087  -4.536  19.242
 1051POPC   C3B24547   9.094  -4.368  19.133
 1051POPC   C4B24548   9.102  -4.201  19.024
 1052POPC   NC324549  10.478  26.664  16.893
 1052POPC   PO424550  10.471  26.480  16.816
 1052POPC   GL124551  10.464  26.296  16.739
 1052POPC   GL224552  10.521  26.262  16.814
 1052POPC   C1A24553  10.457  26.111  16.662
 1052POPC   D2A24554  10.449  25.927  16.585
 1052POPC   C3A24555  10.442  25.742  16.508
 1052POPC   C4A24556  10.435  25.558  16.431
 1052POPC   C1B24557  10.292  26.073  16.770
 1052POPC   C2B24558  10.285  25.888  16.693
 1052POPC   C3B24559  10.278  25.704  16.616
 1052POPC   C4B24560  10.271  25.520  16.539
 1053POPC   NC324561  19.964  -4.593  13.228
 1053POPC   PO424562  19.853  -4.431  13.191
 1053POPC   GL124563  19.742  -4.269  13.154
 1053POPC   GL224564  19.823  -4.211  13.162
 1053POPC   C1A24565  19.631  -4.107  13.117
 1053POPC   D2A24566  19.520  -3.944  13.080
 1053POPC   C3A24567  19.409  -3.782  13.043
 1053POPC   C4A24568  19.298  -3.620  13.006
 1053POPC   C1B24569  19.665  -4.128  12.921
 1053POPC   C2B24570  19.554  -3.966  12.884
 1053POPC   C3B24571  19.443  -3.803  12.847
 1053POPC   C4B24572  19.332  -3.641  12.810
 1054POPC   NC324573  -0.220  21.205  -0.016
 1054POPC   PO424574  -0.108  21.077   0.090
 1054POPC   GL124575   0.004  20.949   0.196
 1054POPC   GL224576  -0.064  20.952   0.270
 1054POPC   C1A24577   0.115  20.821   0.302
 1054POPC   D2A24578   0.227  20.694   0.408
 1054POPC   C3A24579   0.338  20.566   0.514
 1054POPC   C4A24580   0.450  20.438   0.620
 1054POPC   C1B24581   0.018  20.668   0.219
 1054POPC   C2B24582   0.129  20.540   0.325
 1054POPC   C3B24583   0.241  20.412   0.431
 1054POPC   C4B24584   0.353  20.284   0.537
 1055POPC   NC324585  13.283  19.617  -4.930
 1055POPC   PO424586  13.246  19.512  -4.764
 1055POPC   GL124587  13.209  19.407  -4.598
 1055POPC   GL224588  13.299  19.429  -4.563
 1055POPC   C1A24589  13.171  19.301  -4.432
 1055POPC   D2A24590  13.134  19.196  -4.267
 1055POPC   C3A24591  13.096  19.090  -4.101
 1055POPC   C4A24592  13.059  18.985  -3.935
 1055POPC   C1B24593  13.096  19.465  -4.345
 1055POPC   C2B24594  13.059  19.359  -4.179
 1055POPC   C3B24595  13.021  19.254  -4.014
 1055POPC   C4B24596  12.984  19.149  -3.848
 1056POPC   NC324597  -3.635   8.367  -1.872
 1056POPC   PO424598  -3.485   8.382  -1.741
 1056POPC   GL124599  -3.335   8.397  -1.610
 1056POPC   GL224600  -3.381   8.474  -1.566
 1056POPC   C1A24601  -3.184   8.412  -1.479
 1056POPC   D2A24602  -3.034   8.428  -1.348
 1056POPC   C3A24603  -2.883   8.443  -1.217
 1056POPC   C4A24604  -2.733   8.458  -1.086
 1056POPC   C1B24605  -3.278   8.285  -1.357
 1056POPC   C2B24606  -3.128   8.300  -1.226
 1056POPC   C3B24607  -2.977   8.315  -1.095
 1056POPC   C4B24608  -2.827   8.330  -0.964
 1057POPC   NC324609  14.918  27.001   6.787
 1057POPC   PO424610  14.861  26.813   6.825
 1057POPC   GL124611  14.804  26.625   6.863
 1057POPC   GL224612  14.877  26.591   6.803
 1057POPC   C1A24613  14.748  26.437   6.900
 1057POPC   D2A24614  14.691  26.249   6.938
 1057POPC   C3A24615  14.635  26.061   6.975
 1057POPC   C4A24616  14.578  25.873   7.013
 1057POPC   C1B24617  14.872  26.431   7.057
 1057POPC   C2B24618  14.816  26.243   7.094
 1057POPC   C3B24619  14.759  26.055   7.132
 1057POPC   C4B24620  14.702  25.867   7.169
 1058POPC   NC324621  10.124  27.820  12.610
 1058POPC   PO424622  10.119  27.622  12.582
 1058POPC   GL124623  10.114  27.424  12.554
 1058POPC   GL224624  10.204  27.428  12.509
 1058POPC   C1A24625  10.110  27.226  12.525
 1058POPC   D2A24626  10.105  27.028  12.497
 1058POPC   C3A24627  10.101  26.830  12.468
 1058POPC   C4A24628  10.096  26.632  12.440
 1058POPC   C1B24629  10.198  27.198  12.702
 1058POPC   C2B24630  10.194  27.000  12.674
 1058POPC   C3B24631  10.189  26.802  12.646
 1058POPC   C4B24632  10.185  26.604  12.617
 1059POPC   NC324633   3.407   0.714  24.089
 1059POPC   PO424634   3.480   0.814  23.932
 1059POPC   GL124635   3.553   0.914  23.775
 1059POPC   GL224636   3.581   0.989  23.836
 1059POPC   C1A24637   3.627   1.015  23.619
 1059POPC   D2A24638   3.700   1.115  23.462
 1059POPC   C3A24639   3.774   1.216  23.306
 1059POPC   C4A24640   3.847   1.316  23.149
 1059POPC   C1B24641   3.804   0.926  23.645
 1059POPC   C2B24642   3.877   1.026  23.489
 1059POPC   C3B24643   3.951   1.127  23.332
 1059POPC   C4B24644   4.024   1.227  23.175
 1060POPC   NC324645  -5.128   1.533   4.502
 1060POPC   PO424646  -4.961   1.628   4.558
 1060POPC   GL124647  -4.794   1.723   4.614
 1060POPC   GL224648  -4.810   1.695   4.708
 1060POPC   C1A24649  -4.627   1.818   4.669
 1060POPC   D2A24650  -4.460   1.913   4.725
 1060POPC   C3A24651  -4.293   2.008   4.780
 1060POPC   C4A24652  -4.126   2.103   4.836
 1060POPC   C1B24653  -4.521   1.651   4.638
 1060POPC   C2B24654  -4.354   1.746   4.694
 1060POPC   C3B24655  -4.187   1.841   4.749
 1060POPC   C4B24656  -4.020   1.936   4.805
 1061POPC   NC324657  18.343  25.435   6.162
 1061POPC   PO424658  18.252  25.261   6.199
 1061POPC   GL124659  18.161  25.087   6.236
 1061POPC   GL224660  18.236  25.038   6.192
 1061POPC   C1A24661  18.069  24.913   6.273
 1061POPC   D2A24662  17.978  24.739   6.309
 1061POPC   C3A24663  17.886  24.565   6.346
 1061POPC   C4A24664  17.795  24.391   6.383
 1061POPC   C1B24665  18.163  24.901   6.449
 1061POPC   C2B24666  18.072  24.727   6.486
 1061POPC   C3B24667  17.980  24.553   6.522
 1061POPC   C4B24668  17.889  24.379   6.559
 1062POPC   NC324669   8.823  27.996  10.135
 1062POPC   PO424670   8.832  27.796  10.133
 1062POPC   GL124671   8.841  27.596  10.131
 1062POPC   GL224672   8.928  27.600  10.082
 1062POPC   C1A24673   8.850  27.396  10.130
 1062POPC   D2A24674   8.858  27.197  10.128
 1062POPC   C3A24675   8.867  26.997  10.127
 1062POPC   C4A24676   8.876  26.797  10.125
 1062POPC   C1B24677   8.948  27.399  10.304
 1062POPC   C2B24678   8.957  27.199  10.302
 1062POPC   C3B24679   8.966  27.000  10.301
 1062POPC   C4B24680   8.975  26.800  10.299
 1063POPC   NC324681   1.549  24.524   3.362
 1063POPC   PO424682   1.646  24.364   3.434
 1063POPC   GL124683   1.743  24.204   3.506
 1063POPC   GL224684   1.830  24.252   3.495
 1063POPC   C1A24685   1.840  24.045   3.578
 1063POPC   D2A24686   1.936  23.885   3.649
 1063POPC   C3A24687   2.033  23.726   3.721
 1063POPC   C4A24688   2.130  23.566   3.793
 1063POPC   C1B24689   1.822  24.118   3.763
 1063POPC   C2B24690   1.919  23.958   3.835
 1063POPC   C3B24691   2.016  23.799   3.907
 1063POPC   C4B24692   2.113  23.639   3.978
 1064POPC   NC324693  10.616   1.141  -5.772
 1064POPC   PO424694  10.607   1.241  -5.599
 1064POPC   GL124695  10.598   1.341  -5.426
 1064POPC   GL224696  10.695   1.362  -5.433
 1064POPC   C1A24697  10.589   1.440  -5.253
 1064POPC   D2A24698  10.580   1.540  -5.079
 1064POPC   C3A24699  10.571   1.639  -4.906
 1064POPC   C4A24700  10.562   1.739  -4.733
 1064POPC   C1B24701  10.544   1.608  -5.352
 1064POPC   C2B24702  10.535   1.708  -5.178
 1064POPC   C3B24703  10.526   1.807  -5.005
 1064POPC   C4B24704  10.517   1.907  -4.832
 1065POPC   NC324705  20.222  11.480  -4.763
 1065POPC   PO424706  20.110  11.464  -4.598
 1065POPC   GL124707  19.998  11.448  -4.433
 1065POPC   GL224708  19.963  11.541  -4.448
 1065POPC   C1A24709  19.886  11.433  -4.268
 1065POPC   D2A24710  19.773  11.417  -4.104
 1065POPC   C3A24711  19.661  11.402  -3.939
 1065POPC   C4A24712  19.549  11.386  -3.774
 1065POPC   C1B24713  19.736  11.358  -4.378
 1065POPC   C2B24714  19.623  11.342  -4.213
 1065POPC   C3B24715  19.511  11.327  -4.048
 1065POPC   C4B24716  19.399  11.311  -3.883
 1066POPC   NC324717   4.697  18.057  -5.377
 1066POPC   PO424718   4.755  17.972  -5.206
 1066POPC   GL124719   4.813  17.887  -5.035
 1066POPC   GL224720   4.827  17.977  -4.994
 1066POPC   C1A24721   4.872  17.802  -4.864
 1066POPC   D2A24722   4.930  17.716  -4.692
 1066POPC   C3A24723   4.989  17.631  -4.521
 1066POPC   C4A24724   5.047  17.546  -4.350
 1066POPC   C1B24725   4.682  17.801  -4.799
 1066POPC   C2B24726   4.741  17.716  -4.628
 1066POPC   C3B24727   4.799  17.631  -4.457
 1066POPC   C4B24728   4.858  17.546  -4.286
 1067POPC   NC324729   6.179  25.109  19.122
 1067POPC   PO424730   6.219  24.941  19.021
 1067POPC   GL124731   6.259  24.773  18.920
 1067POPC   GL224732   6.356  24.798  18.917
 1067POPC   C1A24733   6.299  24.606  18.818
 1067POPC   D2A24734   6.340  24.438  18.717
 1067POPC   C3A24735   6.380  24.271  18.615
 1067POPC   C4A24736   6.420  24.103  18.514
 1067POPC   C1B24737   6.328  24.508  18.991
 1067POPC   C2B24738   6.368  24.341  18.889
 1067POPC   C3B24739   6.408  24.173  18.788
 1067POPC   C4B24740   6.449  24.006  18.686
 1068POPC   NC324741  17.702  22.371  20.497
 1068POPC   PO424742  17.614  22.230  20.386
 1068POPC   GL124743  17.526  22.089  20.275
 1068POPC   GL224744  17.604  22.029  20.289
 1068POPC   C1A24745  17.438  21.948  20.163
 1068POPC   D2A24746  17.349  21.808  20.052
 1068POPC   C3A24747  17.261  21.667  19.940
 1068POPC   C4A24748  17.173  21.526  19.829
 1068POPC   C1B24749  17.349  21.874  20.327
 1068POPC   C2B24750  17.261  21.733  20.215
 1068POPC   C3B24751  17.173  21.593  20.104
 1068POPC   C4B24752  17.085  21.452  19.993
 1069POPC   NC324753  27.695  10.237  12.340
 1069POPC   PO424754  27.496  10.233  12.317
 1069POPC   GL124755  27.297  10.229  12.294
 1069POPC   GL224756  27.303  10.307  12.231
 1069POPC   C1A24757  27.099  10.225  12.271
 1069POPC   D2A24758  26.900  10.222  12.248
 1069POPC   C3A24759  26.702  10.218  12.225
 1069POPC   C4A24760  26.503  10.214  12.202
 1069POPC   C1B24761  27.119  10.099  12.118
 1069POPC   C2B24762  26.920  10.095  12.095
 1069POPC   C3B24763  26.722  10.091  12.072
 1069POPC   C4B24764  26.523  10.087  12.049
 1070POPC   NC324765  27.259  13.183   6.166
 1070POPC   PO424766  27.066  13.149   6.206
 1070POPC   GL124767  26.873  13.115   6.246
 1070POPC   GL224768  26.850  13.135   6.151
 1070POPC   C1A24769  26.680  13.082   6.286
 1070POPC   D2A24770  26.487  13.048   6.327
 1070POPC   C3A24771  26.294  13.015   6.367
 1070POPC   C4A24772  26.101  12.981   6.407
 1070POPC   C1B24773  26.704  12.889   6.240
 1070POPC   C2B24774  26.511  12.855   6.280
 1070POPC   C3B24775  26.318  12.822   6.321
 1070POPC   C4B24776  26.125  12.788   6.361
 1071POPC   NC324777   4.490   4.749  -6.537
 1071POPC   PO424778   4.549   4.805  -6.354
 1071POPC   GL124779   4.608   4.861  -6.171
 1071POPC   GL224780   4.625   4.766  -6.148
 1071POPC   C1A24781   4.667   4.918  -5.989
 1071POPC   D2A24782   4.727   4.974  -5.806
 1071POPC   C3A24783   4.786   5.031  -5.624
 1071POPC   C4A24784   4.845   5.087  -5.441
 1071POPC   C1B24785   4.855   4.935  -6.055
 1071POPC   C2B24786   4.914   4.992  -5.873
 1071POPC   C3B24787   4.974   5.048  -5.690
 1071POPC   C4B24788   5.033   5.104  -5.507
 1072POPC   NC324789  20.797  10.442  -4.419
 1072POPC   PO424790  20.678  10.436  -4.259
 1072POPC   GL124791  20.559  10.430  -4.099
 1072POPC   GL224792  20.553  10.331  -4.106
 1072POPC   C1A24793  20.439  10.424  -3.938
 1072POPC   D2A24794  20.320  10.419  -3.778
 1072POPC   C3A24795  20.200  10.413  -3.617
 1072POPC   C4A24796  20.081  10.407  -3.457
 1072POPC   C1B24797  20.599  10.407  -3.820
 1072POPC   C2B24798  20.480  10.401  -3.659
 1072POPC   C3B24799  20.361  10.395  -3.499
 1072POPC   C4B24800  20.241  10.390  -3.338
 1073POPC   NC324801  15.134  26.329   4.573
 1073POPC   PO424802  15.078  26.147   4.635
 1073POPC   GL124803  15.022  25.965   4.697
 1073POPC   GL224804  15.086  25.924   4.633
 1073POPC   C1A24805  14.965  25.784   4.759
 1073POPC   D2A24806  14.909  25.602   4.822
 1073POPC   C3A24807  14.852  25.421   4.884
 1073POPC   C4A24808  14.796  25.239   4.946
 1073POPC   C1B24809  15.107  25.788   4.900
 1073POPC   C2B24810  15.051  25.606   4.962
 1073POPC   C3B24811  14.994  25.425   5.025
 1073POPC   C4B24812  14.938  25.243   5.087
 1074POPC   NC324813  19.202   2.634  -3.646
 1074POPC   PO424814  19.095   2.713  -3.496
 1074POPC   GL124815  18.988   2.792  -3.346
 1074POPC   GL224816  19.050   2.870  -3.343
 1074POPC   C1A24817  18.881   2.870  -3.196
 1074POPC   D2A24818  18.775   2.949  -3.047
 1074POPC   C3A24819  18.668   3.027  -2.897
 1074POPC   C4A24820  18.561   3.106  -2.747
 1074POPC   C1B24821  18.766   2.966  -3.329
 1074POPC   C2B24822  18.659   3.045  -3.179
 1074POPC   C3B24823  18.553   3.123  -3.029
 1074POPC   C4B24824  18.446   3.202  -2.879
 1075POPC   NC324825  -7.321  10.636   4.616
 1075POPC   PO424826  -7.129  10.629   4.673
 1075POPC   GL124827  -6.937  10.622   4.730
 1075POPC   GL224828  -6.966  10.592   4.821
 1075POPC   C1A24829  -6.746  10.615   4.787
 1075POPC   D2A24830  -6.554  10.607   4.844
 1075POPC   C3A24831  -6.363  10.600   4.901
 1075POPC   C4A24832  -6.171  10.593   4.958
 1075POPC   C1B24833  -6.736  10.424   4.728
 1075POPC   C2B24834  -6.544  10.417   4.785
 1075POPC   C3B24835  -6.352  10.409   4.842
 1075POPC   C4B24836  -6.161  10.402   4.899
 1076POPC   NC324837   4.266  -3.612  20.421
 1076POPC   PO424838   4.328  -3.462  20.304
 1076POPC   GL124839   4.390  -3.312  20.187
 1076POPC   GL224840   4.477  -3.358  20.175
 1076POPC   C1A24841   4.451  -3.162  20.071
 1076POPC   D2A24842   4.513  -3.011  19.954
 1076POPC   C3A24843   4.574  -2.861  19.838
 1076POPC   C4A24844   4.636  -2.711  19.721
 1076POPC   C1B24845   4.379  -3.256  19.910
 1076POPC   C2B24846   4.440  -3.106  19.794
 1076POPC   C3B24847   4.502  -2.956  19.677
 1076POPC   C4B24848   4.563  -2.806  19.561
 1077POPC   NC324849  24.620  13.870   0.314
 1077POPC   PO424850  24.456  13.829   0.421
 1077POPC   GL124851  24.292  13.788   0.528
 1077POPC   GL224852  24.238  13.845   0.467
 1077POPC   C1A24853  24.129  13.747   0.636
 1077POPC   D2A24854  23.965  13.705   0.743
 1077POPC   C3A24855  23.802  13.664   0.851
 1077POPC   C4A24856  23.638  13.623   0.958
 1077POPC   C1B24857  24.093  13.588   0.520
 1077POPC   C2B24858  23.929  13.547   0.627
 1077POPC   C3B24859  23.765  13.505   0.735
 1077POPC   C4B24860  23.602  13.464   0.842
 1078POPC   NC324861  -0.671  14.234  -4.063
 1078POPC   PO424862  -0.555  14.190  -3.906
 1078POPC   GL124863  -0.439  14.146  -3.749
 1078POPC   GL224864  -0.517  14.157  -3.688
 1078POPC   C1A24865  -0.323  14.103  -3.592
 1078POPC   D2A24866  -0.207  14.059  -3.435
 1078POPC   C3A24867  -0.091  14.016  -3.278
 1078POPC   C4A24868   0.025  13.972  -3.121
 1078POPC   C1B24869  -0.366  13.909  -3.614
 1078POPC   C2B24870  -0.250  13.865  -3.457
 1078POPC   C3B24871  -0.134  13.822  -3.300
 1078POPC   C4B24872  -0.018  13.778  -3.143
 1079POPC   NC324873  25.456  13.612   1.604
 1079POPC   PO424874  25.284  13.573   1.698
 1079POPC   GL124875  25.112  13.534   1.792
 1079POPC   GL224876  25.065  13.526   1.704
 1079POPC   C1A24877  24.940  13.495   1.887
 1079POPC   D2A24878  24.768  13.456   1.981
 1079POPC   C3A24879  24.596  13.417   2.076
 1079POPC   C4A24880  24.424  13.378   2.170
 1079POPC   C1B24881  24.982  13.300   1.883
 1079POPC   C2B24882  24.810  13.261   1.977
 1079POPC   C3B24883  24.638  13.222   2.071
 1079POPC   C4B24884  24.466  13.183   2.166
 1080POPC   NC324885  20.019  -2.870   2.308
 1080POPC   PO424886  19.908  -2.727   2.393
 1080POPC   GL124887  19.797  -2.584   2.478
 1080POPC   GL224888  19.748  -2.570   2.392
 1080POPC   C1A24889  19.686  -2.440   2.563
 1080POPC   D2A24890  19.576  -2.297   2.647
 1080POPC   C3A24891  19.465  -2.153   2.732
 1080POPC   C4A24892  19.354  -2.010   2.817
 1080POPC   C1B24893  19.552  -2.577   2.618
 1080POPC   C2B24894  19.441  -2.434   2.703
 1080POPC   C3B24895  19.330  -2.290   2.788
 1080POPC   C4B24896  19.219  -2.147   2.873
 1081POPC   NC324897  13.782  13.294  -7.372
 1081POPC   PO424898  13.739  13.255  -7.181
 1081POPC   GL124899  13.696  13.216  -6.990
 1081POPC   GL224900  13.618  13.161  -7.018
 1081POPC   C1A24901  13.653  13.177  -6.798
 1081POPC   D2A24902  13.610  13.139  -6.607
 1081POPC   C3A24903  13.567  13.100  -6.415
 1081POPC   C4A24904  13.524  13.061  -6.224
 1081POPC   C1B24905  13.770  13.015  -6.805
 1081POPC   C2B24906  13.727  12.976  -6.613
 1081POPC   C3B24907  13.684  12.938  -6.422
 1081POPC   C4B24908  13.641  12.899  -6.231
 1082POPC   NC324909  -1.941  16.111  22.090
 1082POPC   PO424910  -1.814  16.042  21.951
 1082POPC   GL124911  -1.687  15.973  21.812
 1082POPC   GL224912  -1.611  15.988  21.875
 1082POPC   C1A24913  -1.561  15.905  21.673
 1082POPC   D2A24914  -1.434  15.836  21.535
 1082POPC   C3A24915  -1.308  15.768  21.396
 1082POPC   C4A24916  -1.181  15.699  21.257
 1082POPC   C1B24917  -1.583  15.719  21.745
 1082POPC   C2B24918  -1.456  15.651  21.606
 1082POPC   C3B24919  -1.330  15.582  21.467
 1082POPC   C4B24920  -1.203  15.514  21.329
 1083POPC   NC324921  22.234   9.623  23.067
 1083POPC   PO424922  22.097   9.624  22.921
 1083POPC   GL124923  21.960   9.625  22.775
 1083POPC   GL224924  22.028   9.663  22.712
 1083POPC   C1A24925  21.824   9.626  22.629
 1083POPC   D2A24926  21.687   9.627  22.483
 1083POPC   C3A24927  21.551   9.628  22.337
 1083POPC   C4A24928  21.414   9.629  22.191
 1083POPC   C1B24929  21.879   9.441  22.576
 1083POPC   C2B24930  21.743   9.442  22.430
 1083POPC   C3B24931  21.606   9.443  22.284
 1083POPC   C4B24932  21.469   9.444  22.138
 1084POPC   NC324933  13.374  11.579  -7.728
 1084POPC   PO424934  13.333  11.558  -7.533
 1084POPC   GL124935  13.292  11.537  -7.338
 1084POPC   GL224936  13.237  11.456  -7.359
 1084POPC   C1A24937  13.252  11.515  -7.144
 1084POPC   D2A24938  13.211  11.494  -6.949
 1084POPC   C3A24939  13.171  11.472  -6.755
 1084POPC   C4A24940  13.130  11.451  -6.560
 1084POPC   C1B24941  13.413  11.398  -7.123
 1084POPC   C2B24942  13.372  11.377  -6.928
 1084POPC   C3B24943  13.332  11.355  -6.734
 1084POPC   C4B24944  13.291  11.334  -6.539
 1085POPC   NC324945  11.003  20.887  24.293
 1085POPC   PO424946  10.989  20.766  24.134
 1085POPC   GL124947  10.975  20.645  23.975
 1085POPC   GL224948  11.005  20.720  23.916
 1085POPC   C1A24949  10.961  20.525  23.816
 1085POPC   D2A24950  10.947  20.404  23.658
 1085POPC   C3A24951  10.933  20.284  23.499
 1085POPC   C4A24952  10.919  20.163  23.340
 1085POPC   C1B24953  11.151  20.469  23.842
 1085POPC   C2B24954  11.137  20.348  23.683
 1085POPC   C3B24955  11.123  20.228  23.524
 1085POPC   C4B24956  11.109  20.107  23.366
 1086POPC   NC324957  23.544   1.980   1.288
 1086POPC   PO424958  23.396   2.069   1.388
 1086POPC   GL124959  23.248   2.158   1.488
 1086POPC   GL224960  23.295   2.246   1.481
 1086POPC   C1A24961  23.100   2.247   1.589
 1086POPC   D2A24962  22.951   2.336   1.689
 1086POPC   C3A24963  22.803   2.425   1.790
 1086POPC   C4A24964  22.655   2.514   1.890
 1086POPC   C1B24965  23.005   2.284   1.416
 1086POPC   C2B24966  22.857   2.373   1.517
 1086POPC   C3B24967  22.709   2.462   1.617
 1086POPC   C4B24968  22.560   2.551   1.718
 1087POPC   NC324969  18.805   4.424  -4.702
 1087POPC   PO424970  18.706   4.485  -4.539
 1087POPC   GL124971  18.607   4.546  -4.376
 1087POPC   GL224972  18.680   4.612  -4.357
 1087POPC   C1A24973  18.508   4.607  -4.213
 1087POPC   D2A24974  18.410   4.668  -4.051
 1087POPC   C3A24975  18.311   4.729  -3.888
 1087POPC   C4A24976  18.212   4.790  -3.725
 1087POPC   C1B24977  18.413   4.745  -4.323
 1087POPC   C2B24978  18.315   4.806  -4.160
 1087POPC   C3B24979  18.216   4.867  -3.997
 1087POPC   C4B24980  18.117   4.928  -3.834
 1088POPC   NC324981  24.195  -0.184   5.847
 1088POPC   PO424982  24.035  -0.071   5.890
 1088POPC   GL124983  23.875   0.042   5.933
 1088POPC   GL224984  23.907   0.111   5.869
 1088POPC   C1A24985  23.716   0.154   5.976
 1088POPC   D2A24986  23.556   0.267   6.020
 1088POPC   C3A24987  23.397   0.379   6.063
 1088POPC   C4A24988  23.237   0.492   6.106
 1088POPC   C1B24989  23.614   0.066   5.829
 1088POPC   C2B24990  23.454   0.179   5.872
 1088POPC   C3B24991  23.295   0.291   5.915
 1088POPC   C4B24992  23.135   0.404   5.958
 1089POPC   NC324993  26.732   3.616   8.883
 1089POPC   PO424994  26.546   3.687   8.895
 1089POPC   GL124995  26.360   3.758   8.907
 1089POPC   GL224996  26.368   3.797   8.815
 1089POPC   C1A24997  26.173   3.829   8.919
 1089POPC   D2A24998  25.987   3.901   8.932
 1089POPC   C3A24999  25.800   3.972   8.944
 1089POPC   C4A25000  25.614   4.043   8.956
 1089POPC   C1B25001  26.103   3.659   8.842
 1089POPC   C2B25002  25.917   3.730   8.854
 1089POPC   C3B25003  25.730   3.801   8.866
 1089POPC   C4B25004  25.544   3.873   8.878
 1090POPC   NC325005  17.610  -4.362   2.237
 1090POPC   PO425006  17.523  -4.201   2.319
 1090POPC   GL125007  17.436  -4.040   2.401
 1090POPC   GL225008  17.506  -4.039   2.472
 1090POPC   C1A25009  17.349  -3.880   2.483
 1090POPC   D2A25010  17.263  -3.719   2.564
 1090POPC   C3A25011  17.176  -3.559   2.646
 1090POPC   C4A25012  17.089  -3.398   2.728
 1090POPC   C1B25013  17.462  -3.761   2.368
 1090POPC   C2B25014  17.375  -3.600   2.450
 1090POPC   C3B25015  17.289  -3.439   2.532
 1090POPC   C4B25016  17.202  -3.279   2.614
 1091POPC   NC325017  26.693   8.761   3.516
 1091POPC   PO425018  26.506   8.773   3.585
 1091POPC   GL125019  26.319   8.785   3.654
 1091POPC   GL225020  26.320   8.884   3.642
 1091POPC   C1A25021  26.132   8.797   3.724
 1091POPC   D2A25022  25.944   8.809   3.793
 1091POPC   C3A25023  25.757   8.821   3.863
 1091POPC   C4A25024  25.570   8.833   3.932
 1091POPC   C1B25025  26.061   8.775   3.538
 1091POPC   C2B25026  25.874   8.787   3.607
 1091POPC   C3B25027  25.687   8.799   3.677
 1091POPC   C4B25028  25.500   8.811   3.746
 1092POPC   NC325029   0.099  25.135  11.110
 1092POPC   PO425030   0.206  24.966  11.105
 1092POPC   GL125031   0.313  24.797  11.100
 1092POPC   GL225032   0.397  24.850  11.106
 1092POPC   C1A25033   0.420  24.628  11.095
 1092POPC   D2A25034   0.526  24.459  11.090
 1092POPC   C3A25035   0.633  24.290  11.085
 1092POPC   C4A25036   0.740  24.121  11.080
 1092POPC   C1B25037   0.412  24.617  11.295
 1092POPC   C2B25038   0.519  24.448  11.290
 1092POPC   C3B25039   0.626  24.279  11.285
 1092POPC   C4B25040   0.733  24.110  11.280
 1093POPC   NC325041  26.742  11.668   3.755
 1093POPC   PO425042  26.555  11.653   3.823
 1093POPC   GL125043  26.368  11.638   3.891
 1093POPC   GL225044  26.362  11.545   3.854
 1093POPC   C1A25045  26.180  11.623   3.960
 1093POPC   D2A25046  25.993  11.608   4.028
 1093POPC   C3A25047  25.805  11.593   4.097
 1093POPC   C4A25048  25.618  11.578   4.165
 1093POPC   C1B25049  26.249  11.550   4.133
 1093POPC   C2B25050  26.062  11.535   4.201
 1093POPC   C3B25051  25.874  11.520   4.269
 1093POPC   C4B25052  25.687  11.505   4.338
 1094POPC   NC325053  -1.058   3.692  22.726
 1094POPC   PO425054  -0.938   3.763  22.582
 1094POPC   GL125055  -0.818   3.834  22.438
 1094POPC   GL225056  -0.780   3.742  22.426
 1094POPC   C1A25057  -0.698   3.904  22.295
 1094POPC   D2A25058  -0.578   3.975  22.151
 1094POPC   C3A25059  -0.458   4.045  22.008
 1094POPC   C4A25060  -0.338   4.116  21.864
 1094POPC   C1B25061  -0.838   3.865  22.158
 1094POPC   C2B25062  -0.718   3.935  22.014
 1094POPC   C3B25063  -0.598   4.006  21.871
 1094POPC   C4B25064  -0.478   4.076  21.727
 1095POPC   NC325065  -6.091  18.370  11.329
 1095POPC   PO425066  -5.914  18.278  11.312
 1095POPC   GL125067  -5.737  18.186  11.295
 1095POPC   GL225068  -5.747  18.150  11.388
 1095POPC   C1A25069  -5.560  18.094  11.277
 1095POPC   D2A25070  -5.384  18.002  11.260
 1095POPC   C3A25071  -5.207  17.910  11.242
 1095POPC   C4A25072  -5.030  17.818  11.225
 1095POPC   C1B25073  -5.652  17.931  11.206
 1095POPC   C2B25074  -5.475  17.839  11.188
 1095POPC   C3B25075  -5.298  17.747  11.171
 1095POPC   C4B25076  -5.122  17.655  11.153
 1096POPC   NC325077  19.344  22.570  18.620
 1096POPC   PO425078  19.237  22.428  18.528
 1096POPC   GL125079  19.130  22.286  18.436
 1096POPC   GL225080  19.158  22.220  18.506
 1096POPC   C1A25081  19.023  22.144  18.345
 1096POPC   D2A25082  18.915  22.003  18.253
 1096POPC   C3A25083  18.808  21.861  18.162
 1096POPC   C4A25084  18.701  21.719  18.070
 1096POPC   C1B25085  18.863  22.193  18.456
 1096POPC   C2B25086  18.756  22.051  18.364
 1096POPC   C3B25087  18.649  21.910  18.273
 1096POPC   C4B25088  18.542  21.768  18.181
 1097POPC   NC325089   0.205  24.828   6.938
 1097POPC   PO425090   0.314  24.663   6.970
 1097POPC   GL125091   0.423  24.498   7.002
 1097POPC   GL225092   0.504  24.554   7.016
 1097POPC   C1A25093   0.531  24.333   7.034
 1097POPC   D2A25094   0.640  24.168   7.065
 1097POPC   C3A25095   0.748  24.003   7.097
 1097POPC   C4A25096   0.857  23.838   7.129
 1097POPC   C1B25097   0.490  24.344   7.229
 1097POPC   C2B25098   0.599  24.179   7.261
 1097POPC   C3B25099   0.708  24.014   7.293
 1097POPC   C4B25100   0.816  23.849   7.324
 1098POPC   NC325101  24.442  12.741  -0.290
 1098POPC   PO425102  24.281  12.714  -0.175
 1098POPC   GL125103  24.120  12.687  -0.060
 1098POPC   GL225104  24.068  12.749  -0.118
 1098POPC   C1A25105  23.959  12.660   0.056
 1098POPC   D2A25106  23.798  12.633   0.171
 1098POPC   C3A25107  23.637  12.606   0.287
 1098POPC   C4A25108  23.476  12.579   0.402
 1098POPC   C1B25109  23.903  12.506  -0.058
 1098POPC   C2B25110  23.742  12.479   0.057
 1098POPC   C3B25111  23.581  12.452   0.172
 1098POPC   C4B25112  23.420  12.425   0.288
 1099POPC   NC325113  -4.701   5.877   0.038
 1099POPC   PO425114  -4.539   5.915   0.149
 1099POPC   GL125115  -4.377   5.953   0.260
 1099POPC   GL225116  -4.387   5.864   0.305
 1099POPC   C1A25117  -4.215   5.991   0.371
 1099POPC   D2A25118  -4.054   6.028   0.483
 1099POPC   C3A25119  -3.892   6.066   0.594
 1099POPC   C4A25120  -3.730   6.104   0.705
 1099POPC   C1B25121  -4.100   5.907   0.231
 1099POPC   C2B25122  -3.938   5.945   0.343
 1099POPC   C3B25123  -3.776   5.982   0.454
 1099POPC   C4B25124  -3.614   6.020   0.565
 1100POPC   NC325125  11.138  -8.000  10.447
 1100POPC   PO425126  11.128  -7.800  10.440
 1100POPC   GL125127  11.118  -7.600  10.433
 1100POPC   GL225128  11.213  -7.597  10.401
 1100POPC   C1A25129  11.107  -7.401  10.426
 1100POPC   D2A25130  11.097  -7.201  10.418
 1100POPC   C3A25131  11.086  -7.002  10.411
 1100POPC   C4A25132  11.076  -6.802  10.404
 1100POPC   C1B25133  11.045  -7.411  10.236
 1100POPC   C2B25134  11.034  -7.211  10.229
 1100POPC   C3B25135  11.024  -7.012  10.221
 1100POPC   C4B25136  11.014  -6.812  10.214
 1101POPC   NC325137  14.574   4.436  -6.592
 1101POPC   PO425138  14.519   4.497  -6.410
 1101POPC   GL125139  14.464   4.558  -6.228
 1101POPC   GL225140  14.430   4.643  -6.266
 1101POPC   C1A25141  14.408   4.618  -6.045
 1101POPC   D2A25142  14.353   4.679  -5.863
 1101POPC   C3A25143  14.297   4.739  -5.680
 1101POPC   C4A25144  14.242   4.800  -5.498
 1101POPC   C1B25145  14.228   4.536  -6.072
 1101POPC   C2B25146  14.173   4.596  -5.890
 1101POPC   C3B25147  14.117   4.657  -5.708
 1101POPC   C4B25148  14.062   4.717  -5.525
 1102POPC   NC325149  -6.619   3.936   5.810
 1102POPC   PO425150  -6.437   4.011   5.848
 1102POPC   GL125151  -6.255   4.086   5.886
 1102POPC   GL225152  -6.215   3.996   5.867
 1102POPC   C1A25153  -6.074   4.160   5.925
 1102POPC   D2A25154  -5.892   4.235   5.963
 1102POPC   C3A25155  -5.711   4.309   6.002
 1102POPC   C4A25156  -5.529   4.384   6.040
 1102POPC   C1B25157  -6.054   4.210   5.732
 1102POPC   C2B25158  -5.872   4.285   5.771
 1102POPC   C3B25159  -5.690   4.359   5.809
 1102POPC   C4B25160  -5.509   4.434   5.847
 1103POPC   NC325161   2.354   7.922  26.290
 1103POPC   PO425162   2.435   7.946  26.109
 1103POPC   GL125163   2.516   7.970  25.928
 1103POPC   GL225164   2.600   7.925  25.959
 1103POPC   C1A25165   2.597   7.993  25.746
 1103POPC   D2A25166   2.678   8.017  25.565
 1103POPC   C3A25167   2.759   8.040  25.383
 1103POPC   C4A25168   2.840   8.064  25.202
 1103POPC   C1B25169   2.524   7.816  25.690
 1103POPC   C2B25170   2.605   7.839  25.509
 1103POPC   C3B25171   2.686   7.863  25.327
 1103POPC   C4B25172   2.767   7.887  25.146
 1104POPC   NC325173  21.398  23.534  12.905
 1104POPC   PO425174  21.268  23.387  12.866
 1104POPC   GL125175  21.138  23.240  12.827
 1104POPC   GL225176  21.208  23.192  12.774
 1104POPC   C1A25177  21.007  23.094  12.788
 1104POPC   D2A25178  20.877  22.947  12.749
 1104POPC   C3A25179  20.746  22.801  12.710
 1104POPC   C4A25180  20.616  22.654  12.671
 1104POPC   C1B25181  21.066  22.998  12.953
 1104POPC   C2B25182  20.936  22.851  12.914
 1104POPC   C3B25183  20.805  22.704  12.875
 1104POPC   C4B25184  20.675  22.558  12.836
 1105POPC   NC325185   5.086  13.606  26.886
 1105POPC   PO425186   5.135  13.575  26.695
 1105POPC   GL125187   5.184  13.544  26.504
 1105POPC   GL225188   5.244  13.468  26.531
 1105POPC   C1A25189   5.234  13.513  26.313
 1105POPC   D2A25190   5.283  13.481  26.121
 1105POPC   C3A25191   5.333  13.450  25.930
 1105POPC   C4A25192   5.382  13.419  25.739
 1105POPC   C1B25193   5.081  13.385  26.294
 1105POPC   C2B25194   5.130  13.354  26.103
 1105POPC   C3B25195   5.179  13.323  25.911
 1105POPC   C4B25196   5.229  13.292  25.720
 1106POPC   NC325197  14.026  18.903  25.041
 1106POPC   PO425198  13.981  18.808  24.871
 1106POPC   GL125199  13.936  18.713  24.701
 1106POPC   GL225200  14.033  18.694  24.686
 1106POPC   C1A25201  13.892  18.618  24.531
 1106POPC   D2A25202  13.847  18.523  24.360
 1106POPC   C3A25203  13.803  18.428  24.190
 1106POPC   C4A25204  13.758  18.333  24.020
 1106POPC   C1B25205  13.873  18.446  24.631
 1106POPC   C2B25206  13.828  18.351  24.461
 1106POPC   C3B25207  13.784  18.256  24.291
 1106POPC   C4B25208  13.739  18.161  24.121
 1107POPC   NC325209  12.249  26.690   3.644
 1107POPC   PO425210  12.216  26.505   3.713
 1107POPC   GL125211  12.183  26.320   3.782
 1107POPC   GL225212  12.266  26.288   3.736
 1107POPC   C1A25213  12.151  26.135   3.852
 1107POPC   D2A25214  12.118  25.951   3.921
 1107POPC   C3A25215  12.086  25.766   3.991
 1107POPC   C4A25216  12.053  25.581   4.060
 1107POPC   C1B25217  12.258  26.178   4.015
 1107POPC   C2B25218  12.226  25.993   4.084
 1107POPC   C3B25219  12.193  25.808   4.154
 1107POPC   C4B25220  12.160  25.623   4.223
 1108POPC   NC325221  10.236  -7.837   6.944
 1108POPC   PO425222  10.238  -7.639   6.973
 1108POPC   GL125223  10.240  -7.441   7.002
 1108POPC   GL225224  10.337  -7.439   6.977
 1108POPC   C1A25225  10.242  -7.243   7.031
 1108POPC   D2A25226  10.245  -7.046   7.060
 1108POPC   C3A25227  10.247  -6.848   7.089
 1108POPC   C4A25228  10.249  -6.650   7.118
 1108POPC   C1B25229  10.192  -7.215   6.840
 1108POPC   C2B25230  10.194  -7.017   6.869
 1108POPC   C3B25231  10.197  -6.819   6.898
 1108POPC   C4B25232  10.199  -6.621   6.927
 1109POPC   NC325233  -7.798  10.920  13.602
 1109POPC   PO425234  -7.603  10.912  13.559
 1109POPC   GL125235  -7.408  10.904  13.516
 1109POPC   GL225236  -7.392  10.848  13.598
 1109POPC   C1A25237  -7.213  10.896  13.473
 1109POPC   D2A25238  -7.017  10.889  13.431
 1109POPC   C3A25239  -6.822  10.881  13.388
 1109POPC   C4A25240  -6.627  10.873  13.345
 1109POPC   C1B25241  -7.243  10.731  13.366
 1109POPC   C2B25242  -7.048  10.723  13.323
 1109POPC   C3B25243  -6.852  10.715  13.280
 1109POPC   C4B25244  -6.657  10.707  13.237
 1110POPC   NC325245  23.744  -0.815   5.897
 1110POPC   PO425246  23.589  -0.696   5.940
 1110POPC   GL125247  23.434  -0.577   5.983
 1110POPC   GL225248  23.439  -0.538   5.891
 1110POPC   C1A25249  23.279  -0.458   6.027
 1110POPC   D2A25250  23.125  -0.340   6.070
 1110POPC   C3A25251  22.970  -0.221   6.114
 1110POPC   C4A25252  22.815  -0.102   6.157
 1110POPC   C1B25253  23.153  -0.599   5.961
 1110POPC   C2B25254  22.998  -0.480   6.004
 1110POPC   C3B25255  22.844  -0.361   6.048
 1110POPC   C4B25256  22.689  -0.242   6.091
 1111POPC   NC325257  13.224   6.431  -7.475
 1111POPC   PO425258  13.187   6.473  -7.283
 1111POPC   GL125259  13.150   6.515  -7.091
 1111POPC   GL225260  13.108   6.602  -7.118
 1111POPC   C1A25261  13.113   6.557  -6.899
 1111POPC   D2A25262  13.076   6.598  -6.707
 1111POPC   C3A25263  13.039   6.640  -6.515
 1111POPC   C4A25264  13.002   6.682  -6.323
 1111POPC   C1B25265  12.935   6.466  -6.914
 1111POPC   C2B25266  12.898   6.508  -6.722
 1111POPC   C3B25267  12.861   6.550  -6.530
 1111POPC   C4B25268  12.824   6.592  -6.338
 1112POPC   NC325269  25.650  15.224   2.858
 1112POPC   PO425270  25.476  15.166   2.938
 1112POPC   GL125271  25.302  15.108   3.018
 1112POPC   GL225272  25.256  15.183   2.971
 1112POPC   C1A25273  25.128  15.050   3.098
 1112POPC   D2A25274  24.954  14.992   3.177
 1112POPC   C3A25275  24.780  14.934   3.257
 1112POPC   C4A25276  24.606  14.876   3.337
 1112POPC   C1B25277  25.095  14.932   2.940
 1112POPC   C2B25278  24.921  14.874   3.019
 1112POPC   C3B25279  24.747  14.816   3.099
 1112POPC   C4B25280  24.573  14.758   3.179
 1113POPC   NC325281  16.328   5.085  -6.144
 1113POPC   PO425282  16.254   5.135  -5.965
 1113POPC   GL125283  16.180   5.185  -5.786
 1113POPC   GL225284  16.108   5.238  -5.831
 1113POPC   C1A25285  16.106   5.235  -5.607
 1113POPC   D2A25286  16.033   5.286  -5.428
 1113POPC   C3A25287  15.959   5.336  -5.249
 1113POPC   C4A25288  15.885   5.386  -5.070
 1113POPC   C1B25289  15.989   5.073  -5.610
 1113POPC   C2B25290  15.916   5.123  -5.431
 1113POPC   C3B25291  15.842   5.174  -5.252
 1113POPC   C4B25292  15.768   5.224  -5.073
 1114POPC   NC325293  12.357  25.464   1.009
 1114POPC   PO425294  12.327  25.292   1.106
 1114POPC   GL125295  12.297  25.120   1.203
 1114POPC   GL225296  12.386  25.087   1.172
 1114POPC   C1A25297  12.266  24.947   1.299
 1114POPC   D2A25298  12.236  24.775   1.396
 1114POPC   C3A25299  12.205  24.602   1.492
 1114POPC   C4A25300  12.175  24.430   1.589
 1114POPC   C1B25301  12.351  25.024   1.463
 1114POPC   C2B25302  12.321  24.852   1.560
 1114POPC   C3B25303  12.291  24.679   1.656
 1114POPC   C4B25304  12.260  24.507   1.753
 1115POPC   NC325305  10.948  10.435  -8.114
 1115POPC   PO425306  10.941  10.431  -7.914
 1115POPC   GL125307  10.934  10.427  -7.714
 1115POPC   GL225308  11.008  10.360  -7.713
 1115POPC   C1A25309  10.926  10.423  -7.514
 1115POPC   D2A25310  10.919  10.419  -7.315
 1115POPC   C3A25311  10.911  10.415  -7.115
 1115POPC   C4A25312  10.904  10.411  -6.915
 1115POPC   C1B25313  11.060  10.571  -7.506
 1115POPC   C2B25314  11.053  10.567  -7.307
 1115POPC   C3B25315  11.045  10.563  -7.107
 1115POPC   C4B25316  11.038  10.559  -6.907
 1116POPC   NC325317  24.870  18.873  14.575
 1116POPC   PO425318  24.704  18.773  14.525
 1116POPC   GL125319  24.538  18.673  14.475
 1116POPC   GL225320  24.516  18.744  14.408
 1116POPC   C1A25321  24.373  18.573  14.424
 1116POPC   D2A25322  24.207  18.472  14.374
 1116POPC   C3A25323  24.042  18.372  14.323
 1116POPC   C4A25324  23.876  18.272  14.273
 1116POPC   C1B25325  24.475  18.474  14.284
 1116POPC   C2B25326  24.310  18.373  14.234
 1116POPC   C3B25327  24.144  18.273  14.183
 1116POPC   C4B25328  23.979  18.173  14.133
 1117POPC   NC325329  14.260   1.418  -5.360
 1117POPC   PO425330  14.217   1.515  -5.190
 1117POPC   GL125331  14.174   1.612  -5.020
 1117POPC   GL225332  14.269   1.602  -4.991
 1117POPC   C1A25333  14.131   1.709  -4.851
 1117POPC   D2A25334  14.087   1.805  -4.681
 1117POPC   C3A25335  14.044   1.902  -4.512
 1117POPC   C4A25336  14.001   1.999  -4.342
 1117POPC   C1B25337  14.176   1.883  -4.938
 1117POPC   C2B25338  14.133   1.979  -4.769
 1117POPC   C3B25339  14.090   2.076  -4.599
 1117POPC   C4B25340  14.047   2.173  -4.430
 1118POPC   NC325341   5.274  18.479  -5.349
 1118POPC   PO425342   5.326  18.390  -5.178
 1118POPC   GL125343   5.378  18.301  -5.007
 1118POPC   GL225344   5.298  18.340  -4.962
 1118POPC   C1A25345   5.430  18.212  -4.836
 1118POPC   D2A25346   5.483  18.122  -4.664
 1118POPC   C3A25347   5.535  18.033  -4.493
 1118POPC   C4A25348   5.587  17.944  -4.322
 1118POPC   C1B25349   5.324  18.050  -4.887
 1118POPC   C2B25350   5.376  17.961  -4.716
 1118POPC   C3B25351   5.428  17.872  -4.545
 1118POPC   C4B25352   5.480  17.783  -4.374
 1119POPC   NC325353  -3.799  20.905  14.367
 1119POPC   PO425354  -3.646  20.785  14.319
 1119POPC   GL125355  -3.493  20.665  14.271
 1119POPC   GL225356  -3.449  20.741  14.223
 1119POPC   C1A25357  -3.341  20.545  14.223
 1119POPC   D2A25358  -3.188  20.425  14.175
 1119POPC   C3A25359  -3.036  20.305  14.127
 1119POPC   C4A25360  -2.883  20.185  14.079
 1119POPC   C1B25361  -3.247  20.597  14.392
 1119POPC   C2B25362  -3.094  20.477  14.344
 1119POPC   C3B25363  -2.942  20.357  14.296
 1119POPC   C4B25364  -2.789  20.237  14.248
 1120POPC   NC325365  -2.507   1.269   0.028
 1120POPC   PO425366  -2.376   1.366   0.143
 1120POPC   GL125367  -2.245   1.463   0.258
 1120POPC   GL225368  -2.197   1.377   0.276
 1120POPC   C1A25369  -2.113   1.560   0.374
 1120POPC   D2A25370  -1.982   1.657   0.489
 1120POPC   C3A25371  -1.850   1.754   0.605
 1120POPC   C4A25372  -1.719   1.851   0.720
 1120POPC   C1B25373  -1.997   1.592   0.214
 1120POPC   C2B25374  -1.865   1.689   0.330
 1120POPC   C3B25375  -1.734   1.786   0.445
 1120POPC   C4B25376  -1.603   1.883   0.561
 1121POPC   NC325377   6.817  26.817  15.734
 1121POPC   PO425378   6.853  26.631  15.669
 1121POPC   GL125379   6.889  26.445  15.604
 1121POPC   GL225380   6.941  26.426  15.687
 1121POPC   C1A25381   6.925  26.260  15.539
 1121POPC   D2A25382   6.961  26.074  15.474
 1121POPC   C3A25383   6.997  25.889  15.409
 1121POPC   C4A25384   7.033  25.703  15.344
 1121POPC   C1B25385   6.758  26.196  15.629
 1121POPC   C2B25386   6.794  26.010  15.564
 1121POPC   C3B25387   6.830  25.825  15.499
 1121POPC   C4B25388   6.866  25.639  15.434
 1122POPC   NC325389  21.728  23.329   7.048
 1122POPC   PO425390  21.597  23.182   7.079
 1122POPC   GL125391  21.466  23.035   7.110
 1122POPC   GL225392  21.414  23.064   7.030
 1122POPC   C1A25393  21.334  22.887   7.141
 1122POPC   D2A25394  21.203  22.740   7.172
 1122POPC   C3A25395  21.071  22.592   7.203
 1122POPC   C4A25396  20.940  22.445   7.234
 1122POPC   C1B25397  21.443  22.766   7.026
 1122POPC   C2B25398  21.312  22.618   7.057
 1122POPC   C3B25399  21.181  22.471   7.088
 1122POPC   C4B25400  21.049  22.323   7.119
 1123POPC   NC325401   1.126  -2.482   0.290
 1123POPC   PO425402   1.221  -2.348   0.404
 1123POPC   GL125403   1.316  -2.214   0.518
 1123POPC   GL225404   1.400  -2.269   0.512
 1123POPC   C1A25405   1.412  -2.080   0.631
 1123POPC   D2A25406   1.507  -1.946   0.745
 1123POPC   C3A25407   1.603  -1.812   0.858
 1123POPC   C4A25408   1.698  -1.678   0.972
 1123POPC   C1B25409   1.467  -1.980   0.467
 1123POPC   C2B25410   1.562  -1.846   0.581
 1123POPC   C3B25411   1.657  -1.712   0.694
 1123POPC   C4B25412   1.753  -1.578   0.808
 1124POPC   NC325413   4.981  15.942  26.339
 1124POPC   PO425414   5.035  15.884  26.156
 1124POPC   GL125415   5.089  15.826  25.973
 1124POPC   GL225416   5.184  15.851  25.993
 1124POPC   C1A25417   5.144  15.768  25.789
 1124POPC   D2A25418   5.198  15.709  25.606
 1124POPC   C3A25419   5.253  15.651  25.422
 1124POPC   C4A25420   5.307  15.593  25.239
 1124POPC   C1B25421   5.179  15.583  25.858
 1124POPC   C2B25422   5.233  15.525  25.675
 1124POPC   C3B25423   5.287  15.467  25.491
 1124POPC   C4B25424   5.342  15.408  25.308
 1125POPC   NC325425  19.549   1.021  -2.365
 1125POPC   PO425426  19.436   1.117  -2.231
 1125POPC   GL125427  19.323   1.213  -2.097
 1125POPC   GL225428  19.264   1.247  -2.171
 1125POPC   C1A25429  19.209   1.309  -1.963
 1125POPC   D2A25430  19.096   1.406  -1.830
 1125POPC   C3A25431  18.982   1.502  -1.696
 1125POPC   C4A25432  18.869   1.598  -1.562
 1125POPC   C1B25433  19.094   1.147  -1.945
 1125POPC   C2B25434  18.980   1.243  -1.811
 1125POPC   C3B25435  18.867   1.340  -1.677
 1125POPC   C4B25436  18.753   1.436  -1.543
 1126POPC   NC325437  -8.164   8.503  10.211
 1126POPC   PO425438  -7.965   8.521  10.205
 1126POPC   GL125439  -7.766   8.539  10.199
 1126POPC   GL225440  -7.768   8.588  10.286
 1126POPC   C1A25441  -7.567   8.557  10.193
 1126POPC   D2A25442  -7.367   8.574  10.187
 1126POPC   C3A25443  -7.168   8.592  10.181
 1126POPC   C4A25444  -6.969   8.610  10.175
 1126POPC   C1B25445  -7.548   8.383  10.291
 1126POPC   C2B25446  -7.349   8.401  10.285
 1126POPC   C3B25447  -7.150   8.419  10.279
 1126POPC   C4B25448  -6.951   8.437  10.273
 1127POPC   NC325449  27.475   9.027  13.766
 1127POPC   PO425450  27.279   9.035  13.729
 1127POPC   GL125451  27.083   9.043  13.692
 1127POPC   GL225452  27.094   8.978  13.617
 1127POPC   C1A25453  26.886   9.052  13.655
 1127POPC   D2A25454  26.690   9.060  13.618
 1127POPC   C3A25455  26.493   9.069  13.581
 1127POPC   C4A25456  26.297   9.077  13.544
 1127POPC   C1B25457  26.856   8.901  13.783
 1127POPC   C2B25458  26.659   8.910  13.746
 1127POPC   C3B25459  26.463   8.918  13.709
 1127POPC   C4B25460  26.266   8.927  13.672
 1128POPC   NC325461  -1.220   9.395  24.194
 1128POPC   PO425462  -1.093   9.399  24.040
 1128POPC   GL125463  -0.966   9.403  23.886
 1128POPC   GL225464  -0.894   9.364  23.943
 1128POPC   C1A25465  -0.839   9.407  23.731
 1128POPC   D2A25466  -0.712   9.412  23.577
 1128POPC   C3A25467  -0.585   9.416  23.422
 1128POPC   C4A25468  -0.458   9.420  23.268
 1128POPC   C1B25469  -0.897   9.224  23.678
 1128POPC   C2B25470  -0.770   9.228  23.524
 1128POPC   C3B25471  -0.643   9.232  23.370
 1128POPC   C4B25472  -0.516   9.236  23.215
 1129POPC   NC325473  18.716   7.378  25.459
 1129POPC   PO425474  18.621   7.412  25.286
 1129POPC   GL125475  18.526   7.446  25.113
 1129POPC   GL225476  18.533   7.349  25.090
 1129POPC   C1A25477  18.431   7.481  24.941
 1129POPC   D2A25478  18.335   7.515  24.768
 1129POPC   C3A25479  18.240   7.550  24.596
 1129POPC   C4A25480  18.145   7.584  24.423
 1129POPC   C1B25481  18.255   7.447  25.031
 1129POPC   C2B25482  18.160   7.481  24.858
 1129POPC   C3B25483  18.065   7.515  24.686
 1129POPC   C4B25484  17.970   7.550  24.513
 1130POPC   NC325485   9.025  -1.683  -3.847
 1130POPC   PO425486   9.034  -1.553  -3.695
 1130POPC   GL125487   9.043  -1.423  -3.543
 1130POPC   GL225488   9.098  -1.488  -3.491
 1130POPC   C1A25489   9.052  -1.293  -3.391
 1130POPC   D2A25490   9.062  -1.163  -3.240
 1130POPC   C3A25491   9.071  -1.033  -3.088
 1130POPC   C4A25492   9.080  -0.903  -2.936
 1130POPC   C1B25493   9.219  -1.215  -3.469
 1130POPC   C2B25494   9.229  -1.085  -3.317
 1130POPC   C3B25495   9.238  -0.955  -3.165
 1130POPC   C4B25496   9.247  -0.825  -3.013
 1131POPC   NC325497  -3.911  21.638  10.932
 1131POPC   PO425498  -3.758  21.509  10.921
 1131POPC   GL125499  -3.605  21.380  10.910
 1131POPC   GL225500  -3.570  21.415  10.996
 1131POPC   C1A25501  -3.453  21.251  10.899
 1131POPC   D2A25502  -3.300  21.123  10.887
 1131POPC   C3A25503  -3.148  20.994  10.876
 1131POPC   C4A25504  -2.995  20.865  10.865
 1131POPC   C1B25505  -3.560  21.115  10.998
 1131POPC   C2B25506  -3.408  20.986  10.987
 1131POPC   C3B25507  -3.255  20.858  10.976
 1131POPC   C4B25508  -3.103  20.729  10.965
 1132POPC   NC325509  23.813   7.082  20.947
 1132POPC   PO425510  23.657   7.116  20.827
 1132POPC   GL125511  23.501   7.150  20.707
 1132POPC   GL225512  23.503   7.055  20.677
 1132POPC   C1A25513  23.344   7.185  20.587
 1132POPC   D2A25514  23.188   7.219  20.468
 1132POPC   C3A25515  23.031   7.254  20.348
 1132POPC   C4A25516  22.875   7.288  20.228
 1132POPC   C1B25517  23.220   7.135  20.736
 1132POPC   C2B25518  23.063   7.169  20.616
 1132POPC   C3B25519  22.907   7.204  20.496
 1132POPC   C4B25520  22.751   7.238  20.376
 1133POPC   NC325521   0.296   8.698  -5.301
 1133POPC   PO425522   0.406   8.707  -5.134
 1133POPC   GL125523   0.516   8.716  -4.967
 1133POPC   GL225524   0.434   8.738  -4.914
 1133POPC   C1A25525   0.626   8.725  -4.800
 1133POPC   D2A25526   0.735   8.735  -4.633
 1133POPC   C3A25527   0.845   8.744  -4.466
 1133POPC   C4A25528   0.955   8.753  -4.299
 1133POPC   C1B25529   0.594   8.530  -4.768
 1133POPC   C2B25530   0.704   8.540  -4.601
 1133POPC   C3B25531   0.814   8.549  -4.434
 1133POPC   C4B25532   0.923   8.558  -4.267
 1134POPC   NC325533  16.930  -6.609   9.431
 1134POPC   PO425534  16.851  -6.425   9.438
 1134POPC   GL125535  16.772  -6.241   9.445
 1134POPC   GL225536  16.851  -6.205   9.395
 1134POPC   C1A25537  16.693  -6.057   9.452
 1134POPC   D2A25538  16.615  -5.874   9.460
 1134POPC   C3A25539  16.536  -5.690   9.467
 1134POPC   C4A25540  16.457  -5.506   9.474
 1134POPC   C1B25541  16.599  -6.091   9.279
 1134POPC   C2B25542  16.521  -5.907   9.286
 1134POPC   C3B25543  16.442  -5.723   9.294
 1134POPC   C4B25544  16.363  -5.540   9.301
 1135POPC   NC325545  26.914  15.871  10.638
 1135POPC   PO425546  26.727  15.801  10.632
 1135POPC   GL125547  26.540  15.731  10.626
 1135POPC   GL225548  26.562  15.677  10.545
 1135POPC   C1A25549  26.353  15.661  10.621
 1135POPC   D2A25550  26.165  15.591  10.615
 1135POPC   C3A25551  25.978  15.521  10.610
 1135POPC   C4A25552  25.791  15.451  10.604
 1135POPC   C1B25553  26.406  15.508  10.738
 1135POPC   C2B25554  26.219  15.438  10.732
 1135POPC   C3B25555  26.032  15.368  10.726
 1135POPC   C4B25556  25.845  15.298  10.721
 1136POPC   NC325557  16.854  19.969  23.276
 1136POPC   PO425558  16.777  19.861  23.127
 1136POPC   GL125559  16.700  19.753  22.978
 1136POPC   GL225560  16.744  19.812  22.911
 1136POPC   C1A25561  16.623  19.644  22.828
 1136POPC   D2A25562  16.545  19.536  22.679
 1136POPC   C3A25563  16.468  19.427  22.529
 1136POPC   C4A25564  16.391  19.319  22.380
 1136POPC   C1B25565  16.784  19.526  22.830
 1136POPC   C2B25566  16.707  19.418  22.681
 1136POPC   C3B25567  16.630  19.309  22.532
 1136POPC   C4B25568  16.552  19.201  22.382
 1137POPC   NC325569   7.612  27.698  12.813
 1137POPC   PO425570   7.634  27.502  12.783
 1137POPC   GL125571   7.656  27.306  12.753
 1137POPC   GL225572   7.693  27.295  12.845
 1137POPC   C1A25573   7.677  27.109  12.722
 1137POPC   D2A25574   7.699  26.913  12.692
 1137POPC   C3A25575   7.720  26.716  12.661
 1137POPC   C4A25576   7.742  26.520  12.631
 1137POPC   C1B25577   7.493  27.078  12.794
 1137POPC   C2B25578   7.515  26.881  12.763
 1137POPC   C3B25579   7.536  26.685  12.733
 1137POPC   C4B25580   7.558  26.489  12.702
 1138POPC   NC325581  17.257  -5.291  16.077
 1138POPC   PO425582  17.178  -5.120  16.010
 1138POPC   GL125583  17.099  -4.949  15.943
 1138POPC   GL225584  17.142  -4.899  16.018
 1138POPC   C1A25585  17.020  -4.778  15.876
 1138POPC   D2A25586  16.940  -4.606  15.810
 1138POPC   C3A25587  16.861  -4.435  15.743
 1138POPC   C4A25588  16.782  -4.264  15.676
 1138POPC   C1B25589  17.181  -4.747  15.763
 1138POPC   C2B25590  17.102  -4.576  15.696
 1138POPC   C3B25591  17.023  -4.405  15.629
 1138POPC   C4B25592  16.944  -4.233  15.563
 1139POPC   NC325593  17.395  17.076  24.730
 1139POPC   PO425594  17.309  16.999  24.567
 1139POPC   GL125595  17.223  16.922  24.404
 1139POPC   GL225596  17.238  17.008  24.355
 1139POPC   C1A25597  17.138  16.844  24.241
 1139POPC   D2A25598  17.052  16.767  24.077
 1139POPC   C3A25599  16.967  16.689  23.914
 1139POPC   C4A25600  16.881  16.612  23.751
 1139POPC   C1B25601  17.316  16.778  24.178
 1139POPC   C2B25602  17.230  16.701  24.015
 1139POPC   C3B25603  17.145  16.623  23.852
 1139POPC   C4B25604  17.059  16.546  23.689
 1140POPC   NC325605   9.862  24.986  20.037
 1140POPC   PO425606   9.861  24.821  19.924
 1140POPC   GL125607   9.860  24.656  19.811
 1140POPC   GL225608   9.907  24.706  19.738
 1140POPC   C1A25609   9.860  24.492  19.697
 1140POPC   D2A25610   9.859  24.327  19.584
 1140POPC   C3A25611   9.859  24.163  19.470
 1140POPC   C4A25612   9.858  23.998  19.357
 1140POPC   C1B25613  10.036  24.438  19.774
 1140POPC   C2B25614  10.036  24.273  19.661
 1140POPC   C3B25615  10.035  24.109  19.548
 1140POPC   C4B25616  10.035  23.944  19.434
 1141POPC   NC325617  -5.923  18.843   9.703
 1141POPC   PO425618  -5.748  18.747   9.703
 1141POPC   GL125619  -5.573  18.651   9.703
 1141POPC   GL225620  -5.579  18.639   9.802
 1141POPC   C1A25621  -5.397  18.555   9.703
 1141POPC   D2A25622  -5.222  18.459   9.704
 1141POPC   C3A25623  -5.046  18.363   9.704
 1141POPC   C4A25624  -4.871  18.267   9.704
 1141POPC   C1B25625  -5.492  18.381   9.676
 1141POPC   C2B25626  -5.317  18.285   9.676
 1141POPC   C3B25627  -5.142  18.189   9.676
 1141POPC   C4B25628  -4.966  18.093   9.677
 1142POPC   NC325629   4.204  -6.412  14.983
 1142POPC   PO425630   4.268  -6.231  14.928
 1142POPC   GL125631   4.332  -6.050  14.873
 1142POPC   GL225632   4.412  -6.060  14.932
 1142POPC   C1A25633   4.395  -5.868  14.818
 1142POPC   D2A25634   4.459  -5.687  14.763
 1142POPC   C3A25635   4.522  -5.505  14.708
 1142POPC   C4A25636   4.586  -5.324  14.653
 1142POPC   C1B25637   4.496  -5.950  14.666
 1142POPC   C2B25638   4.560  -5.768  14.611
 1142POPC   C3B25639   4.623  -5.587  14.556
 1142POPC   C4B25640   4.687  -5.405  14.501
 1143POPC   NC325641  -2.905  10.616  22.656
 1143POPC   PO425642  -2.760  10.611  22.518
 1143POPC   GL125643  -2.615  10.606  22.380
 1143POPC   GL225644  -2.550  10.643  22.447
 1143POPC   C1A25645  -2.470  10.602  22.242
 1143POPC   D2A25646  -2.326  10.597  22.105
 1143POPC   C3A25647  -2.181  10.593  21.967
 1143POPC   C4A25648  -2.036  10.588  21.829
 1143POPC   C1B25649  -2.423  10.416  22.299
 1143POPC   C2B25650  -2.278  10.411  22.161
 1143POPC   C3B25651  -2.133  10.407  22.023
 1143POPC   C4B25652  -1.988  10.402  21.885
 1144POPC   NC325653  22.773  22.625  10.754
 1144POPC   PO425654  22.630  22.486  10.741
 1144POPC   GL125655  22.487  22.347  10.728
 1144POPC   GL225656  22.531  22.309  10.646
 1144POPC   C1A25657  22.344  22.207  10.715
 1144POPC   D2A25658  22.202  22.068  10.702
 1144POPC   C3A25659  22.059  21.928  10.689
 1144POPC   C4A25660  21.916  21.789  10.676
 1144POPC   C1B25661  22.454  22.085  10.829
 1144POPC   C2B25662  22.311  21.945  10.816
 1144POPC   C3B25663  22.168  21.806  10.803
 1144POPC   C4B25664  22.025  21.666  10.790
 1145POPC   NC325665  -5.109  15.697   1.670
 1145POPC   PO425666  -4.941  15.631   1.755
 1145POPC   GL125667  -4.773  15.565   1.840
 1145POPC   GL225668  -4.796  15.613   1.924
 1145POPC   C1A25669  -4.604  15.498   1.925
 1145POPC   D2A25670  -4.436  15.432   2.011
 1145POPC   C3A25671  -4.267  15.365   2.096
 1145POPC   C4A25672  -4.099  15.299   2.181
 1145POPC   C1B25673  -4.702  15.337   1.992
 1145POPC   C2B25674  -4.533  15.270   2.077
 1145POPC   C3B25675  -4.365  15.204   2.162
 1145POPC   C4B25676  -4.196  15.138   2.248
 1146POPC   NC325677  -5.653   3.570  16.640
 1146POPC   PO425678  -5.481   3.645  16.572
 1146POPC   GL125679  -5.309   3.720  16.504
 1146POPC   GL225680  -5.275   3.628  16.486
 1146POPC   C1A25681  -5.136   3.795  16.436
 1146POPC   D2A25682  -4.964   3.871  16.369
 1146POPC   C3A25683  -4.791   3.946  16.301
 1146POPC   C4A25684  -4.619   4.021  16.233
 1146POPC   C1B25685  -5.213   3.804  16.252
 1146POPC   C2B25686  -5.040   3.879  16.184
 1146POPC   C3B25687  -4.868   3.955  16.116
 1146POPC   C4B25688  -4.695   4.030  16.048
 1147POPC   NC325689  14.444  27.324  12.111
 1147POPC   PO425690  14.395  27.132  12.085
 1147POPC   GL125691  14.346  26.940  12.059
 1147POPC   GL225692  14.387  26.917  12.147
 1147POPC   C1A25693  14.296  26.748  12.034
 1147POPC   D2A25694  14.247  26.555  12.008
 1147POPC   C3A25695  14.197  26.363  11.983
 1147POPC   C4A25696  14.148  26.171  11.957
 1147POPC   C1B25697  14.121  26.780  12.125
 1147POPC   C2B25698  14.072  26.588  12.100
 1147POPC   C3B25699  14.023  26.396  12.074
 1147POPC   C4B25700  13.973  26.204  12.048
 1148POPC   NC325701   3.336  26.786   8.474
 1148POPC   PO425702   3.412  26.602   8.490
 1148POPC   GL125703   3.488  26.418   8.506
 1148POPC   GL225704   3.470  26.419   8.604
 1148POPC   C1A25705   3.564  26.234   8.522
 1148POPC   D2A25706   3.641  26.049   8.538
 1148POPC   C3A25707   3.717  25.865   8.554
 1148POPC   C4A25708   3.793  25.681   8.570
 1148POPC   C1B25709   3.383  26.156   8.488
 1148POPC   C2B25710   3.459  25.972   8.504
 1148POPC   C3B25711   3.536  25.787   8.520
 1148POPC   C4B25712   3.612  25.603   8.536
 1149POPC   NC325713  25.489   7.455   1.242
 1149POPC   PO425714  25.315   7.479   1.338
 1149POPC   GL125715  25.141   7.503   1.434
 1149POPC   GL225716  25.105   7.421   1.390
 1149POPC   C1A25717  24.968   7.527   1.530
 1149POPC   D2A25718  24.794   7.552   1.627
 1149POPC   C3A25719  24.621   7.576   1.723
 1149POPC   C4A25720  24.447   7.600   1.819
 1149POPC   C1B25721  25.036   7.417   1.682
 1149POPC   C2B25722  24.863   7.441   1.778
 1149POPC   C3B25723  24.689   7.465   1.874
 1149POPC   C4B25724  24.516   7.489   1.971
 1150POPC   NC325725  22.462  -2.854  11.568
 1150POPC   PO425726  22.325  -2.710  11.546
 1150POPC   GL125727  22.188  -2.566  11.524
 1150POPC   GL225728  22.253  -2.512  11.472
 1150POPC   C1A25729  22.050  -2.423  11.502
 1150POPC   D2A25730  21.913  -2.279  11.479
 1150POPC   C3A25731  21.775  -2.136  11.457
 1150POPC   C4A25732  21.638  -1.992  11.435
 1150POPC   C1B25733  21.988  -2.509  11.332
 1150POPC   C2B25734  21.851  -2.365  11.310
 1150POPC   C3B25735  21.713  -2.221  11.288
 1150POPC   C4B25736  21.576  -2.078  11.265
 1151POPC   NC325737  12.924  -7.831  10.391
 1151POPC   PO425738  12.893  -7.633  10.384
 1151POPC   GL125739  12.862  -7.435  10.377
 1151POPC   GL225740  12.867  -7.438  10.277
 1151POPC   C1A25741  12.832  -7.238  10.369
 1151POPC   D2A25742  12.801  -7.040  10.362
 1151POPC   C3A25743  12.771  -6.843  10.354
 1151POPC   C4A25744  12.740  -6.645  10.347
 1151POPC   C1B25745  12.634  -7.269  10.361
 1151POPC   C2B25746  12.604  -7.071  10.354
 1151POPC   C3B25747  12.573  -6.873  10.346
 1151POPC   C4B25748  12.543  -6.676  10.339
 1152POPC   NC325749  10.105  23.728  21.638
 1152POPC   PO425750  10.101  23.577  21.507
 1152POPC   GL125751  10.097  23.426  21.376
 1152POPC   GL225752  10.183  23.392  21.413
 1152POPC   C1A25753  10.092  23.274  21.246
 1152POPC   D2A25754  10.088  23.123  21.115
 1152POPC   C3A25755  10.083  22.971  20.985
 1152POPC   C4A25756  10.079  22.820  20.854
 1152POPC   C1B25757   9.993  23.163  21.379
 1152POPC   C2B25758   9.988  23.011  21.248
 1152POPC   C3B25759   9.984  22.860  21.117
 1152POPC   C4B25760   9.980  22.708  20.987
 1153POPC   NC325761  -5.356   1.514   5.261
 1153POPC   PO425762  -5.186   1.608   5.310
 1153POPC   GL125763  -5.016   1.702   5.359
 1153POPC   GL225764  -5.017   1.656   5.448
 1153POPC   C1A25765  -4.847   1.796   5.409
 1153POPC   D2A25766  -4.677   1.889   5.458
 1153POPC   C3A25767  -4.508   1.983   5.508
 1153POPC   C4A25768  -4.338   2.077   5.557
 1153POPC   C1B25769  -4.741   1.645   5.332
 1153POPC   C2B25770  -4.571   1.738   5.381
 1153POPC   C3B25771  -4.402   1.832   5.431
 1153POPC   C4B25772  -4.232   1.926   5.480
 1154POPC   NC325773  11.964  -6.754   3.341
 1154POPC   PO425774  11.942  -6.570   3.416
 1154POPC   GL125775  11.920  -6.386   3.491
 1154POPC   GL225776  11.953  -6.347   3.405
 1154POPC   C1A25777  11.897  -6.202   3.566
 1154POPC   D2A25778  11.875  -6.018   3.641
 1154POPC   C3A25779  11.852  -5.834   3.716
 1154POPC   C4A25780  11.830  -5.650   3.791
 1154POPC   C1B25781  11.710  -6.196   3.496
 1154POPC   C2B25782  11.688  -6.012   3.571
 1154POPC   C3B25783  11.665  -5.828   3.646
 1154POPC   C4B25784  11.643  -5.644   3.721
 1155POPC   NC325785   3.777   8.322  26.879
 1155POPC   PO425786   3.840   8.336  26.690
 1155POPC   GL125787   3.903   8.350  26.501
 1155POPC   GL225788   3.997   8.344  26.531
 1155POPC   C1A25789   3.965   8.364  26.311
 1155POPC   D2A25790   4.028   8.378  26.122
 1155POPC   C3A25791   4.090   8.392  25.932
 1155POPC   C4A25792   4.153   8.406  25.743
 1155POPC   C1B25793   3.959   8.165  26.294
 1155POPC   C2B25794   4.021   8.179  26.105
 1155POPC   C3B25795   4.084   8.193  25.916
 1155POPC   C4B25796   4.147   8.207  25.726
 1156POPC   NC325797   4.398  -5.451   2.293
 1156POPC   PO425798   4.454  -5.278   2.376
 1156POPC   GL125799   4.510  -5.105   2.459
 1156POPC   GL225800   4.592  -5.149   2.495
 1156POPC   C1A25801   4.565  -4.932   2.542
 1156POPC   D2A25802   4.621  -4.758   2.625
 1156POPC   C3A25803   4.676  -4.585   2.708
 1156POPC   C4A25804   4.732  -4.412   2.791
 1156POPC   C1B25805   4.664  -4.883   2.375
 1156POPC   C2B25806   4.719  -4.710   2.458
 1156POPC   C3B25807   4.775  -4.537   2.541
 1156POPC   C4B25808   4.831  -4.364   2.624
 1157POPC   NC325809  10.502  23.030  22.397
 1157POPC   PO425810  10.495  22.885  22.260
 1157POPC   GL125811  10.488  22.740  22.123
 1157POPC   GL225812  10.491  22.671  22.195
 1157POPC   C1A25813  10.480  22.594  21.986
 1157POPC   D2A25814  10.473  22.449  21.848
 1157POPC   C3A25815  10.465  22.303  21.711
 1157POPC   C4A25816  10.458  22.158  21.574
 1157POPC   C1B25817  10.280  22.595  21.996
 1157POPC   C2B25818  10.273  22.449  21.859
 1157POPC   C3B25819  10.266  22.304  21.721
 1157POPC   C4B25820  10.258  22.159  21.584
 1158POPC   NC325821  21.120   0.703  -0.630
 1158POPC   PO425822  20.994   0.803  -0.511
 1158POPC   GL125823  20.868   0.903  -0.392
 1158POPC   GL225824  20.946   0.946  -0.346
 1158POPC   C1A25825  20.742   1.003  -0.273
 1158POPC   D2A25826  20.617   1.102  -0.153
 1158POPC   C3A25827  20.491   1.202  -0.034
 1158POPC   C4A25828  20.365   1.302   0.085
 1158POPC   C1B25829  20.736   1.152  -0.405
 1158POPC   C2B25830  20.610   1.252  -0.286
 1158POPC   C3B25831  20.484   1.352  -0.167
 1158POPC   C4B25832  20.358   1.452  -0.047
 1159POPC   NC325833   5.914  -4.879   0.488
 1159POPC   PO425834   5.954  -4.713   0.592
 1159POPC   GL125835   5.994  -4.547   0.696
 1159POPC   GL225836   6.078  -4.589   0.731
 1159POPC   C1A25837   6.034  -4.381   0.800
 1159POPC   D2A25838   6.075  -4.215   0.904
 1159POPC   C3A25839   6.115  -4.049   1.008
 1159POPC   C4A25840   6.155  -3.883   1.112
 1159POPC   C1B25841   6.137  -4.308   0.644
 1159POPC   C2B25842   6.177  -4.142   0.748
 1159POPC   C3B25843   6.217  -3.976   0.852
 1159POPC   C4B25844   6.258  -3.810   0.956
 1160POPC   NC325845  23.692  19.572   3.426
 1160POPC   PO425846  23.538  19.464   3.493
 1160POPC   GL125847  23.384  19.356   3.560
 1160POPC   GL225848  23.427  19.273   3.524
 1160POPC   C1A25849  23.230  19.247   3.627
 1160POPC   D2A25850  23.075  19.139   3.694
 1160POPC   C3A25851  22.921  19.030   3.761
 1160POPC   C4A25852  22.767  18.922   3.828
 1160POPC   C1B25853  23.324  19.221   3.802
 1160POPC   C2B25854  23.170  19.113   3.869
 1160POPC   C3B25855  23.015  19.004   3.936
 1160POPC   C4B25856  22.861  18.896   4.003
 1161POPC   NC325857  -5.596  17.994   5.261
 1161POPC   PO425858  -5.423  17.912   5.317
 1161POPC   GL125859  -5.250  17.830   5.373
 1161POPC   GL225860  -5.222  17.916   5.415
 1161POPC   C1A25861  -5.076  17.747   5.429
 1161POPC   D2A25862  -4.903  17.665   5.486
 1161POPC   C3A25863  -4.729  17.582   5.542
 1161POPC   C4A25864  -4.556  17.500   5.598
 1161POPC   C1B25865  -5.160  17.689   5.602
 1161POPC   C2B25866  -4.986  17.607   5.658
 1161POPC   C3B25867  -4.813  17.525   5.714
 1161POPC   C4B25868  -4.639  17.442   5.770
 1162POPC   NC325869  -3.101  20.848   3.562
 1162POPC   PO425870  -2.960  20.726   3.634
 1162POPC   GL125871  -2.819  20.604   3.706
 1162POPC   GL225872  -2.839  20.636   3.799
 1162POPC   C1A25873  -2.677  20.482   3.778
 1162POPC   D2A25874  -2.536  20.361   3.850
 1162POPC   C3A25875  -2.394  20.239   3.922
 1162POPC   C4A25876  -2.253  20.117   3.994
 1162POPC   C1B25877  -2.813  20.337   3.798
 1162POPC   C2B25878  -2.671  20.215   3.870
 1162POPC   C3B25879  -2.530  20.093   3.942
 1162POPC   C4B25880  -2.389  19.971   4.014
 1163POPC   NC325881  -6.668  16.929   7.689
 1163POPC   PO425882  -6.485  16.854   7.718
 1163POPC   GL125883  -6.302  16.779   7.747
 1163POPC   GL225884  -6.262  16.867   7.722
 1163POPC   C1A25885  -6.119  16.704   7.776
 1163POPC   D2A25886  -5.936  16.629   7.805
 1163POPC   C3A25887  -5.753  16.554   7.834
 1163POPC   C4A25888  -5.570  16.479   7.863
 1163POPC   C1B25889  -6.126  16.761   7.967
 1163POPC   C2B25890  -5.943  16.686   7.996
 1163POPC   C3B25891  -5.760  16.611   8.025
 1163POPC   C4B25892  -5.577  16.536   8.054
 1164POPC   NC325893  13.664  15.132  26.774
 1164POPC   PO425894  13.626  15.070  26.588
 1164POPC   GL125895  13.588  15.008  26.402
 1164POPC   GL225896  13.686  14.990  26.388
 1164POPC   C1A25897  13.551  14.946  26.215
 1164POPC   D2A25898  13.513  14.885  26.029
 1164POPC   C3A25899  13.476  14.823  25.842
 1164POPC   C4A25900  13.438  14.761  25.656
 1164POPC   C1B25901  13.525  14.760  26.282
 1164POPC   C2B25902  13.487  14.698  26.096
 1164POPC   C3B25903  13.450  14.636  25.909
 1164POPC   C4B25904  13.412  14.574  25.723
 1165POPC   NC325905   0.006   3.619  23.537
 1165POPC   PO425906   0.119   3.689  23.388
 1165POPC   GL125907   0.232   3.759  23.239
 1165POPC   GL225908   0.244   3.666  23.204
 1165POPC   C1A25909   0.345   3.830  23.089
 1165POPC   D2A25910   0.457   3.900  22.940
 1165POPC   C3A25911   0.570   3.971  22.790
 1165POPC   C4A25912   0.683   4.041  22.641
 1165POPC   C1B25913   0.181   3.851  22.976
 1165POPC   C2B25914   0.294   3.922  22.827
 1165POPC   C3B25915   0.407   3.992  22.677
 1165POPC   C4B25916   0.520   4.063  22.528
 1166POPC   NC325917  16.071  26.809  11.844
 1166POPC   PO425918  15.996  26.625  11.825
 1166POPC   GL125919  15.921  26.441  11.806
 1166POPC   GL225920  15.995  26.405  11.864
 1166POPC   C1A25921  15.846  26.256  11.788
 1166POPC   D2A25922  15.771  26.072  11.769
 1166POPC   C3A25923  15.696  25.887  11.751
 1166POPC   C4A25924  15.621  25.703  11.732
 1166POPC   C1B25925  15.734  26.285  11.951
 1166POPC   C2B25926  15.659  26.101  11.932
 1166POPC   C3B25927  15.584  25.917  11.914
 1166POPC   C4B25928  15.509  25.732  11.895
 1167POPC   NC325929   1.531  -4.036  17.712
 1167POPC   PO425930   1.623  -3.882  17.623
 1167POPC   GL125931   1.715  -3.728  17.534
 1167POPC   GL225932   1.803  -3.763  17.566
 1167POPC   C1A25933   1.807  -3.574  17.445
 1167POPC   D2A25934   1.898  -3.421  17.356
 1167POPC   C3A25935   1.990  -3.267  17.267
 1167POPC   C4A25936   2.082  -3.113  17.178
 1167POPC   C1B25937   1.824  -3.682  17.277
 1167POPC   C2B25938   1.916  -3.528  17.188
 1167POPC   C3B25939   2.008  -3.374  17.099
 1167POPC   C4B25940   2.100  -3.221  17.010
 1168POPC   NC325941   1.905   0.052  22.770
 1168POPC   PO425942   2.000   0.159  22.630
 1168POPC   GL125943   2.095   0.266  22.490
 1168POPC   GL225944   2.120   0.334  22.559
 1168POPC   C1A25945   2.189   0.373  22.350
 1168POPC   D2A25946   2.284   0.481  22.211
 1168POPC   C3A25947   2.378   0.588  22.071
 1168POPC   C4A25948   2.473   0.695  21.931
 1168POPC   C1B25949   2.358   0.272  22.387
 1168POPC   C2B25950   2.452   0.379  22.247
 1168POPC   C3B25951   2.547   0.486  22.107
 1168POPC   C4B25952   2.641   0.593  21.967
 1169POPC   NC325953  -2.916   9.514  22.661
 1169POPC   PO425954  -2.773   9.514  22.521
 1169POPC   GL125955  -2.630   9.514  22.381
 1169POPC   GL225956  -2.561   9.506  22.452
 1169POPC   C1A25957  -2.488   9.515  22.241
 1169POPC   D2A25958  -2.345   9.515  22.100
 1169POPC   C3A25959  -2.203   9.516  21.960
 1169POPC   C4A25960  -2.060   9.516  21.820
 1169POPC   C1B25961  -2.500   9.316  22.228
 1169POPC   C2B25962  -2.357   9.316  22.088
 1169POPC   C3B25963  -2.214   9.316  21.948
 1169POPC   C4B25964  -2.072   9.317  21.807
 1170POPC   NC325965  -6.783  12.220  16.684
 1170POPC   PO425966  -6.600  12.194  16.608
 1170POPC   GL125967  -6.417  12.168  16.532
 1170POPC   GL225968  -6.395  12.104  16.605
 1170POPC   C1A25969  -6.234  12.143  16.455
 1170POPC   D2A25970  -6.051  12.117  16.379
 1170POPC   C3A25971  -5.868  12.092  16.302
 1170POPC   C4A25972  -5.685  12.066  16.226
 1170POPC   C1B25973  -6.302  11.991  16.344
 1170POPC   C2B25974  -6.119  11.966  16.267
 1170POPC   C3B25975  -5.936  11.940  16.191
 1170POPC   C4B25976  -5.753  11.914  16.114
 1171POPC   NC325977  17.763  -5.700  14.063
 1171POPC   PO425978  17.675  -5.526  14.018
 1171POPC   GL125979  17.587  -5.352  13.973
 1171POPC   GL225980  17.626  -5.311  14.055
 1171POPC   C1A25981  17.498  -5.178  13.928
 1171POPC   D2A25982  17.410  -5.005  13.883
 1171POPC   C3A25983  17.321  -4.831  13.838
 1171POPC   C4A25984  17.233  -4.657  13.793
 1171POPC   C1B25985  17.659  -5.124  13.822
 1171POPC   C2B25986  17.571  -4.950  13.777
 1171POPC   C3B25987  17.482  -4.776  13.732
 1171POPC   C4B25988  17.394  -4.603  13.687
 1172POPC   NC325989  12.095  18.858  -5.609
 1172POPC   PO425990  12.069  18.761  -5.436
 1172POPC   GL125991  12.043  18.664  -5.263
 1172POPC   GL225992  12.142  18.652  -5.255
 1172POPC   C1A25993  12.017  18.568  -5.090
 1172POPC   D2A25994  11.990  18.471  -4.916
 1172POPC   C3A25995  11.964  18.375  -4.743
 1172POPC   C4A25996  11.938  18.278  -4.570
 1172POPC   C1B25997  12.030  18.741  -4.991
 1172POPC   C2B25998  12.004  18.645  -4.818
 1172POPC   C3B25999  11.978  18.548  -4.644
 1172POPC   C4B26000  11.951  18.451  -4.471
 1173POPC   NC326001  -6.531   2.536  11.031
 1173POPC   PO426002  -6.349   2.617  11.018
 1173POPC   GL126003  -6.167   2.698  11.005
 1173POPC   GL226004  -6.126   2.607  11.006
 1173POPC   C1A26005  -5.984   2.779  10.992
 1173POPC   D2A26006  -5.802   2.860  10.979
 1173POPC   C3A26007  -5.619   2.941  10.966
 1173POPC   C4A26008  -5.437   3.022  10.953
 1173POPC   C1B26009  -5.996   2.772  10.792
 1173POPC   C2B26010  -5.813   2.853  10.779
 1173POPC   C3B26011  -5.631   2.934  10.766
 1173POPC   C4B26012  -5.448   3.015  10.753
 1174POPC   NC326013  16.895   7.637  -6.456
 1174POPC   PO426014  16.815   7.665  -6.275
 1174POPC   GL126015  16.735   7.693  -6.094
 1174POPC   GL226016  16.659   7.743  -6.135
 1174POPC   C1A26017  16.655   7.721  -5.913
 1174POPC   D2A26018  16.576   7.750  -5.731
 1174POPC   C3A26019  16.496   7.778  -5.550
 1174POPC   C4A26020  16.416   7.806  -5.369
 1174POPC   C1B26021  16.553   7.551  -5.931
 1174POPC   C2B26022  16.473   7.579  -5.750
 1174POPC   C3B26023  16.393   7.607  -5.569
 1174POPC   C4B26024  16.313   7.635  -5.388
 1175POPC   NC326025  -3.424  17.394  19.699
 1175POPC   PO426026  -3.280  17.310  19.589
 1175POPC   GL126027  -3.136  17.226  19.479
 1175POPC   GL226028  -3.081  17.309  19.488
 1175POPC   C1A26029  -2.992  17.142  19.369
 1175POPC   D2A26030  -2.847  17.058  19.258
 1175POPC   C3A26031  -2.703  16.974  19.148
 1175POPC   C4A26032  -2.559  16.890  19.038
 1175POPC   C1B26033  -2.908  17.068  19.535
 1175POPC   C2B26034  -2.764  16.984  19.424
 1175POPC   C3B26035  -2.620  16.900  19.314
 1175POPC   C4B26036  -2.475  16.816  19.204
 1176POPC   NC326037  22.656  20.016  17.714
 1176POPC   PO426038  22.516  19.898  17.633
 1176POPC   GL126039  22.376  19.780  17.552
 1176POPC   GL226040  22.435  19.767  17.471
 1176POPC   C1A26041  22.237  19.662  17.470
 1176POPC   D2A26042  22.097  19.545  17.389
 1176POPC   C3A26043  21.958  19.427  17.307
 1176POPC   C4A26044  21.818  19.309  17.226
 1176POPC   C1B26045  22.320  19.503  17.558
 1176POPC   C2B26046  22.181  19.385  17.476
 1176POPC   C3B26047  22.041  19.267  17.395
 1176POPC   C4B26048  21.901  19.150  17.314
 1177POPC   NC326049  -1.466  22.957  15.393
 1177POPC   PO426050  -1.342  22.813  15.330
 1177POPC   GL126051  -1.218  22.669  15.267
 1177POPC   GL226052  -1.201  22.642  15.362
 1177POPC   C1A26053  -1.095  22.525  15.204
 1177POPC   D2A26054  -0.971  22.381  15.140
 1177POPC   C3A26055  -0.848  22.237  15.077
 1177POPC   C4A26056  -0.724  22.093  15.014
 1177POPC   C1B26057  -1.248  22.397  15.196
 1177POPC   C2B26058  -1.125  22.253  15.133
 1177POPC   C3B26059  -1.001  22.109  15.069
 1177POPC   C4B26060  -0.877  21.965  15.006
 1178POPC   NC326061  24.235   5.764  -0.196
 1178POPC   PO426062  24.076   5.810  -0.083
 1178POPC   GL126063  23.917   5.856   0.030
 1178POPC   GL226064  23.862   5.866  -0.053
 1178POPC   C1A26065  23.759   5.902   0.143
 1178POPC   D2A26066  23.600   5.948   0.255
 1178POPC   C3A26067  23.442   5.994   0.368
 1178POPC   C4A26068  23.283   6.040   0.481
 1178POPC   C1B26069  23.710   5.708   0.152
 1178POPC   C2B26070  23.551   5.754   0.265
 1178POPC   C3B26071  23.392   5.800   0.378
 1178POPC   C4B26072  23.234   5.846   0.491
 1179POPC   NC326073  -3.785  10.974  -1.795
 1179POPC   PO426074  -3.637  10.968  -1.661
 1179POPC   GL126075  -3.489  10.962  -1.527
 1179POPC   GL226076  -3.533  11.036  -1.475
 1179POPC   C1A26077  -3.341  10.956  -1.392
 1179POPC   D2A26078  -3.193  10.951  -1.258
 1179POPC   C3A26079  -3.045  10.945  -1.123
 1179POPC   C4A26080  -2.897  10.939  -0.989
 1179POPC   C1B26081  -3.443  10.821  -1.286
 1179POPC   C2B26082  -3.295  10.815  -1.152
 1179POPC   C3B26083  -3.147  10.809  -1.017
 1179POPC   C4B26084  -2.999  10.803  -0.883
 1180POPC   NC326085  -3.363  10.685  22.156
 1180POPC   PO426086  -3.214  10.679  22.023
 1180POPC   GL126087  -3.065  10.673  21.890
 1180POPC   GL226088  -3.038  10.765  21.916
 1180POPC   C1A26089  -2.916  10.667  21.757
 1180POPC   D2A26090  -2.767  10.661  21.623
 1180POPC   C3A26091  -2.618  10.655  21.490
 1180POPC   C4A26092  -2.469  10.649  21.357
 1180POPC   C1B26093  -2.794  10.591  21.896
 1180POPC   C2B26094  -2.645  10.585  21.763
 1180POPC   C3B26095  -2.496  10.579  21.630
 1180POPC   C4B26096  -2.347  10.573  21.497
 1181POPC   NC326097   8.391  26.079  18.023
 1181POPC   PO426098   8.408  25.900  17.935
 1181POPC   GL126099   8.425  25.721  17.847
 1181POPC   GL226100   8.514  25.748  17.809
 1181POPC   C1A26101   8.442  25.543  17.758
 1181POPC   D2A26102   8.460  25.364  17.670
 1181POPC   C3A26103   8.477  25.186  17.581
 1181POPC   C4A26104   8.494  25.007  17.493
 1181POPC   C1B26105   8.533  25.471  17.921
 1181POPC   C2B26106   8.550  25.292  17.833
 1181POPC   C3B26107   8.567  25.114  17.745
 1181POPC   C4B26108   8.585  24.935  17.656
 1182POPC   NC326109  -1.437  23.768  13.171
 1182POPC   PO426110  -1.313  23.616  13.135
 1182POPC   GL126111  -1.189  23.464  13.099
 1182POPC   GL226112  -1.116  23.528  13.077
 1182POPC   C1A26113  -1.064  23.311  13.063
 1182POPC   D2A26114  -0.940  23.159  13.028
 1182POPC   C3A26115  -0.815  23.006  12.992
 1182POPC   C4A26116  -0.691  22.854  12.956
 1182POPC   C1B26117  -1.007  23.313  13.255
 1182POPC   C2B26118  -0.882  23.161  13.219
 1182POPC   C3B26119  -0.758  23.008  13.183
 1182POPC   C4B26120  -0.634  22.856  13.148
 1183POPC   NC326121  22.213  12.009  -3.061
 1183POPC   PO426122  22.073  11.988  -2.920
 1183POPC   GL126123  21.933  11.967  -2.779
 1183POPC   GL226124  21.923  11.871  -2.803
 1183POPC   C1A26125  21.793  11.946  -2.638
 1183POPC   D2A26126  21.653  11.926  -2.496
 1183POPC   C3A26127  21.513  11.905  -2.355
 1183POPC   C4A26128  21.373  11.884  -2.214
 1183POPC   C1B26129  21.934  11.897  -2.505
 1183POPC   C2B26130  21.794  11.876  -2.364
 1183POPC   C3B26131  21.654  11.856  -2.222
 1183POPC   C4B26132  21.514  11.835  -2.081
 1184POPC   NC326133  14.000  -0.823  -3.907
 1184POPC   PO426134  13.956  -0.703  -3.753
 1184POPC   GL126135  13.912  -0.583  -3.599
 1184POPC   GL226136  13.981  -0.517  -3.631
 1184POPC   C1A26137  13.869  -0.463  -3.445
 1184POPC   D2A26138  13.825  -0.343  -3.291
 1184POPC   C3A26139  13.782  -0.223  -3.137
 1184POPC   C4A26140  13.738  -0.103  -2.983
 1184POPC   C1B26141  13.730  -0.371  -3.556
 1184POPC   C2B26142  13.686  -0.251  -3.402
 1184POPC   C3B26143  13.643  -0.131  -3.248
 1184POPC   C4B26144  13.599  -0.011  -3.094
 1185POPC   NC326145  22.407  21.194   3.439
 1185POPC   PO426146  22.269  21.069   3.512
 1185POPC   GL126147  22.131  20.944   3.585
 1185POPC   GL226148  22.169  20.870   3.530
 1185POPC   C1A26149  21.992  20.819   3.658
 1185POPC   D2A26150  21.854  20.695   3.730
 1185POPC   C3A26151  21.715  20.570   3.803
 1185POPC   C4A26152  21.577  20.445   3.876
 1185POPC   C1B26153  22.114  20.772   3.809
 1185POPC   C2B26154  21.976  20.647   3.882
 1185POPC   C3B26155  21.838  20.522   3.954
 1185POPC   C4B26156  21.699  20.398   4.027
 1186POPC   NC326157  15.378  17.874  -5.332
 1186POPC   PO426158  15.319  17.787  -5.162
 1186POPC   GL126159  15.260  17.700  -4.992
 1186POPC   GL226160  15.282  17.610  -5.030
 1186POPC   C1A26161  15.200  17.612  -4.822
 1186POPC   D2A26162  15.141  17.525  -4.653
 1186POPC   C3A26163  15.081  17.437  -4.483
 1186POPC   C4A26164  15.022  17.350  -4.313
 1186POPC   C1B26165  15.386  17.628  -4.749
 1186POPC   C2B26166  15.326  17.541  -4.579
 1186POPC   C3B26167  15.267  17.453  -4.410
 1186POPC   C4B26168  15.207  17.366  -4.240
 1187POPC   NC326169  -5.270   6.943  19.374
 1187POPC   PO426170  -5.103   6.972  19.267
 1187POPC   GL126171  -4.936   7.001  19.160
 1187POPC   GL226172  -4.939   7.098  19.182
 1187POPC   C1A26173  -4.770   7.029  19.053
 1187POPC   D2A26174  -4.603   7.058  18.946
 1187POPC   C3A26175  -4.437   7.086  18.839
 1187POPC   C4A26176  -4.270   7.115  18.732
 1187POPC   C1B26177  -4.659   6.996  19.216
 1187POPC   C2B26178  -4.493   7.025  19.109
 1187POPC   C3B26179  -4.326   7.054  19.002
 1187POPC   C4B26180  -4.159   7.082  18.895
 1188POPC   NC326181  -2.839  21.429  15.760
 1188POPC   PO426182  -2.697  21.303  15.697
 1188POPC   GL126183  -2.555  21.177  15.634
 1188POPC   GL226184  -2.581  21.112  15.706
 1188POPC   C1A26185  -2.414  21.051  15.571
 1188POPC   D2A26186  -2.272  20.924  15.507
 1188POPC   C3A26187  -2.131  20.798  15.444
 1188POPC   C4A26188  -1.989  20.672  15.381
 1188POPC   C1B26189  -2.545  20.965  15.446
 1188POPC   C2B26190  -2.404  20.839  15.383
 1188POPC   C3B26191  -2.262  20.713  15.320
 1188POPC   C4B26192  -2.120  20.587  15.257
 1189POPC   NC326193  17.249  21.368  -2.027
 1189POPC   PO426194  17.163  21.242  -1.898
 1189POPC   GL126195  17.077  21.116  -1.769
 1189POPC   GL226196  17.166  21.073  -1.751
 1189POPC   C1A26197  16.992  20.990  -1.639
 1189POPC   D2A26198  16.906  20.863  -1.510
 1189POPC   C3A26199  16.821  20.737  -1.380
 1189POPC   C4A26200  16.735  20.611  -1.251
 1189POPC   C1B26201  17.025  21.119  -1.491
 1189POPC   C2B26202  16.939  20.993  -1.361
 1189POPC   C3B26203  16.854  20.867  -1.232
 1189POPC   C4B26204  16.768  20.741  -1.103
 1190POPC   NC326205  13.455  -6.286   2.878
 1190POPC   PO426206  13.413  -6.108   2.958
 1190POPC   GL126207  13.371  -5.930   3.038
 1190POPC   GL226208  13.430  -5.886   2.971
 1190POPC   C1A26209  13.328  -5.751   3.117
 1190POPC   D2A26210  13.286  -5.573   3.197
 1190POPC   C3A26211  13.243  -5.394   3.276
 1190POPC   C4A26212  13.201  -5.216   3.356
 1190POPC   C1B26213  13.174  -5.732   2.992
 1190POPC   C2B26214  13.131  -5.554   3.071
 1190POPC   C3B26215  13.089  -5.375   3.151
 1190POPC   C4B26216  13.047  -5.197   3.230
 1191POPC   NC326217  12.288  -2.852  -2.531
 1191POPC   PO426218  12.259  -2.711  -2.392
 1191POPC   GL126219  12.230  -2.570  -2.253
 1191POPC   GL226220  12.284  -2.506  -2.308
 1191POPC   C1A26221  12.202  -2.429  -2.114
 1191POPC   D2A26222  12.173  -2.288  -1.976
 1191POPC   C3A26223  12.145  -2.147  -1.837
 1191POPC   C4A26224  12.116  -2.006  -1.698
 1191POPC   C1B26225  12.036  -2.370  -2.209
 1191POPC   C2B26226  12.007  -2.229  -2.070
 1191POPC   C3B26227  11.979  -2.088  -1.931
 1191POPC   C4B26228  11.950  -1.947  -1.792
 1192POPC   NC326229  -7.041  16.224  11.186
 1192POPC   PO426230  -6.854  16.155  11.171
 1192POPC   GL126231  -6.667  16.086  11.156
 1192POPC   GL226232  -6.694  16.001  11.202
 1192POPC   C1A26233  -6.480  16.017  11.141
 1192POPC   D2A26234  -6.292  15.948  11.127
 1192POPC   C3A26235  -6.105  15.879  11.112
 1192POPC   C4A26236  -5.918  15.810  11.097
 1192POPC   C1B26237  -6.524  15.935  10.964
 1192POPC   C2B26238  -6.337  15.866  10.950
 1192POPC   C3B26239  -6.149  15.797  10.935
 1192POPC   C4B26240  -5.962  15.728  10.920
 1193POPC   NC326241  -5.803   6.880   1.518
 1193POPC   PO426242  -5.629   6.911   1.611
 1193POPC   GL126243  -5.455   6.942   1.704
 1193POPC   GL226244  -5.448   6.845   1.725
 1193POPC   C1A26245  -5.281   6.974   1.797
 1193POPC   D2A26246  -5.106   7.005   1.890
 1193POPC   C3A26247  -4.932   7.037   1.983
 1193POPC   C4A26248  -4.758   7.068   2.076
 1193POPC   C1B26249  -5.183   6.943   1.625
 1193POPC   C2B26250  -5.009   6.975   1.718
 1193POPC   C3B26251  -4.835   7.006   1.811
 1193POPC   C4B26252  -4.661   7.037   1.904
 1194POPC   NC326253   8.933  -7.792  12.886
 1194POPC   PO426254   8.943  -7.594  12.858
 1194POPC   GL126255   8.953  -7.396  12.830
 1194POPC   GL226256   8.965  -7.411  12.732
 1194POPC   C1A26257   8.962  -7.198  12.802
 1194POPC   D2A26258   8.972  -7.001  12.774
 1194POPC   C3A26259   8.981  -6.803  12.746
 1194POPC   C4A26260   8.991  -6.605  12.718
 1194POPC   C1B26261   8.764  -7.192  12.776
 1194POPC   C2B26262   8.774  -6.995  12.748
 1194POPC   C3B26263   8.783  -6.797  12.720
 1194POPC   C4B26264   8.793  -6.599  12.692
 1195POPC   NC326265  13.700  -7.522  12.235
 1195POPC   PO426266  13.658  -7.328  12.208
 1195POPC   GL126267  13.616  -7.134  12.181
 1195POPC   GL226268  13.641  -7.143  12.084
 1195POPC   C1A26269  13.574  -6.941  12.154
 1195POPC   D2A26270  13.533  -6.747  12.126
 1195POPC   C3A26271  13.491  -6.554  12.099
 1195POPC   C4A26272  13.449  -6.360  12.072
 1195POPC   C1B26273  13.385  -6.988  12.110
 1195POPC   C2B26274  13.343  -6.794  12.082
 1195POPC   C3B26275  13.301  -6.601  12.055
 1195POPC   C4B26276  13.260  -6.407  12.028
 1196POPC   NC326277  23.673  21.637  10.519
 1196POPC   PO426278  23.518  21.511  10.509
 1196POPC   GL126279  23.363  21.385  10.499
 1196POPC   GL226280  23.426  21.307  10.506
 1196POPC   C1A26281  23.209  21.258  10.488
 1196POPC   D2A26282  23.054  21.132  10.478
 1196POPC   C3A26283  22.900  21.005  10.467
 1196POPC   C4A26284  22.745  20.879  10.457
 1196POPC   C1B26285  23.191  21.263  10.687
 1196POPC   C2B26286  23.037  21.137  10.677
 1196POPC   C3B26287  22.882  21.010  10.667
 1196POPC   C4B26288  22.728  20.884  10.656
 1197POPC   NC326289  23.890  18.152  17.952
 1197POPC   PO426290  23.736  18.058  17.865
 1197POPC   GL126291  23.582  17.964  17.778
 1197POPC   GL226292  23.574  18.039  17.713
 1197POPC   C1A26293  23.429  17.870  17.691
 1197POPC   D2A26294  23.275  17.777  17.603
 1197POPC   C3A26295  23.122  17.683  17.516
 1197POPC   C4A26296  22.968  17.589  17.429
 1197POPC   C1B26297  23.556  17.778  17.567
 1197POPC   C2B26298  23.402  17.684  17.479
 1197POPC   C3B26299  23.248  17.590  17.392
 1197POPC   C4B26300  23.095  17.496  17.305
 1198POPC   NC326301   4.980  25.559  17.665
 1198POPC   PO426302   5.035  25.385  17.583
 1198POPC   GL126303   5.090  25.211  17.501
 1198POPC   GL226304   5.178  25.217  17.548
 1198POPC   C1A26305   5.145  25.037  17.419
 1198POPC   D2A26306   5.201  24.863  17.338
 1198POPC   C3A26307   5.256  24.689  17.256
 1198POPC   C4A26308   5.311  24.515  17.174
 1198POPC   C1B26309   5.069  24.939  17.576
 1198POPC   C2B26310   5.124  24.765  17.494
 1198POPC   C3B26311   5.179  24.591  17.412
 1198POPC   C4B26312   5.234  24.417  17.331
 1199POPC   NC326313  10.407  27.485   5.554
 1199POPC   PO426314  10.399  27.291   5.601
 1199POPC   GL126315  10.391  27.097   5.648
 1199POPC   GL226316  10.468  27.108   5.710
 1199POPC   C1A26317  10.383  26.902   5.694
 1199POPC   D2A26318  10.374  26.708   5.741
 1199POPC   C3A26319  10.366  26.513   5.787
 1199POPC   C4A26320  10.358  26.319   5.834
 1199POPC   C1B26321  10.257  26.943   5.844
 1199POPC   C2B26322  10.248  26.749   5.891
 1199POPC   C3B26323  10.240  26.555   5.937
 1199POPC   C4B26324  10.232  26.360   5.984
 1200POPC   NC326325  -7.810  13.500   8.641
 1200POPC   PO426326  -7.615  13.463   8.661
 1200POPC   GL126327  -7.420  13.426   8.681
 1200POPC   GL226328  -7.441  13.336   8.719
 1200POPC   C1A26329  -7.224  13.388   8.701
 1200POPC   D2A26330  -7.029  13.351   8.722
 1200POPC   C3A26331  -6.833  13.313   8.742
 1200POPC   C4A26332  -6.638  13.276   8.762
 1200POPC   C1B26333  -7.220  13.309   8.518
 1200POPC   C2B26334  -7.025  13.272   8.538
 1200POPC   C3B26335  -6.830  13.234   8.558
 1200POPC   C4B26336  -6.634  13.197   8.578
 1201POPC   NC326337  11.047  -2.343  22.992
 1201POPC   PO426338  11.027  -2.203  22.850
 1201POPC   GL126339  11.007  -2.063  22.708
 1201POPC   GL226340  11.015  -2.134  22.638
 1201POPC   C1A26341  10.987  -1.924  22.566
 1201POPC   D2A26342  10.968  -1.784  22.425
 1201POPC   C3A26343  10.948  -1.645  22.283
 1201POPC   C4A26344  10.928  -1.505  22.141
 1201POPC   C1B26345  10.789  -1.948  22.570
 1201POPC   C2B26346  10.769  -1.809  22.428
 1201POPC   C3B26347  10.749  -1.669  22.286
 1201POPC   C4B26348  10.730  -1.530  22.145
 1202POPC   NC326349  15.549  26.834  13.092
 1202POPC   PO426350  15.483  26.648  13.057
 1202POPC   GL126351  15.417  26.462  13.022
 1202POPC   GL226352  15.457  26.432  13.109
 1202POPC   C1A26353  15.351  26.277  12.987
 1202POPC   D2A26354  15.286  26.091  12.953
 1202POPC   C3A26355  15.220  25.906  12.918
 1202POPC   C4A26356  15.154  25.720  12.883
 1202POPC   C1B26357  15.180  26.320  13.081
 1202POPC   C2B26358  15.114  26.134  13.047
 1202POPC   C3B26359  15.049  25.949  13.012
 1202POPC   C4B26360  14.983  25.763  12.977
 1203POPC   NC326361  21.065  22.369   3.154
 1203POPC   PO426362  20.940  22.235   3.235
 1203POPC   GL126363  20.815  22.101   3.316
 1203POPC   GL226364  20.862  22.028   3.266
 1203POPC   C1A26365  20.691  21.967   3.397
 1203POPC   D2A26366  20.566  21.834   3.478
 1203POPC   C3A26367  20.442  21.700   3.559
 1203POPC   C4A26368  20.317  21.566   3.640
 1203POPC   C1B26369  20.817  21.943   3.550
 1203POPC   C2B26370  20.692  21.809   3.631
 1203POPC   C3B26371  20.568  21.675   3.712
 1203POPC   C4B26372  20.443  21.541   3.793
 1204POPC   NC326373   6.894  12.819  -7.667
 1204POPC   PO426374   6.926  12.790  -7.472
 1204POPC   GL126375   6.958  12.761  -7.277
 1204POPC   GL226376   6.860  12.773  -7.259
 1204POPC   C1A26377   6.990  12.732  -7.081
 1204POPC   D2A26378   7.022  12.704  -6.886
 1204POPC   C3A26379   7.054  12.675  -6.690
 1204POPC   C4A26380   7.086  12.646  -6.495
 1204POPC   C1B26381   6.963  12.536  -7.106
 1204POPC   C2B26382   6.995  12.507  -6.910
 1204POPC   C3B26383   7.027  12.478  -6.715
 1204POPC   C4B26384   7.059  12.449  -6.520
 1205POPC   NC326385   1.733   5.448  25.400
 1205POPC   PO426386   1.826   5.501  25.231
 1205POPC   GL126387   1.919   5.554  25.062
 1205POPC   GL226388   1.940   5.458  25.044
 1205POPC   C1A26389   2.012   5.607  24.893
 1205POPC   D2A26390   2.105   5.660  24.724
 1205POPC   C3A26391   2.198   5.713  24.555
 1205POPC   C4A26392   2.291   5.766  24.386
 1205POPC   C1B26393   1.840   5.588  24.792
 1205POPC   C2B26394   1.933   5.641  24.623
 1205POPC   C3B26395   2.026   5.694  24.454
 1205POPC   C4B26396   2.119   5.747  24.285
 1206POPC   NC326397  25.647   1.342  11.497
 1206POPC   PO426398  25.471   1.435  11.482
 1206POPC   GL126399  25.295   1.528  11.467
 1206POPC   GL226400  25.338   1.601  11.412
 1206POPC   C1A26401  25.119   1.622  11.451
 1206POPC   D2A26402  24.942   1.715  11.436
 1206POPC   C3A26403  24.766   1.809  11.420
 1206POPC   C4A26404  24.590   1.902  11.405
 1206POPC   C1B26405  25.079   1.520  11.284
 1206POPC   C2B26406  24.903   1.613  11.268
 1206POPC   C3B26407  24.727   1.707  11.253
 1206POPC   C4B26408  24.551   1.800  11.237
 1207POPC   NC326409   5.049  17.227  25.846
 1207POPC   PO426410   5.102  17.145  25.671
 1207POPC   GL126411   5.155  17.063  25.496
 1207POPC   GL226412   5.242  17.033  25.536
 1207POPC   C1A26413   5.208  16.981  25.322
 1207POPC   D2A26414   5.260  16.898  25.147
 1207POPC   C3A26415   5.313  16.816  24.973
 1207POPC   C4A26416   5.366  16.734  24.798
 1207POPC   C1B26417   5.123  16.808  25.377
 1207POPC   C2B26418   5.176  16.726  25.203
 1207POPC   C3B26419   5.229  16.644  25.028
 1207POPC   C4B26420   5.282  16.561  24.854
 1208POPC   NC326421  -4.488  12.841  20.489
 1208POPC   PO426422  -4.329  12.815  20.370
 1208POPC   GL126423  -4.170  12.789  20.251
 1208POPC   GL226424  -4.119  12.750  20.328
 1208POPC   C1A26425  -4.011  12.763  20.132
 1208POPC   D2A26426  -3.853  12.736  20.014
 1208POPC   C3A26427  -3.694  12.710  19.895
 1208POPC   C4A26428  -3.535  12.684  19.776
 1208POPC   C1B26429  -4.077  12.580  20.085
 1208POPC   C2B26430  -3.919  12.554  19.966
 1208POPC   C3B26431  -3.760  12.528  19.847
 1208POPC   C4B26432  -3.601  12.501  19.728
 1209POPC   NC326433   6.869  15.211  26.934
 1209POPC   PO426434   6.900  15.163  26.742
 1209POPC   GL126435   6.931  15.115  26.550
 1209POPC   GL226436   6.997  15.046  26.578
 1209POPC   C1A26437   6.962  15.067  26.358
 1209POPC   D2A26438   6.992  15.019  26.167
 1209POPC   C3A26439   7.023  14.971  25.975
 1209POPC   C4A26440   7.054  14.923  25.783
 1209POPC   C1B26441   6.815  14.931  26.369
 1209POPC   C2B26442   6.846  14.883  26.177
 1209POPC   C3B26443   6.877  14.835  25.985
 1209POPC   C4B26444   6.908  14.787  25.793
 1210POPC   NC326445   6.036  -2.103  -2.908
 1210POPC   PO426446   6.079  -1.968  -2.767
 1210POPC   GL126447   6.122  -1.833  -2.626
 1210POPC   GL226448   6.215  -1.868  -2.620
 1210POPC   C1A26449   6.165  -1.697  -2.485
 1210POPC   D2A26450   6.208  -1.562  -2.345
 1210POPC   C3A26451   6.251  -1.426  -2.204
 1210POPC   C4A26452   6.294  -1.291  -2.063
 1210POPC   C1B26453   6.223  -1.569  -2.627
 1210POPC   C2B26454   6.266  -1.433  -2.486
 1210POPC   C3B26455   6.309  -1.298  -2.345
 1210POPC   C4B26456   6.352  -1.162  -2.205
 1211POPC   NC326457  10.025  22.738  22.713
 1211POPC   PO426458  10.024  22.596  22.572
 1211POPC   GL126459  10.023  22.454  22.431
 1211POPC   GL226460  10.112  22.422  22.463
 1211POPC   C1A26461  10.022  22.312  22.290
 1211POPC   D2A26462  10.022  22.170  22.150
 1211POPC   C3A26463  10.021  22.028  22.009
 1211POPC   C4A26464  10.020  21.886  21.868
 1211POPC   C1B26465   9.932  22.187  22.417
 1211POPC   C2B26466   9.931  22.045  22.276
 1211POPC   C3B26467   9.930  21.903  22.136
 1211POPC   C4B26468   9.929  21.761  21.995
 1212POPC   NC326469  26.741   4.914  13.819
 1212POPC   PO426470  26.554   4.971  13.777
 1212POPC   GL126471  26.367   5.028  13.735
 1212POPC   GL226472  26.391   5.123  13.756
 1212POPC   C1A26473  26.180   5.085  13.693
 1212POPC   D2A26474  25.993   5.143  13.650
 1212POPC   C3A26475  25.806   5.200  13.608
 1212POPC   C4A26476  25.619   5.257  13.566
 1212POPC   C1B26477  26.232   5.115  13.502
 1212POPC   C2B26478  26.045   5.172  13.460
 1212POPC   C3B26479  25.858   5.229  13.417
 1212POPC   C4B26480  25.671   5.286  13.375
 1213POPC   NC326481  10.912   7.536  27.814
 1213POPC   PO426482  10.901   7.564  27.616
 1213POPC   GL126483  10.890   7.592  27.418
 1213POPC   GL226484  10.899   7.493  27.404
 1213POPC   C1A26485  10.878   7.620  27.220
 1213POPC   D2A26486  10.867   7.647  27.023
 1213POPC   C3A26487  10.855   7.675  26.825
 1213POPC   C4A26488  10.844   7.703  26.627
 1213POPC   C1B26489  10.680   7.598  27.229
 1213POPC   C2B26490  10.668   7.626  27.031
 1213POPC   C3B26491  10.657   7.654  26.833
 1213POPC   C4B26492  10.645   7.682  26.635
 1214POPC   NC326493  27.149  14.603   7.428
 1214POPC   PO426494  26.959  14.548   7.455
 1214POPC   GL126495  26.769  14.493   7.482
 1214POPC   GL226496  26.754  14.495   7.383
 1214POPC   C1A26497  26.578  14.439   7.509
 1214POPC   D2A26498  26.388  14.384   7.536
 1214POPC   C3A26499  26.197  14.330   7.563
 1214POPC   C4A26500  26.007  14.275   7.590
 1214POPC   C1B26501  26.632  14.246   7.499
 1214POPC   C2B26502  26.442  14.192   7.526
 1214POPC   C3B26503  26.251  14.137   7.553
 1214POPC   C4B26504  26.061  14.083   7.580
 1215POPC   NC326505  -5.384   1.171   6.080
 1215POPC   PO426506  -5.214   1.267   6.122
 1215POPC   GL126507  -5.044   1.363   6.164
 1215POPC   GL226508  -5.043   1.322   6.255
 1215POPC   C1A26509  -4.874   1.460   6.206
 1215POPC   D2A26510  -4.703   1.556   6.247
 1215POPC   C3A26511  -4.533   1.653   6.289
 1215POPC   C4A26512  -4.363   1.749   6.331
 1215POPC   C1B26513  -4.768   1.305   6.135
 1215POPC   C2B26514  -4.598   1.401   6.177
 1215POPC   C3B26515  -4.428   1.498   6.218
 1215POPC   C4B26516  -4.258   1.594   6.260
 1216POPC   NC326517  21.976  -3.387  10.740
 1216POPC   PO426518  21.843  -3.238  10.730
 1216POPC   GL126519  21.710  -3.089  10.720
 1216POPC   GL226520  21.773  -3.029  10.769
 1216POPC   C1A26521  21.576  -2.941  10.710
 1216POPC   D2A26522  21.443  -2.792  10.701
 1216POPC   C3A26523  21.309  -2.644  10.691
 1216POPC   C4A26524  21.176  -2.495  10.681
 1216POPC   C1B26525  21.655  -2.882  10.536
 1216POPC   C2B26526  21.522  -2.733  10.527
 1216POPC   C3B26527  21.388  -2.584  10.517
 1216POPC   C4B26528  21.255  -2.436  10.507
 1217POPC   NC326529   9.064  27.577   5.926
 1217POPC   PO426530   9.070  27.382   5.969
 1217POPC   GL126531   9.076  27.187   6.012
 1217POPC   GL226532   9.098  27.208   6.107
 1217POPC   C1A26533   9.082  26.991   6.054
 1217POPC   D2A26534   9.087  26.796   6.097
 1217POPC   C3A26535   9.093  26.600   6.139
 1217POPC   C4A26536   9.099  26.405   6.182
 1217POPC   C1B26537   8.887  26.995   6.099
 1217POPC   C2B26538   8.893  26.800   6.142
 1217POPC   C3B26539   8.898  26.604   6.184
 1217POPC   C4B26540   8.904  26.409   6.227
 1218POPC   NC326541  25.932   4.170   4.009
 1218POPC   PO426542  25.753   4.234   4.072
 1218POPC   GL126543  25.574   4.298   4.135
 1218POPC   GL226544  25.562   4.349   4.050
 1218POPC   C1A26545  25.396   4.362   4.198
 1218POPC   D2A26546  25.217   4.427   4.262
 1218POPC   C3A26547  25.039   4.491   4.325
 1218POPC   C4A26548  24.860   4.555   4.388
 1218POPC   C1B26549  25.309   4.202   4.116
 1218POPC   C2B26550  25.130   4.267   4.179
 1218POPC   C3B26551  24.952   4.331   4.242
 1218POPC   C4B26552  24.773   4.395   4.305
 1219POPC   NC326553   8.191  21.335  23.861
 1219POPC   PO426554   8.213  21.206  23.710
 1219POPC   GL126555   8.235  21.077  23.559
 1219POPC   GL226556   8.331  21.104  23.550
 1219POPC   C1A26557   8.257  20.948  23.408
 1219POPC   D2A26558   8.279  20.819  23.256
 1219POPC   C3A26559   8.301  20.690  23.105
 1219POPC   C4A26560   8.323  20.561  22.954
 1219POPC   C1B26561   8.310  20.805  23.537
 1219POPC   C2B26562   8.332  20.676  23.386
 1219POPC   C3B26563   8.354  20.547  23.235
 1219POPC   C4B26564   8.376  20.418  23.084
 1220POPC   NC326565   8.147  -7.941  10.679
 1220POPC   PO426566   8.165  -7.742  10.672
 1220POPC   GL126567   8.183  -7.543  10.665
 1220POPC   GL226568   8.278  -7.552  10.637
 1220POPC   C1A26569   8.200  -7.344  10.657
 1220POPC   D2A26570   8.218  -7.145  10.650
 1220POPC   C3A26571   8.235  -6.946  10.642
 1220POPC   C4A26572   8.253  -6.747  10.635
 1220POPC   C1B26573   8.144  -7.346  10.465
 1220POPC   C2B26574   8.162  -7.147  10.458
 1220POPC   C3B26575   8.180  -6.948  10.450
 1220POPC   C4B26576   8.197  -6.749  10.443
 1221POPC   NC326577  10.123  -1.366  23.977
 1221POPC   PO426578  10.116  -1.238  23.823
 1221POPC   GL126579  10.109  -1.110  23.669
 1221POPC   GL226580  10.187  -1.060  23.708
 1221POPC   C1A26581  10.103  -0.982  23.516
 1221POPC   D2A26582  10.096  -0.855  23.362
 1221POPC   C3A26583  10.090  -0.727  23.209
 1221POPC   C4A26584  10.083  -0.599  23.055
 1221POPC   C1B26585  10.229  -1.099  23.414
 1221POPC   C2B26586  10.223  -0.971  23.260
 1221POPC   C3B26587  10.216  -0.843  23.106
 1221POPC   C4B26588  10.210  -0.715  22.953
 1222POPC   NC326589  17.385  -2.632  -0.577
 1222POPC   PO426590  17.303  -2.492  -0.460
 1222POPC   GL126591  17.221  -2.352  -0.343
 1222POPC   GL226592  17.230  -2.285  -0.416
 1222POPC   C1A26593  17.138  -2.212  -0.226
 1222POPC   D2A26594  17.056  -2.073  -0.109
 1222POPC   C3A26595  16.973  -1.933   0.008
 1222POPC   C4A26596  16.891  -1.793   0.125
 1222POPC   C1B26597  16.957  -2.262  -0.295
 1222POPC   C2B26598  16.875  -2.122  -0.178
 1222POPC   C3B26599  16.792  -1.982  -0.061
 1222POPC   C4B26600  16.710  -1.842   0.056
 1223POPC   NC326601  17.019  25.937   5.566
 1223POPC   PO426602  16.940  25.759   5.612
 1223POPC   GL126603  16.861  25.581   5.658
 1223POPC   GL226604  16.933  25.536   5.605
 1223POPC   C1A26605  16.783  25.403   5.705
 1223POPC   D2A26606  16.704  25.225   5.751
 1223POPC   C3A26607  16.626  25.047   5.798
 1223POPC   C4A26608  16.547  24.869   5.844
 1223POPC   C1B26609  16.898  25.394   5.868
 1223POPC   C2B26610  16.820  25.216   5.914
 1223POPC   C3B26611  16.741  25.038   5.961
 1223POPC   C4B26612  16.663  24.860   6.007
 1224POPC   NC326613  24.326  19.385   4.806
 1224POPC   PO426614  24.165  19.279   4.858
 1224POPC   GL126615  24.004  19.173   4.910
 1224POPC   GL226616  23.991  19.145   4.815
 1224POPC   C1A26617  23.842  19.067   4.962
 1224POPC   D2A26618  23.681  18.961   5.015
 1224POPC   C3A26619  23.519  18.855   5.067
 1224POPC   C4A26620  23.358  18.749   5.119
 1224POPC   C1B26621  23.958  18.907   4.995
 1224POPC   C2B26622  23.796  18.801   5.047
 1224POPC   C3B26623  23.635  18.695   5.099
 1224POPC   C4B26624  23.474  18.589   5.151
 1225POPC   NC326625  24.934  10.640  19.875
 1225POPC   PO426626  24.767  10.636  19.764
 1225POPC   GL126627  24.600  10.632  19.653
 1225POPC   GL226628  24.647  10.683  19.581
 1225POPC   C1A26629  24.434  10.629  19.543
 1225POPC   D2A26630  24.267  10.625  19.432
 1225POPC   C3A26631  24.101  10.622  19.322
 1225POPC   C4A26632  23.934  10.618  19.211
 1225POPC   C1B26633  24.493  10.457  19.459
 1225POPC   C2B26634  24.326  10.453  19.349
 1225POPC   C3B26635  24.160  10.450  19.238
 1225POPC   C4B26636  23.993  10.446  19.127
 1226POPC   NC326637  14.521   0.733  24.748
 1226POPC   PO426638  14.471   0.840  24.587
 1226POPC   GL126639  14.421   0.947  24.426
 1226POPC   GL226640  14.517   0.954  24.400
 1226POPC   C1A26641  14.370   1.054  24.265
 1226POPC   D2A26642  14.320   1.161  24.103
 1226POPC   C3A26643  14.269   1.268  23.942
 1226POPC   C4A26644  14.219   1.375  23.781
 1226POPC   C1B26645  14.354   0.886  24.158
 1226POPC   C2B26646  14.303   0.993  23.997
 1226POPC   C3B26647  14.253   1.100  23.836
 1226POPC   C4B26648  14.202   1.207  23.674
 1227POPC   NC326649  20.485  13.547  -4.227
 1227POPC   PO426650  20.368  13.508  -4.070
 1227POPC   GL126651  20.251  13.469  -3.913
 1227POPC   GL226652  20.174  13.450  -3.974
 1227POPC   C1A26653  20.134  13.429  -3.756
 1227POPC   D2A26654  20.016  13.390  -3.598
 1227POPC   C3A26655  19.899  13.350  -3.441
 1227POPC   C4A26656  19.782  13.311  -3.284
 1227POPC   C1B26657  20.188  13.237  -3.763
 1227POPC   C2B26658  20.071  13.197  -3.606
 1227POPC   C3B26659  19.954  13.158  -3.449
 1227POPC   C4B26660  19.836  13.119  -3.292
 1228POPC   NC326661  12.656   5.701  -7.393
 1228POPC   PO426662  12.629   5.753  -7.202
 1228POPC   GL126663  12.602   5.805  -7.011
 1228POPC   GL226664  12.559   5.890  -7.040
 1228POPC   C1A26665  12.576   5.856  -6.819
 1228POPC   D2A26666  12.549   5.908  -6.628
 1228POPC   C3A26667  12.523   5.959  -6.436
 1228POPC   C4A26668  12.496   6.011  -6.245
 1228POPC   C1B26669  12.398   5.764  -6.819
 1228POPC   C2B26670  12.371   5.816  -6.628
 1228POPC   C3B26671  12.345   5.868  -6.436
 1228POPC   C4B26672  12.318   5.919  -6.245
 1229POPC   NC326673  13.385  -7.280   5.778
 1229POPC   PO426674  13.341  -7.091   5.824
 1229POPC   GL126675  13.297  -6.902   5.870
 1229POPC   GL226676  13.292  -6.879   5.773
 1229POPC   C1A26677  13.253  -6.712   5.917
 1229POPC   D2A26678  13.208  -6.523   5.963
 1229POPC   C3A26679  13.164  -6.333   6.010
 1229POPC   C4A26680  13.120  -6.144   6.056
 1229POPC   C1B26681  13.058  -6.757   5.915
 1229POPC   C2B26682  13.014  -6.568   5.961
 1229POPC   C3B26683  12.969  -6.379   6.008
 1229POPC   C4B26684  12.925  -6.189   6.054
 1230POPC   NC326685  13.938  -7.644   9.712
 1230POPC   PO426686  13.891  -7.450   9.714
 1230POPC   GL126687  13.844  -7.256   9.716
 1230POPC   GL226688  13.904  -7.242   9.796
 1230POPC   C1A26689  13.798  -7.061   9.718
 1230POPC   D2A26690  13.751  -6.867   9.721
 1230POPC   C3A26691  13.705  -6.672   9.723
 1230POPC   C4A26692  13.658  -6.478   9.725
 1230POPC   C1B26693  13.952  -7.023   9.597
 1230POPC   C2B26694  13.905  -6.829   9.599
 1230POPC   C3B26695  13.859  -6.634   9.601
 1230POPC   C4B26696  13.812  -6.440   9.604
 1231POPC   NC326697  15.680   6.927  -6.838
 1231POPC   PO426698  15.608   6.962  -6.654
 1231POPC   GL126699  15.536   6.997  -6.470
 1231POPC   GL226700  15.445   7.011  -6.509
 1231POPC   C1A26701  15.465   7.031  -6.287
 1231POPC   D2A26702  15.393   7.066  -6.103
 1231POPC   C3A26703  15.322   7.100  -5.920
 1231POPC   C4A26704  15.250   7.135  -5.736
 1231POPC   C1B26705  15.425   6.836  -6.266
 1231POPC   C2B26706  15.353   6.871  -6.082
 1231POPC   C3B26707  15.282   6.906  -5.898
 1231POPC   C4B26708  15.210   6.940  -5.715
 1232POPC   NC326709   9.841  -4.471  20.749
 1232POPC   PO426710   9.838  -4.313  20.627
 1232POPC   GL126711   9.835  -4.155  20.505
 1232POPC   GL226712   9.903  -4.199  20.446
 1232POPC   C1A26713   9.832  -3.997  20.382
 1232POPC   D2A26714   9.829  -3.838  20.260
 1232POPC   C3A26715   9.826  -3.680  20.137
 1232POPC   C4A26716   9.823  -3.522  20.015
 1232POPC   C1B26717   9.685  -4.081  20.276
 1232POPC   C2B26718   9.682  -3.923  20.154
 1232POPC   C3B26719   9.679  -3.765  20.031
 1232POPC   C4B26720   9.676  -3.607  19.909
 1233POPC   NC326721  -1.770   9.978  -3.801
 1233POPC   PO426722  -1.642   9.976  -3.647
 1233POPC   GL126723  -1.514   9.974  -3.493
 1233POPC   GL226724  -1.538  10.068  -3.472
 1233POPC   C1A26725  -1.386   9.972  -3.339
 1233POPC   D2A26726  -1.258   9.969  -3.186
 1233POPC   C3A26727  -1.130   9.967  -3.032
 1233POPC   C4A26728  -1.002   9.965  -2.878
 1233POPC   C1B26729  -1.532   9.906  -3.219
 1233POPC   C2B26730  -1.404   9.904  -3.065
 1233POPC   C3B26731  -1.276   9.902  -2.911
 1233POPC   C4B26732  -1.148   9.900  -2.758
 1234POPC   NC326733  26.448   5.656   4.216
 1234POPC   PO426734  26.263   5.701   4.276
 1234POPC   GL126735  26.078   5.746   4.336
 1234POPC   GL226736  26.045   5.658   4.304
 1234POPC   C1A26737  25.893   5.791   4.397
 1234POPC   D2A26738  25.707   5.837   4.457
 1234POPC   C3A26739  25.522   5.882   4.518
 1234POPC   C4A26740  25.337   5.927   4.578
 1234POPC   C1B26741  25.931   5.711   4.576
 1234POPC   C2B26742  25.746   5.756   4.636
 1234POPC   C3B26743  25.561   5.801   4.697
 1234POPC   C4B26744  25.376   5.846   4.757
 1235POPC   NC326745   6.675  -6.014  17.698
 1235POPC   PO426746   6.709  -5.836  17.612
 1235POPC   GL126747   6.743  -5.658  17.526
 1235POPC   GL226748   6.799  -5.703  17.457
 1235POPC   C1A26749   6.777  -5.481  17.440
 1235POPC   D2A26750   6.810  -5.303  17.355
 1235POPC   C3A26751   6.844  -5.126  17.269
 1235POPC   C4A26752   6.878  -4.948  17.183
 1235POPC   C1B26753   6.615  -5.505  17.325
 1235POPC   C2B26754   6.649  -5.328  17.240
 1235POPC   C3B26755   6.682  -5.150  17.154
 1235POPC   C4B26756   6.716  -4.973  17.068
 1236POPC   NC326757  -4.574  20.879  10.079
 1236POPC   PO426758  -4.416  20.757  10.074
 1236POPC   GL126759  -4.258  20.635  10.069
 1236POPC   GL226760  -4.197  20.714  10.062
 1236POPC   C1A26761  -4.099  20.513  10.064
 1236POPC   D2A26762  -3.941  20.391  10.059
 1236POPC   C3A26763  -3.782  20.269  10.054
 1236POPC   C4A26764  -3.624  20.147  10.049
 1236POPC   C1B26765  -4.086  20.521  10.263
 1236POPC   C2B26766  -3.928  20.399  10.258
 1236POPC   C3B26767  -3.770  20.277  10.253
 1236POPC   C4B26768  -3.611  20.155  10.248
 1237POPC   NC326769  26.924  10.929  15.769
 1237POPC   PO426770  26.734  10.913  15.707
 1237POPC   GL126771  26.544  10.897  15.645
 1237POPC   GL226772  26.561  10.802  15.619
 1237POPC   C1A26773  26.355  10.880  15.583
 1237POPC   D2A26774  26.165  10.864  15.522
 1237POPC   C3A26775  25.976  10.847  15.460
 1237POPC   C4A26776  25.786  10.831  15.398
 1237POPC   C1B26777  26.300  10.820  15.766
 1237POPC   C2B26778  26.111  10.804  15.705
 1237POPC   C3B26779  25.921  10.788  15.643
 1237POPC   C4B26780  25.732  10.771  15.581
 1238POPC   NC326781   3.364  -5.859   4.171
 1238POPC   PO426782   3.434  -5.682   4.233
 1238POPC   GL126783   3.504  -5.505   4.295
 1238POPC   GL226784   3.517  -5.543   4.387
 1238POPC   C1A26785   3.574  -5.328   4.358
 1238POPC   D2A26786   3.643  -5.152   4.420
 1238POPC   C3A26787   3.713  -4.975   4.483
 1238POPC   C4A26788   3.783  -4.798   4.545
 1238POPC   C1B26789   3.759  -5.385   4.309
 1238POPC   C2B26790   3.829  -5.208   4.372
 1238POPC   C3B26791   3.899  -5.031   4.434
 1238POPC   C4B26792   3.969  -4.854   4.496
 1239POPC   NC326793  24.721   8.328  19.985
 1239POPC   PO426794  24.556   8.351  19.874
 1239POPC   GL126795  24.391   8.374  19.763
 1239POPC   GL226796  24.442   8.346  19.682
 1239POPC   C1A26797  24.226   8.396  19.653
 1239POPC   D2A26798  24.060   8.419  19.542
 1239POPC   C3A26799  23.895   8.441  19.432
 1239POPC   C4A26800  23.730   8.464  19.321
 1239POPC   C1B26801  24.177   8.205  19.686
 1239POPC   C2B26802  24.012   8.228  19.576
 1239POPC   C3B26803  23.847   8.250  19.465
 1239POPC   C4B26804  23.681   8.273  19.355
 1240POPC   NC326805   5.150  -3.762  -0.794
 1240POPC   PO426806   5.201  -3.611  -0.673
 1240POPC   GL126807   5.252  -3.460  -0.552
 1240POPC   GL226808   5.247  -3.521  -0.473
 1240POPC   C1A26809   5.302  -3.309  -0.431
 1240POPC   D2A26810   5.353  -3.158  -0.310
 1240POPC   C3A26811   5.403  -3.007  -0.189
 1240POPC   C4A26812   5.454  -2.856  -0.068
 1240POPC   C1B26813   5.495  -3.355  -0.455
 1240POPC   C2B26814   5.546  -3.204  -0.334
 1240POPC   C3B26815   5.597  -3.053  -0.213
 1240POPC   C4B26816   5.647  -2.902  -0.092
 1241POPC   NC326817  15.212  27.214  10.590
 1241POPC   PO426818  15.147  27.025  10.585
 1241POPC   GL126819  15.082  26.836  10.580
 1241POPC   GL226820  15.060  26.846  10.483
 1241POPC   C1A26821  15.018  26.647  10.575
 1241POPC   D2A26822  14.953  26.457  10.571
 1241POPC   C3A26823  14.889  26.268  10.566
 1241POPC   C4A26824  14.824  26.079  10.561
 1241POPC   C1B26825  15.202  26.585  10.528
 1241POPC   C2B26826  15.137  26.396  10.523
 1241POPC   C3B26827  15.073  26.206  10.518
 1241POPC   C4B26828  15.008  26.017  10.513
 1242POPC   NC326829  19.335  13.845  -4.952
 1242POPC   PO426830  19.227  13.802  -4.789
 1242POPC   GL126831  19.119  13.759  -4.626
 1242POPC   GL226832  19.037  13.790  -4.672
 1242POPC   C1A26833  19.012  13.715  -4.463
 1242POPC   D2A26834  18.904  13.672  -4.300
 1242POPC   C3A26835  18.797  13.628  -4.137
 1242POPC   C4A26836  18.689  13.585  -3.974
 1242POPC   C1B26837  18.981  13.530  -4.532
 1242POPC   C2B26838  18.874  13.487  -4.369
 1242POPC   C3B26839  18.766  13.443  -4.206
 1242POPC   C4B26840  18.659  13.400  -4.043
 1243POPC   NC326841  21.632  -1.355   2.226
 1243POPC   PO426842  21.502  -1.231   2.313
 1243POPC   GL126843  21.372  -1.107   2.400
 1243POPC   GL226844  21.439  -1.033   2.396
 1243POPC   C1A26845  21.242  -0.982   2.487
 1243POPC   D2A26846  21.111  -0.858   2.574
 1243POPC   C3A26847  20.981  -0.733   2.661
 1243POPC   C4A26848  20.851  -0.609   2.748
 1243POPC   C1B26849  21.173  -0.929   2.307
 1243POPC   C2B26850  21.042  -0.804   2.394
 1243POPC   C3B26851  20.912  -0.680   2.481
 1243POPC   C4B26852  20.782  -0.555   2.568
 1244POPC   NC326853  -5.270  18.231  15.402
 1244POPC   PO426854  -5.105  18.135  15.341
 1244POPC   GL126855  -4.940  18.039  15.280
 1244POPC   GL226856  -4.932  17.996  15.370
 1244POPC   C1A26857  -4.775  17.944  15.219
 1244POPC   D2A26858  -4.611  17.848  15.158
 1244POPC   C3A26859  -4.446  17.753  15.097
 1244POPC   C4A26860  -4.281  17.657  15.036
 1244POPC   C1B26861  -4.888  17.791  15.156
 1244POPC   C2B26862  -4.723  17.695  15.095
 1244POPC   C3B26863  -4.558  17.600  15.034
 1244POPC   C4B26864  -4.393  17.504  14.973
 1245POPC   NC326865   0.869   4.825  -4.879
 1245POPC   PO426866   0.972   4.885  -4.719
 1245POPC   GL126867   1.075   4.945  -4.559
 1245POPC   GL226868   1.148   4.880  -4.581
 1245POPC   C1A26869   1.178   5.005  -4.398
 1245POPC   D2A26870   1.282   5.064  -4.238
 1245POPC   C3A26871   1.385   5.124  -4.077
 1245POPC   C4A26872   1.488   5.184  -3.917
 1245POPC   C1B26873   1.269   5.145  -4.509
 1245POPC   C2B26874   1.372   5.205  -4.348
 1245POPC   C3B26875   1.475   5.264  -4.188
 1245POPC   C4B26876   1.578   5.324  -4.027
 1246POPC   NC326877  20.423  24.479   8.012
 1246POPC   PO426878  20.313  24.313   8.028
 1246POPC   GL126879  20.203  24.147   8.044
 1246POPC   GL226880  20.251  24.107   7.966
 1246POPC   C1A26881  20.092  23.981   8.060
 1246POPC   D2A26882  19.982  23.815   8.075
 1246POPC   C3A26883  19.871  23.649   8.091
 1246POPC   C4A26884  19.761  23.483   8.107
 1246POPC   C1B26885  20.227  23.903   8.185
 1246POPC   C2B26886  20.117  23.737   8.201
 1246POPC   C3B26887  20.006  23.571   8.216
 1246POPC   C4B26888  19.896  23.405   8.232
 1247POPC   NC326889  15.416  14.371  26.581
 1247POPC   PO426890  15.359  14.319  26.397
 1247POPC   GL126891  15.302  14.267  26.213
 1247POPC   GL226892  15.349  14.347  26.175
 1247POPC   C1A26893  15.245  14.215  26.028
 1247POPC   D2A26894  15.188  14.162  25.844
 1247POPC   C3A26895  15.131  14.110  25.659
 1247POPC   C4A26896  15.074  14.058  25.475
 1247POPC   C1B26897  15.412  14.106  26.007
 1247POPC   C2B26898  15.355  14.054  25.823
 1247POPC   C3B26899  15.298  14.002  25.638
 1247POPC   C4B26900  15.241  13.950  25.454
 1248POPC   NC326901   7.773  24.238  20.834
 1248POPC   PO426902   7.798  24.083  20.711
 1248POPC   GL126903   7.823  23.928  20.588
 1248POPC   GL226904   7.910  23.906  20.633
 1248POPC   C1A26905   7.849  23.772  20.465
 1248POPC   D2A26906   7.874  23.617  20.341
 1248POPC   C3A26907   7.900  23.461  20.218
 1248POPC   C4A26908   7.925  23.306  20.095
 1248POPC   C1B26909   7.752  23.654  20.594
 1248POPC   C2B26910   7.777  23.499  20.470
 1248POPC   C3B26911   7.803  23.343  20.347
 1248POPC   C4B26912   7.828  23.188  20.224
 1249POPC   NC326913  21.336  -2.054   2.847
 1249POPC   PO426914  21.209  -1.921   2.926
 1249POPC   GL126915  21.082  -1.788   3.005
 1249POPC   GL226916  21.150  -1.716   2.994
 1249POPC   C1A26917  20.954  -1.656   3.083
 1249POPC   D2A26918  20.827  -1.523   3.162
 1249POPC   C3A26919  20.699  -1.391   3.240
 1249POPC   C4A26920  20.572  -1.258   3.319
 1249POPC   C1B26921  20.884  -1.615   2.900
 1249POPC   C2B26922  20.756  -1.483   2.979
 1249POPC   C3B26923  20.629  -1.350   3.058
 1249POPC   C4B26924  20.502  -1.217   3.136
 1250POPC   NC326925   9.447  19.309  -5.540
 1250POPC   PO426926   9.449  19.205  -5.369
 1250POPC   GL126927   9.451  19.101  -5.198
 1250POPC   GL226928   9.551  19.104  -5.198
 1250POPC   C1A26929   9.453  18.998  -5.027
 1250POPC   D2A26930   9.456  18.894  -4.856
 1250POPC   C3A26931   9.458  18.791  -4.685
 1250POPC   C4A26932   9.460  18.687  -4.514
 1250POPC   C1B26933   9.448  19.169  -4.923
 1250POPC   C2B26934   9.450  19.065  -4.752
 1250POPC   C3B26935   9.453  18.962  -4.581
 1250POPC   C4B26936   9.455  18.858  -4.410
 1251POPC   NC326937   9.049  24.772  20.312
 1251POPC   PO426938   9.059  24.609  20.196
 1251POPC   GL126939   9.069  24.446  20.080
 1251POPC   GL226940   9.145  24.412  20.135
 1251POPC   C1A26941   9.079  24.283  19.964
 1251POPC   D2A26942   9.088  24.121  19.849
 1251POPC   C3A26943   9.098  23.958  19.733
 1251POPC   C4A26944   9.108  23.795  19.617
 1251POPC   C1B26945   8.950  24.189  20.086
 1251POPC   C2B26946   8.960  24.026  19.970
 1251POPC   C3B26947   8.970  23.864  19.854
 1251POPC   C4B26948   8.980  23.701  19.738
 1252POPC   NC326949  11.714  -7.977   9.887
 1252POPC   PO426950  11.699  -7.778   9.885
 1252POPC   GL126951  11.684  -7.579   9.883
 1252POPC   GL226952  11.707  -7.578   9.785
 1252POPC   C1A26953  11.670  -7.379   9.881
 1252POPC   D2A26954  11.655  -7.180   9.878
 1252POPC   C3A26955  11.641  -6.980   9.876
 1252POPC   C4A26956  11.626  -6.781   9.874
 1252POPC   C1B26957  11.476  -7.394   9.835
 1252POPC   C2B26958  11.461  -7.194   9.833
 1252POPC   C3B26959  11.446  -6.995   9.830
 1252POPC   C4B26960  11.432  -6.796   9.828
 1253POPC   NC326961  -6.484  12.886   2.907
 1253POPC   PO426962  -6.301  12.852   2.980
 1253POPC   GL126963  -6.118  12.818   3.053
 1253POPC   GL226964  -6.153  12.830   3.146
 1253POPC   C1A26965  -5.935  12.785   3.126
 1253POPC   D2A26966  -5.752  12.751   3.200
 1253POPC   C3A26967  -5.569  12.718   3.273
 1253POPC   C4A26968  -5.386  12.684   3.346
 1253POPC   C1B26969  -5.975  12.589   3.136
 1253POPC   C2B26970  -5.792  12.555   3.209
 1253POPC   C3B26971  -5.609  12.522   3.283
 1253POPC   C4B26972  -5.426  12.488   3.356
 1254POPC   NC326973  23.559  20.641   5.174
 1254POPC   PO426974  23.405  20.525   5.225
 1254POPC   GL126975  23.251  20.409   5.276
 1254POPC   GL226976  23.269  20.350   5.198
 1254POPC   C1A26977  23.097  20.292   5.327
 1254POPC   D2A26978  22.942  20.176   5.379
 1254POPC   C3A26979  22.788  20.059   5.430
 1254POPC   C4A26980  22.634  19.943   5.481
 1254POPC   C1B26981  23.218  20.180   5.440
 1254POPC   C2B26982  23.064  20.064   5.491
 1254POPC   C3B26983  22.910  19.947   5.542
 1254POPC   C4B26984  22.756  19.831   5.593
 1255POPC   NC326985  -7.232  13.373   5.436
 1255POPC   PO426986  -7.042  13.335   5.487
 1255POPC   GL126987  -6.852  13.297   5.538
 1255POPC   GL226988  -6.870  13.334   5.630
 1255POPC   C1A26989  -6.663  13.260   5.589
 1255POPC   D2A26990  -6.473  13.222   5.640
 1255POPC   C3A26991  -6.284  13.185   5.691
 1255POPC   C4A26992  -6.094  13.147   5.742
 1255POPC   C1B26993  -6.716  13.077   5.651
 1255POPC   C2B26994  -6.526  13.040   5.702
 1255POPC   C3B26995  -6.336  13.002   5.753
 1255POPC   C4B26996  -6.147  12.964   5.804
 1256POPC   NC326997  10.112  24.535  -0.711
 1256POPC   PO426998  10.113  24.375  -0.591
 1256POPC   GL126999  10.114  24.215  -0.471
 1256POPC   GL227000  10.121  24.155  -0.551
 1256POPC   C1A27001  10.115  24.055  -0.351
 1256POPC   D2A27002  10.115  23.894  -0.232
 1256POPC   C3A27003  10.116  23.734  -0.112
 1256POPC   C4A27004  10.117  23.574   0.008
 1256POPC   C1B27005  10.314  24.063  -0.341
 1256POPC   C2B27006  10.315  23.903  -0.221
 1256POPC   C3B27007  10.316  23.743  -0.101
 1256POPC   C4B27008  10.317  23.583   0.018
 1257POPC   NC327009   7.703  14.685  -7.385
 1257POPC   PO427010   7.725  14.633  -7.193
 1257POPC   GL127011   7.747  14.581  -7.001
 1257POPC   GL227012   7.756  14.677  -6.976
 1257POPC   C1A27013   7.770  14.529  -6.809
 1257POPC   D2A27014   7.792  14.477  -6.618
 1257POPC   C3A27015   7.815  14.425  -6.426
 1257POPC   C4A27016   7.837  14.373  -6.234
 1257POPC   C1B27017   7.572  14.540  -6.783
 1257POPC   C2B27018   7.594  14.488  -6.592
 1257POPC   C3B27019   7.617  14.436  -6.400
 1257POPC   C4B27020   7.639  14.384  -6.208
 1258POPC   NC327021  -6.495   9.717  17.560
 1258POPC   PO427022  -6.313   9.723  17.478
 1258POPC   GL127023  -6.131   9.729  17.396
 1258POPC   GL227024  -6.123   9.630  17.405
 1258POPC   C1A27025  -5.949   9.736  17.313
 1258POPC   D2A27026  -5.766   9.742  17.231
 1258POPC   C3A27027  -5.584   9.749  17.148
 1258POPC   C4A27028  -5.402   9.755  17.066
 1258POPC   C1B27029  -6.030   9.712  17.132
 1258POPC   C2B27030  -5.848   9.719  17.050
 1258POPC   C3B27031  -5.665   9.725  16.967
 1258POPC   C4B27032  -5.483   9.731  16.885
 1259POPC   NC327033  16.652   3.735  -5.575
 1259POPC   PO427034  16.575   3.798  -5.402
 1259POPC   GL127035  16.498   3.861  -5.229
 1259POPC   GL227036  16.551   3.946  -5.236
 1259POPC   C1A27037  16.420   3.925  -5.056
 1259POPC   D2A27038  16.343   3.988  -4.882
 1259POPC   C3A27039  16.265   4.052  -4.709
 1259POPC   C4A27040  16.188   4.115  -4.536
 1259POPC   C1B27041  16.270   4.012  -5.155
 1259POPC   C2B27042  16.193   4.075  -4.981
 1259POPC   C3B27043  16.115   4.139  -4.808
 1259POPC   C4B27044  16.038   4.202  -4.635
 1260POPC   NC327045  27.211  11.309   5.164
 1260POPC   PO427046  27.018  11.299   5.216
 1260POPC   GL127047  26.825  11.289   5.268
 1260POPC   GL227048  26.821  11.195   5.234
 1260POPC   C1A27049  26.632  11.279   5.320
 1260POPC   D2A27050  26.439  11.269   5.371
 1260POPC   C3A27051  26.246  11.259   5.423
 1260POPC   C4A27052  26.053  11.249   5.475
 1260POPC   C1B27053  26.684  11.212   5.501
 1260POPC   C2B27054  26.491  11.202   5.553
 1260POPC   C3B27055  26.298  11.192   5.604
 1260POPC   C4B27056  26.105  11.182   5.656
 1261POPC   NC327057  17.436  -6.052   6.729
 1261POPC   PO427058  17.353  -5.874   6.766
 1261POPC   GL127059  17.270  -5.696   6.803
 1261POPC   GL227060  17.361  -5.653   6.802
 1261POPC   C1A27061  17.187  -5.517   6.839
 1261POPC   D2A27062  17.105  -5.339   6.876
 1261POPC   C3A27063  17.022  -5.160   6.912
 1261POPC   C4A27064  16.939  -4.982   6.949
 1261POPC   C1B27065  17.172  -5.484   6.643
 1261POPC   C2B27066  17.089  -5.306   6.679
 1261POPC   C3B27067  17.006  -5.127   6.716
 1261POPC   C4B27068  16.923  -4.949   6.752
 1262POPC   NC327069   3.186  26.173   5.457
 1262POPC   PO427070   3.268  25.997   5.506
 1262POPC   GL127071   3.350  25.821   5.555
 1262POPC   GL227072   3.321  25.834   5.649
 1262POPC   C1A27073   3.432  25.645   5.603
 1262POPC   D2A27074   3.514  25.470   5.652
 1262POPC   C3A27075   3.596  25.294   5.700
 1262POPC   C4A27076   3.678  25.118   5.749
 1262POPC   C1B27077   3.259  25.553   5.562
 1262POPC   C2B27078   3.341  25.378   5.610
 1262POPC   C3B27079   3.423  25.202   5.659
 1262POPC   C4B27080   3.505  25.026   5.707
 1263POPC   NC327081  -1.429  17.814  21.592
 1263POPC   PO427082  -1.306  17.729  21.459
 1263POPC   GL127083  -1.183  17.644  21.326
 1263POPC   GL227084  -1.104  17.676  21.378
 1263POPC   C1A27085  -1.061  17.559  21.193
 1263POPC   D2A27086  -0.938  17.473  21.060
 1263POPC   C3A27087  -0.816  17.388  20.927
 1263POPC   C4A27088  -0.693  17.303  20.794
 1263POPC   C1B27089  -1.062  17.390  21.300
 1263POPC   C2B27090  -0.939  17.305  21.167
 1263POPC   C3B27091  -0.817  17.219  21.034
 1263POPC   C4B27092  -0.694  17.134  20.901
 1264POPC   NC327093  24.206  -1.000  10.547
 1264POPC   PO427094  24.046  -0.880  10.544
 1264POPC   GL127095  23.886  -0.760  10.541
 1264POPC   GL227096  23.947  -0.680  10.543
 1264POPC   C1A27097  23.727  -0.639  10.538
 1264POPC   D2A27098  23.567  -0.519  10.536
 1264POPC   C3A27099  23.408  -0.398  10.533
 1264POPC   C4A27100  23.248  -0.278  10.530
 1264POPC   C1B27101  23.731  -0.638  10.338
 1264POPC   C2B27102  23.572  -0.517  10.336
 1264POPC   C3B27103  23.412  -0.397  10.333
 1264POPC   C4B27104  23.253  -0.276  10.330
 1265POPC   NC327105  -2.725  21.561   4.121
 1265POPC   PO427106  -2.590  21.429   4.187
 1265POPC   GL127107  -2.455  21.297   4.253
 1265POPC   GL227108  -2.496  21.300   4.344
 1265POPC   C1A27109  -2.320  21.165   4.319
 1265POPC   D2A27110  -2.185  21.033   4.385
 1265POPC   C3A27111  -2.050  20.901   4.451
 1265POPC   C4A27112  -1.915  20.769   4.517
 1265POPC   C1B27113  -2.442  21.015   4.269
 1265POPC   C2B27114  -2.307  20.883   4.335
 1265POPC   C3B27115  -2.172  20.751   4.401
 1265POPC   C4B27116  -2.037  20.619   4.467
 1266POPC   NC327117  10.664  -6.957  16.207
 1266POPC   PO427118  10.656  -6.769  16.139
 1266POPC   GL127119  10.648  -6.581  16.071
 1266POPC   GL227120  10.708  -6.552  16.146
 1266POPC   C1A27121  10.640  -6.393  16.004
 1266POPC   D2A27122  10.632  -6.205  15.936
 1266POPC   C3A27123  10.624  -6.017  15.869
 1266POPC   C4A27124  10.616  -5.829  15.801
 1266POPC   C1B27125  10.799  -6.428  15.888
 1266POPC   C2B27126  10.791  -6.240  15.820
 1266POPC   C3B27127  10.783  -6.052  15.753
 1266POPC   C4B27128  10.775  -5.864  15.685
 1267POPC   NC327129  -3.532  10.533  21.972
 1267POPC   PO427130  -3.382  10.526  21.840
 1267POPC   GL127131  -3.232  10.519  21.708
 1267POPC   GL227132  -3.199  10.608  21.740
 1267POPC   C1A27133  -3.082  10.512  21.576
 1267POPC   D2A27134  -2.931  10.505  21.444
 1267POPC   C3A27135  -2.781  10.498  21.312
 1267POPC   C4A27136  -2.631  10.491  21.180
 1267POPC   C1B27137  -2.967  10.420  21.712
 1267POPC   C2B27138  -2.817  10.413  21.580
 1267POPC   C3B27139  -2.666  10.406  21.448
 1267POPC   C4B27140  -2.516  10.399  21.316
 1268POPC   NC327141  21.453  -2.804   4.595
 1268POPC   PO427142  21.325  -2.662   4.653
 1268POPC   GL127143  21.197  -2.520   4.711
 1268POPC   GL227144  21.168  -2.507   4.616
 1268POPC   C1A27145  21.069  -2.377   4.769
 1268POPC   D2A27146  20.942  -2.235   4.827
 1268POPC   C3A27147  20.814  -2.092   4.885
 1268POPC   C4A27148  20.686  -1.950   4.943
 1268POPC   C1B27149  20.927  -2.515   4.795
 1268POPC   C2B27150  20.799  -2.373   4.853
 1268POPC   C3B27151  20.672  -2.231   4.911
 1268POPC   C4B27152  20.544  -2.088   4.969
 1269POPC   NC327153  11.591  -0.226  -4.825
 1269POPC   PO427154  11.570  -0.113  -4.661
 1269POPC   GL127155  11.549  -0.000  -4.497
 1269POPC   GL227156  11.631   0.052  -4.522
 1269POPC   C1A27157  11.528   0.112  -4.333
 1269POPC   D2A27158  11.507   0.225  -4.169
 1269POPC   C3A27159  11.486   0.337  -4.005
 1269POPC   C4A27160  11.465   0.450  -3.841
 1269POPC   C1B27161  11.414   0.241  -4.436
 1269POPC   C2B27162  11.393   0.353  -4.272
 1269POPC   C3B27163  11.372   0.466  -4.108
 1269POPC   C4B27164  11.351   0.578  -3.944
 1270POPC   NC327165  13.463  27.668   9.236
 1270POPC   PO427166  13.424  27.472   9.243
 1270POPC   GL127167  13.385  27.276   9.250
 1270POPC   GL227168  13.433  27.270   9.338
 1270POPC   C1A27169  13.346  27.080   9.257
 1270POPC   D2A27170  13.308  26.884   9.264
 1270POPC   C3A27171  13.269  26.688   9.271
 1270POPC   C4A27172  13.230  26.492   9.278
 1270POPC   C1B27173  13.175  27.117   9.353
 1270POPC   C2B27174  13.136  26.921   9.360
 1270POPC   C3B27175  13.097  26.725   9.367
 1270POPC   C4B27176  13.059  26.529   9.374
 1271POPC   NC327177  17.902  22.644  -0.045
 1271POPC   PO427178  17.808  22.505   0.064
 1271POPC   GL127179  17.714  22.366   0.173
 1271POPC   GL227180  17.713  22.305   0.094
 1271POPC   C1A27181  17.621  22.227   0.282
 1271POPC   D2A27182  17.527  22.087   0.391
 1271POPC   C3A27183  17.434  21.948   0.500
 1271POPC   C4A27184  17.340  21.809   0.609
 1271POPC   C1B27185  17.798  22.151   0.337
 1271POPC   C2B27186  17.704  22.011   0.446
 1271POPC   C3B27187  17.610  21.872   0.555
 1271POPC   C4B27188  17.517  21.733   0.664
 1272POPC   NC327189   4.365  11.197  26.979
 1272POPC   PO427190   4.421  11.181  26.788
 1272POPC   GL127191   4.477  11.165  26.597
 1272POPC   GL227192   4.477  11.065  26.605
 1272POPC   C1A27193   4.533  11.148  26.405
 1272POPC   D2A27194   4.588  11.132  26.214
 1272POPC   C3A27195   4.644  11.115  26.022
 1272POPC   C4A27196   4.700  11.099  25.831
 1272POPC   C1B27197   4.341  11.142  26.350
 1272POPC   C2B27198   4.396  11.126  26.158
 1272POPC   C3B27199   4.452  11.109  25.967
 1272POPC   C4B27200   4.508  11.093  25.776
 1273POPC   NC327201  24.348   2.408  17.703
 1273POPC   PO427202  24.188   2.491  17.616
 1273POPC   GL127203  24.028   2.574  17.529
 1273POPC   GL227204  24.084   2.652  17.501
 1273POPC   C1A27205  23.868   2.657  17.442
 1273POPC   D2A27206  23.709   2.739  17.354
 1273POPC   C3A27207  23.549   2.822  17.267
 1273POPC   C4A27208  23.389   2.905  17.180
 1273POPC   C1B27209  23.913   2.563  17.270
 1273POPC   C2B27210  23.754   2.646  17.183
 1273POPC   C3B27211  23.594   2.729  17.096
 1273POPC   C4B27212  23.434   2.812  17.009
 1274POPC   NC327213   0.161  19.766  -1.815
 1274POPC   PO427214   0.269  19.658  -1.686
 1274POPC   GL127215   0.377  19.550  -1.557
 1274POPC   GL227216   0.461  19.586  -1.598
 1274POPC   C1A27217   0.485  19.442  -1.428
 1274POPC   D2A27218   0.593  19.335  -1.298
 1274POPC   C3A27219   0.701  19.227  -1.169
 1274POPC   C4A27220   0.809  19.119  -1.040
 1274POPC   C1B27221   0.484  19.595  -1.299
 1274POPC   C2B27222   0.592  19.487  -1.169
 1274POPC   C3B27223   0.700  19.380  -1.040
 1274POPC   C4B27224   0.808  19.272  -0.911
 1275POPC   NC327225  15.481  11.305  -7.185
 1275POPC   PO427226  15.419  11.291  -6.996
 1275POPC   GL127227  15.357  11.277  -6.807
 1275POPC   GL227228  15.294  11.203  -6.833
 1275POPC   C1A27229  15.294  11.262  -6.617
 1275POPC   D2A27230  15.232  11.248  -6.428
 1275POPC   C3A27231  15.169  11.233  -6.238
 1275POPC   C4A27232  15.107  11.219  -6.049
 1275POPC   C1B27233  15.437  11.127  -6.580
 1275POPC   C2B27234  15.375  11.113  -6.391
 1275POPC   C3B27235  15.312  11.098  -6.202
 1275POPC   C4B27236  15.250  11.084  -6.012
 1276POPC   NC327237  23.595  -0.884   5.569
 1276POPC   PO427238  23.442  -0.764   5.616
 1276POPC   GL127239  23.289  -0.644   5.663
 1276POPC   GL227240  23.296  -0.600   5.573
 1276POPC   C1A27241  23.136  -0.524   5.709
 1276POPC   D2A27242  22.982  -0.405   5.756
 1276POPC   C3A27243  22.829  -0.285   5.802
 1276POPC   C4A27244  22.676  -0.165   5.849
 1276POPC   C1B27245  23.008  -0.658   5.633
 1276POPC   C2B27246  22.855  -0.538   5.680
 1276POPC   C3B27247  22.701  -0.419   5.727
 1276POPC   C4B27248  22.548  -0.299   5.773
 1277POPC   NC327249  21.766   8.085  23.393
 1277POPC   PO427250  21.631   8.106  23.247
 1277POPC   GL127251  21.496   8.127  23.101
 1277POPC   GL227252  21.567   8.110  23.033
 1277POPC   C1A27253  21.361   8.148  22.955
 1277POPC   D2A27254  21.227   8.169  22.808
 1277POPC   C3A27255  21.092   8.190  22.662
 1277POPC   C4A27256  20.957   8.211  22.516
 1277POPC   C1B27257  21.322   7.952  22.962
 1277POPC   C2B27258  21.188   7.973  22.816
 1277POPC   C3B27259  21.053   7.994  22.670
 1277POPC   C4B27260  20.918   8.015  22.524
 1278POPC   NC327261   6.928  -3.222  21.902
 1278POPC   PO427262   6.961  -3.076  21.769
 1278POPC   GL127263   6.994  -2.930  21.636
 1278POPC   GL227264   7.020  -2.999  21.568
 1278POPC   C1A27265   7.028  -2.785  21.503
 1278POPC   D2A27266   7.061  -2.639  21.370
 1278POPC   C3A27267   7.095  -2.494  21.237
 1278POPC   C4A27268   7.128  -2.348  21.104
 1278POPC   C1B27269   6.837  -2.796  21.443
 1278POPC   C2B27270   6.871  -2.651  21.310
 1278POPC   C3B27271   6.904  -2.505  21.177
 1278POPC   C4B27272   6.938  -2.359  21.044
 1279POPC   NC327273  25.624   8.867   1.225
 1279POPC   PO427274  25.450   8.878   1.323
 1279POPC   GL127275  25.276   8.889   1.421
 1279POPC   GL227276  25.252   8.797   1.388
 1279POPC   C1A27277  25.102   8.900   1.518
 1279POPC   D2A27278  24.927   8.911   1.616
 1279POPC   C3A27279  24.753   8.922   1.713
 1279POPC   C4A27280  24.579   8.933   1.811
 1279POPC   C1B27281  25.188   8.821   1.680
 1279POPC   C2B27282  25.013   8.832   1.778
 1279POPC   C3B27283  24.839   8.843   1.876
 1279POPC   C4B27284  24.665   8.854   1.973
 1280POPC   NC327285  21.658  -3.684   9.146
 1280POPC   PO427286  21.526  -3.534   9.154
 1280POPC   GL127287  21.394  -3.384   9.162
 1280POPC   GL227288  21.399  -3.374   9.063
 1280POPC   C1A27289  21.263  -3.233   9.171
 1280POPC   D2A27290  21.131  -3.083   9.179
 1280POPC   C3A27291  21.000  -2.932   9.188
 1280POPC   C4A27292  20.868  -2.782   9.196
 1280POPC   C1B27293  21.112  -3.364   9.152
 1280POPC   C2B27294  20.981  -3.213   9.160
 1280POPC   C3B27295  20.849  -3.063   9.169
 1280POPC   C4B27296  20.718  -2.912   9.177
 1281POPC   NC327297  18.551  -3.802   2.196
 1281POPC   PO427298  18.457  -3.647   2.281
 1281POPC   GL127299  18.363  -3.492   2.366
 1281POPC   GL227300  18.445  -3.471   2.419
 1281POPC   C1A27301  18.269  -3.337   2.451
 1281POPC   D2A27302  18.175  -3.183   2.535
 1281POPC   C3A27303  18.081  -3.028   2.620
 1281POPC   C4A27304  17.987  -2.873   2.705
 1281POPC   C1B27305  18.333  -3.218   2.303
 1281POPC   C2B27306  18.239  -3.063   2.388
 1281POPC   C3B27307  18.145  -2.908   2.473
 1281POPC   C4B27308  18.051  -2.754   2.558
 1282POPC   NC327309   3.163  24.172  18.891
 1282POPC   PO427310   3.239  24.015  18.793
 1282POPC   GL127311   3.315  23.858  18.695
 1282POPC   GL227312   3.400  23.909  18.680
 1282POPC   C1A27313   3.391  23.701  18.597
 1282POPC   D2A27314   3.467  23.545  18.498
 1282POPC   C3A27315   3.543  23.388  18.400
 1282POPC   C4A27316   3.619  23.231  18.302
 1282POPC   C1B27317   3.464  23.629  18.768
 1282POPC   C2B27318   3.540  23.473  18.670
 1282POPC   C3B27319   3.616  23.316  18.572
 1282POPC   C4B27320   3.692  23.159  18.474
 1283POPC   NC327321   2.660   1.530  24.211
 1283POPC   PO427322   2.744   1.622  24.054
 1283POPC   GL127323   2.828   1.714  23.897
 1283POPC   GL227324   2.834   1.798  23.950
 1283POPC   C1A27325   2.912   1.805  23.741
 1283POPC   D2A27326   2.997   1.897  23.584
 1283POPC   C3A27327   3.081   1.988  23.428
 1283POPC   C4A27328   3.165   2.080  23.271
 1283POPC   C1B27329   3.093   1.751  23.807
 1283POPC   C2B27330   3.178   1.843  23.650
 1283POPC   C3B27331   3.262   1.934  23.493
 1283POPC   C4B27332   3.346   2.026  23.337
 1284POPC   NC327333  27.144  11.739   5.016
 1284POPC   PO427334  26.952  11.725   5.070
 1284POPC   GL127335  26.760  11.711   5.124
 1284POPC   GL227336  26.758  11.616   5.094
 1284POPC   C1A27337  26.568  11.697   5.178
 1284POPC   D2A27338  26.375  11.684   5.231
 1284POPC   C3A27339  26.183  11.670   5.285
 1284POPC   C4A27340  25.991  11.656   5.339
 1284POPC   C1B27341  26.623  11.640   5.361
 1284POPC   C2B27342  26.431  11.626   5.415
 1284POPC   C3B27343  26.239  11.613   5.469
 1284POPC   C4B27344  26.046  11.599   5.522
 1285POPC   NC327345  18.853  -1.575  -0.655
 1285POPC   PO427346  18.753  -1.447  -0.539
 1285POPC   GL127347  18.653  -1.319  -0.423
 1285POPC   GL227348  18.617  -1.273  -0.504
 1285POPC   C1A27349  18.553  -1.190  -0.306
 1285POPC   D2A27350  18.454  -1.062  -0.190
 1285POPC   C3A27351  18.354  -0.933  -0.073
 1285POPC   C4A27352  18.254  -0.805   0.043
 1285POPC   C1B27353  18.396  -1.313  -0.305
 1285POPC   C2B27354  18.296  -1.185  -0.189
 1285POPC   C3B27355  18.196  -1.057  -0.073
 1285POPC   C4B27356  18.096  -0.928   0.044
 1286POPC   NC327357   2.778  -0.983  22.455
 1286POPC   PO427358   2.857  -0.859  22.320
 1286POPC   GL127359   2.936  -0.735  22.185
 1286POPC   GL227360   2.978  -0.681  22.258
 1286POPC   C1A27361   3.015  -0.610  22.050
 1286POPC   D2A27362   3.095  -0.486  21.914
 1286POPC   C3A27363   3.174  -0.361  21.779
 1286POPC   C4A27364   3.253  -0.237  21.644
 1286POPC   C1B27365   3.179  -0.724  22.041
 1286POPC   C2B27366   3.259  -0.600  21.905
 1286POPC   C3B27367   3.338  -0.476  21.770
 1286POPC   C4B27368   3.417  -0.351  21.635
 1287POPC   NC327369  -7.799  13.290  12.113
 1287POPC   PO427370  -7.604  13.252  12.089
 1287POPC   GL127371  -7.409  13.214  12.065
 1287POPC   GL227372  -7.390  13.254  12.155
 1287POPC   C1A27373  -7.214  13.175  12.042
 1287POPC   D2A27374  -7.020  13.137  12.018
 1287POPC   C3A27375  -6.825  13.098  11.995
 1287POPC   C4A27376  -6.630  13.060  11.971
 1287POPC   C1B27377  -7.239  12.996  12.128
 1287POPC   C2B27378  -7.044  12.958  12.104
 1287POPC   C3B27379  -6.850  12.919  12.080
 1287POPC   C4B27380  -6.655  12.881  12.057
 1288POPC   NC327381   8.287  27.631  13.539
 1288POPC   PO427382   8.301  27.435  13.500
 1288POPC   GL127383   8.315  27.239  13.461
 1288POPC   GL227384   8.393  27.232  13.523
 1288POPC   C1A27385   8.329  27.044  13.421
 1288POPC   D2A27386   8.343  26.848  13.382
 1288POPC   C3A27387   8.357  26.653  13.342
 1288POPC   C4A27388   8.371  26.457  13.303
 1288POPC   C1B27389   8.204  27.005  13.572
 1288POPC   C2B27390   8.218  26.809  13.533
 1288POPC   C3B27391   8.232  26.613  13.493
 1288POPC   C4B27392   8.246  26.418  13.454
 1289POPC   NC327393  10.988  -3.949  21.274
 1289POPC   PO427394  10.969  -3.798  21.144
 1289POPC   GL127395  10.950  -3.647  21.014
 1289POPC   GL227396  10.969  -3.710  20.939
 1289POPC   C1A27397  10.931  -3.496  20.884
 1289POPC   D2A27398  10.912  -3.345  20.755
 1289POPC   C3A27399  10.893  -3.194  20.625
 1289POPC   C4A27400  10.874  -3.043  20.495
 1289POPC   C1B27401  10.736  -3.536  20.867
 1289POPC   C2B27402  10.717  -3.385  20.737
 1289POPC   C3B27403  10.698  -3.234  20.607
 1289POPC   C4B27404  10.679  -3.083  20.477
 1290POPC   NC327405  22.931  22.408  11.186
 1290POPC   PO427406  22.785  22.272  11.166
 1290POPC   GL127407  22.639  22.136  11.146
 1290POPC   GL227408  22.701  22.078  11.093
 1290POPC   C1A27409  22.494  22.001  11.126
 1290POPC   D2A27410  22.348  21.865  11.106
 1290POPC   C3A27411  22.203  21.730  11.086
 1290POPC   C4A27412  22.057  21.594  11.066
 1290POPC   C1B27413  22.554  21.911  11.294
 1290POPC   C2B27414  22.408  21.776  11.274
 1290POPC   C3B27415  22.263  21.640  11.254
 1290POPC   C4B27416  22.117  21.505  11.234
 1291POPC   NC327417  15.186  -1.558  -2.866
 1291POPC   PO427418  15.129  -1.428  -2.725
 1291POPC   GL127419  15.072  -1.298  -2.584
 1291POPC   GL227420  15.166  -1.262  -2.580
 1291POPC   C1A27421  15.016  -1.167  -2.444
 1291POPC   D2A27422  14.959  -1.037  -2.303
 1291POPC   C3A27423  14.903  -0.906  -2.163
 1291POPC   C4A27424  14.846  -0.776  -2.022
 1291POPC   C1B27425  14.971  -1.034  -2.586
 1291POPC   C2B27426  14.914  -0.903  -2.445
 1291POPC   C3B27427  14.857  -0.773  -2.305
 1291POPC   C4B27428  14.801  -0.643  -2.164
 1292POPC   NC327429   3.951   2.155  -5.269
 1292POPC   PO427430   4.020   2.243  -5.103
 1292POPC   GL127431   4.089   2.331  -4.937
 1292POPC   GL227432   4.178   2.286  -4.950
 1292POPC   C1A27433   4.159   2.419  -4.772
 1292POPC   D2A27434   4.228   2.507  -4.606
 1292POPC   C3A27435   4.298   2.595  -4.441
 1292POPC   C4A27436   4.367   2.683  -4.275
 1292POPC   C1B27437   4.222   2.574  -4.881
 1292POPC   C2B27438   4.292   2.662  -4.715
 1292POPC   C3B27439   4.361   2.750  -4.550
 1292POPC   C4B27440   4.431   2.838  -4.384
 1293POPC   NC327441  -5.017  10.434  20.100
 1293POPC   PO427442  -4.854  10.427  19.984
 1293POPC   GL127443  -4.691  10.420  19.868
 1293POPC   GL227444  -4.647  10.359  19.934
 1293POPC   C1A27445  -4.528  10.413  19.753
 1293POPC   D2A27446  -4.365  10.407  19.637
 1293POPC   C3A27447  -4.202  10.400  19.522
 1293POPC   C4A27448  -4.039  10.393  19.406
 1293POPC   C1B27449  -4.604  10.256  19.655
 1293POPC   C2B27450  -4.441  10.249  19.540
 1293POPC   C3B27451  -4.278  10.242  19.424
 1293POPC   C4B27452  -4.115  10.236  19.308
 1294POPC   NC327453  25.158  18.317  14.694
 1294POPC   PO427454  24.989  18.222  14.644
 1294POPC   GL127455  24.820  18.127  14.594
 1294POPC   GL227456  24.798  18.200  14.529
 1294POPC   C1A27457  24.651  18.032  14.544
 1294POPC   D2A27458  24.483  17.937  14.494
 1294POPC   C3A27459  24.314  17.842  14.444
 1294POPC   C4A27460  24.145  17.747  14.394
 1294POPC   C1B27461  24.749  17.934  14.400
 1294POPC   C2B27462  24.581  17.839  14.350
 1294POPC   C3B27463  24.412  17.744  14.300
 1294POPC   C4B27464  24.243  17.649  14.250
 1295POPC   NC327465   9.667  20.333  24.752
 1295POPC   PO427466   9.669  20.216  24.590
 1295POPC   GL127467   9.671  20.099  24.428
 1295POPC   GL227468   9.688  20.019  24.486
 1295POPC   C1A27469   9.674  19.981  24.266
 1295POPC   D2A27470   9.676  19.864  24.104
 1295POPC   C3A27471   9.679  19.746  23.942
 1295POPC   C4A27472   9.681  19.629  23.780
 1295POPC   C1B27473   9.477  19.953  24.283
 1295POPC   C2B27474   9.479  19.836  24.121
 1295POPC   C3B27475   9.481  19.718  23.959
 1295POPC   C4B27476   9.484  19.601  23.797
 1296POPC   NC327477  12.448  22.139  23.005
 1296POPC   PO427478  12.421  22.002  22.862
 1296POPC   GL127479  12.394  21.865  22.719
 1296POPC   GL227480  12.487  21.832  22.733
 1296POPC   C1A27481  12.366  21.727  22.576
 1296POPC   D2A27482  12.339  21.590  22.434
 1296POPC   C3A27483  12.311  21.452  22.291
 1296POPC   C4A27484  12.284  21.315  22.148
 1296POPC   C1B27485  12.300  21.598  22.714
 1296POPC   C2B27486  12.273  21.460  22.571
 1296POPC   C3B27487  12.245  21.323  22.428
 1296POPC   C4B27488  12.218  21.186  22.285
 1297POPC   NC327489   3.106  26.710   8.747
 1297POPC   PO427490   3.186  26.527   8.760
 1297POPC   GL127491   3.266  26.344   8.773
 1297POPC   GL227492   3.243  26.341   8.870
 1297POPC   C1A27493   3.345  26.161   8.786
 1297POPC   D2A27494   3.425  25.978   8.799
 1297POPC   C3A27495   3.504  25.795   8.812
 1297POPC   C4A27496   3.584  25.612   8.825
 1297POPC   C1B27497   3.167  26.081   8.742
 1297POPC   C2B27498   3.247  25.898   8.755
 1297POPC   C3B27499   3.327  25.715   8.768
 1297POPC   C4B27500   3.406  25.532   8.781
 1298POPC   NC327501  12.012  -5.157  19.543
 1298POPC   PO427502  11.988  -4.993  19.431
 1298POPC   GL127503  11.964  -4.829  19.319
 1298POPC   GL227504  12.052  -4.847  19.275
 1298POPC   C1A27505  11.940  -4.666  19.206
 1298POPC   D2A27506  11.915  -4.502  19.094
 1298POPC   C3A27507  11.891  -4.339  18.981
 1298POPC   C4A27508  11.867  -4.175  18.869
 1298POPC   C1B27509  11.848  -4.776  19.066
 1298POPC   C2B27510  11.824  -4.612  18.954
 1298POPC   C3B27511  11.800  -4.448  18.841
 1298POPC   C4B27512  11.775  -4.285  18.729
 1299POPC   NC327513  12.315   3.446  -6.706
 1299POPC   PO427514  12.290   3.517  -6.521
 1299POPC   GL127515  12.265   3.588  -6.336
 1299POPC   GL227516  12.338   3.655  -6.352
 1299POPC   C1A27517  12.241   3.659  -6.151
 1299POPC   D2A27518  12.216   3.731  -5.965
 1299POPC   C3A27519  12.192   3.802  -5.780
 1299POPC   C4A27520  12.167   3.873  -5.595
 1299POPC   C1B27521  12.107   3.791  -6.219
 1299POPC   C2B27522  12.082   3.862  -6.034
 1299POPC   C3B27523  12.057   3.933  -5.849
 1299POPC   C4B27524  12.033   4.005  -5.663
 1300POPC   NC327525  -5.653  11.772   0.812
 1300POPC   PO427526  -5.480  11.756   0.911
 1300POPC   GL127527  -5.307  11.740   1.010
 1300POPC   GL227528  -5.334  11.649   1.042
 1300POPC   C1A27529  -5.134  11.724   1.108
 1300POPC   D2A27530  -4.960  11.707   1.207
 1300POPC   C3A27531  -4.787  11.691   1.305
 1300POPC   C4A27532  -4.614  11.675   1.404
 1300POPC   C1B27533  -5.049  11.640   0.947
 1300POPC   C2B27534  -4.876  11.624   1.046
 1300POPC   C3B27535  -4.703  11.608   1.144
 1300POPC   C4B27536  -4.530  11.592   1.243
 1301POPC   NC327537  12.148  14.965  -7.245
 1301POPC   PO427538  12.122  14.908  -7.055
 1301POPC   GL127539  12.096  14.851  -6.865
 1301POPC   GL227540  12.190  14.816  -6.863
 1301POPC   C1A27541  12.070  14.795  -6.675
 1301POPC   D2A27542  12.045  14.738  -6.484
 1301POPC   C3A27543  12.019  14.682  -6.294
 1301POPC   C4A27544  11.993  14.625  -6.104
 1301POPC   C1B27545  12.136  14.973  -6.613
 1301POPC   C2B27546  12.110  14.917  -6.422
 1301POPC   C3B27547  12.085  14.860  -6.232
 1301POPC   C4B27548  12.059  14.803  -6.042
 1302POPC   NC327549  24.450   8.041  -0.490
 1302POPC   PO427550  24.288   8.055  -0.374
 1302POPC   GL127551  24.126   8.069  -0.258
 1302POPC   GL227552  24.076   8.010  -0.321
 1302POPC   C1A27553  23.964   8.083  -0.142
 1302POPC   D2A27554  23.801   8.096  -0.025
 1302POPC   C3A27555  23.639   8.110   0.091
 1302POPC   C4A27556  23.477   8.124   0.207
 1302POPC   C1B27557  24.024   7.922  -0.039
 1302POPC   C2B27558  23.861   7.936   0.078
 1302POPC   C3B27559  23.699   7.950   0.194
 1302POPC   C4B27560  23.537   7.963   0.310
 1303POPC   NC327561  -1.669  21.717  17.404
 1303POPC   PO427562  -1.541  21.587  17.322
 1303POPC   GL127563  -1.413  21.457  17.240
 1303POPC   GL227564  -1.339  21.495  17.296
 1303POPC   C1A27565  -1.284  21.328  17.158
 1303POPC   D2A27566  -1.156  21.198  17.076
 1303POPC   C3A27567  -1.027  21.069  16.994
 1303POPC   C4A27568  -0.899  20.939  16.912
 1303POPC   C1B27569  -1.326  21.196  17.302
 1303POPC   C2B27570  -1.197  21.066  17.220
 1303POPC   C3B27571  -1.069  20.936  17.138
 1303POPC   C4B27572  -0.941  20.807  17.056
 1304POPC   NC327573  19.010  24.218  16.084
 1304POPC   PO427574  18.904  24.064  16.012
 1304POPC   GL127575  18.798  23.910  15.940
 1304POPC   GL227576  18.821  23.938  15.847
 1304POPC   C1A27577  18.692  23.757  15.868
 1304POPC   D2A27578  18.587  23.603  15.795
 1304POPC   C3A27579  18.481  23.450  15.723
 1304POPC   C4A27580  18.375  23.296  15.651
 1304POPC   C1B27581  18.856  23.641  15.874
 1304POPC   C2B27582  18.750  23.488  15.801
 1304POPC   C3B27583  18.644  23.334  15.729
 1304POPC   C4B27584  18.538  23.181  15.657
 1305POPC   NC327585  -7.354  13.736   6.221
 1305POPC   PO427586  -7.163  13.695   6.265
 1305POPC   GL127587  -6.972  13.654   6.309
 1305POPC   GL227588  -6.984  13.697   6.399
 1305POPC   C1A27589  -6.781  13.613   6.353
 1305POPC   D2A27590  -6.591  13.573   6.398
 1305POPC   C3A27591  -6.400  13.532   6.442
 1305POPC   C4A27592  -6.209  13.491   6.486
 1305POPC   C1B27593  -6.837  13.437   6.431
 1305POPC   C2B27594  -6.646  13.397   6.475
 1305POPC   C3B27595  -6.455  13.356   6.519
 1305POPC   C4B27596  -6.265  13.315   6.563
 1306POPC   NC327597  27.534   8.500  13.259
 1306POPC   PO427598  27.337   8.514  13.227
 1306POPC   GL127599  27.140   8.528  13.195
 1306POPC   GL227600  27.147   8.458  13.124
 1306POPC   C1A27601  26.943   8.542  13.163
 1306POPC   D2A27602  26.746   8.556  13.132
 1306POPC   C3A27603  26.549   8.570  13.100
 1306POPC   C4A27604  26.352   8.584  13.068
 1306POPC   C1B27605  26.911   8.400  13.301
 1306POPC   C2B27606  26.714   8.414  13.269
 1306POPC   C3B27607  26.517   8.428  13.237
 1306POPC   C4B27608  26.320   8.442  13.205
 1307POPC   NC327609  -5.809  18.962   8.578
 1307POPC   PO427610  -5.635  18.865   8.593
 1307POPC   GL127611  -5.461  18.768   8.608
 1307POPC   GL227612  -5.497  18.716   8.685
 1307POPC   C1A27613  -5.287  18.671   8.623
 1307POPC   D2A27614  -5.112  18.573   8.637
 1307POPC   C3A27615  -4.938  18.476   8.652
 1307POPC   C4A27616  -4.764  18.379   8.667
 1307POPC   C1B27617  -5.354  18.531   8.497
 1307POPC   C2B27618  -5.180  18.433   8.512
 1307POPC   C3B27619  -5.006  18.336   8.526
 1307POPC   C4B27620  -4.831  18.239   8.541
 1308POPC   NC327621  26.075   5.728  16.606
 1308POPC   PO427622  25.896   5.775  16.529
 1308POPC   GL127623  25.717   5.822  16.452
 1308POPC   GL227624  25.756   5.906  16.415
 1308POPC   C1A27625  25.539   5.869  16.376
 1308POPC   D2A27626  25.360   5.916  16.299
 1308POPC   C3A27627  25.182   5.963  16.223
 1308POPC   C4A27628  25.003   6.010  16.146
 1308POPC   C1B27629  25.586   5.773  16.207
 1308POPC   C2B27630  25.407   5.820  16.130
 1308POPC   C3B27631  25.229   5.867  16.054
 1308POPC   C4B27632  25.050   5.914  15.977
 1309POPC   NC327633   2.555  21.337  -2.139
 1309POPC   PO427634   2.635  21.209  -2.008
 1309POPC   GL127635   2.715  21.081  -1.877
 1309POPC   GL227636   2.799  21.078  -1.931
 1309POPC   C1A27637   2.795  20.953  -1.746
 1309POPC   D2A27638   2.875  20.824  -1.615
 1309POPC   C3A27639   2.955  20.696  -1.484
 1309POPC   C4A27640   3.035  20.568  -1.353
 1309POPC   C1B27641   2.868  21.106  -1.640
 1309POPC   C2B27642   2.948  20.978  -1.509
 1309POPC   C3B27643   3.028  20.850  -1.378
 1309POPC   C4B27644   3.108  20.721  -1.247
 1310POPC   NC327645  12.560  26.791  15.961
 1310POPC   PO427646  12.529  26.604  15.896
 1310POPC   GL127647  12.498  26.417  15.831
 1310POPC   GL227648  12.597  26.407  15.815
 1310POPC   C1A27649  12.468  26.230  15.767
 1310POPC   D2A27650  12.437  26.044  15.702
 1310POPC   C3A27651  12.407  25.857  15.638
 1310POPC   C4A27652  12.376  25.670  15.573
 1310POPC   C1B27653  12.491  26.162  15.953
 1310POPC   C2B27654  12.461  25.975  15.889
 1310POPC   C3B27655  12.430  25.788  15.824
 1310POPC   C4B27656  12.400  25.602  15.759
 1311POPC   NC327657  10.410  -8.032  10.238
 1311POPC   PO427658  10.406  -7.832  10.233
 1311POPC   GL127659  10.402  -7.632  10.228
 1311POPC   GL227660  10.494  -7.631  10.188
 1311POPC   C1A27661  10.398  -7.432  10.224
 1311POPC   D2A27662  10.395  -7.232  10.219
 1311POPC   C3A27663  10.391  -7.032  10.215
 1311POPC   C4A27664  10.387  -6.832  10.210
 1311POPC   C1B27665  10.317  -7.438  10.041
 1311POPC   C2B27666  10.313  -7.238  10.037
 1311POPC   C3B27667  10.309  -7.038  10.032
 1311POPC   C4B27668  10.306  -6.838  10.027
 1312POPC   NC327669  10.843  12.592  27.781
 1312POPC   PO427670  10.832  12.561  27.584
 1312POPC   GL127671  10.821  12.530  27.387
 1312POPC   GL227672  10.871  12.444  27.398
 1312POPC   C1A27673  10.811  12.499  27.190
 1312POPC   D2A27674  10.800  12.468  26.992
 1312POPC   C3A27675  10.790  12.437  26.795
 1312POPC   C4A27676  10.779  12.406  26.598
 1312POPC   C1B27677  10.638  12.401  27.214
 1312POPC   C2B27678  10.627  12.370  27.017
 1312POPC   C3B27679  10.617  12.339  26.820
 1312POPC   C4B27680  10.606  12.308  26.623
 1313POPC   NC327681  24.354  -0.292   6.830
 1313POPC   PO427682  24.192  -0.179   6.864
 1313POPC   GL127683  24.030  -0.066   6.898
 1313POPC   GL227684  24.065   0.003   6.835
 1313POPC   C1A27685  23.868   0.046   6.931
 1313POPC   D2A27686  23.707   0.159   6.965
 1313POPC   C3A27687  23.545   0.271   6.998
 1313POPC   C4A27688  23.383   0.384   7.032
 1313POPC   C1B27689  23.774  -0.044   6.779
 1313POPC   C2B27690  23.613   0.069   6.813
 1313POPC   C3B27691  23.451   0.182   6.846
 1313POPC   C4B27692  23.289   0.294   6.880
 1314POPC   NC327693  17.653  25.561   5.256
 1314POPC   PO427694  17.569  25.386   5.304
 1314POPC   GL127695  17.485  25.211   5.352
 1314POPC   GL227696  17.558  25.163   5.304
 1314POPC   C1A27697  17.401  25.036   5.400
 1314POPC   D2A27698  17.318  24.861   5.449
 1314POPC   C3A27699  17.234  24.686   5.497
 1314POPC   C4A27700  17.150  24.511   5.545
 1314POPC   C1B27701  17.509  25.031   5.569
 1314POPC   C2B27702  17.425  24.856   5.617
 1314POPC   C3B27703  17.341  24.681   5.665
 1314POPC   C4B27704  17.257  24.506   5.714
 1315POPC   NC327705  12.463  10.638  -7.970
 1315POPC   PO427706  12.434  10.629  -7.772
 1315POPC   GL127707  12.405  10.620  -7.574
 1315POPC   GL227708  12.332  10.687  -7.582
 1315POPC   C1A27709  12.376  10.611  -7.377
 1315POPC   D2A27710  12.347  10.602  -7.179
 1315POPC   C3A27711  12.318  10.593  -6.982
 1315POPC   C4A27712  12.289  10.584  -6.784
 1315POPC   C1B27713  12.243  10.464  -7.403
 1315POPC   C2B27714  12.214  10.455  -7.205
 1315POPC   C3B27715  12.185  10.446  -7.008
 1315POPC   C4B27716  12.156  10.437  -6.810
 1316POPC   NC327717   2.591  -3.506  19.505
 1316POPC   PO427718   2.671  -3.356  19.399
 1316POPC   GL127719   2.751  -3.206  19.293
 1316POPC   GL227720   2.797  -3.273  19.234
 1316POPC   C1A27721   2.832  -3.057  19.188
 1316POPC   D2A27722   2.912  -2.907  19.082
 1316POPC   C3A27723   2.993  -2.758  18.977
 1316POPC   C4A27724   3.073  -2.608  18.871
 1316POPC   C1B27725   2.673  -3.058  19.066
 1316POPC   C2B27726   2.754  -2.908  18.960
 1316POPC   C3B27727   2.834  -2.758  18.855
 1316POPC   C4B27728   2.914  -2.609  18.749
 1317POPC   NC327729  10.371  24.172  21.094
 1317POPC   PO427730  10.363  24.017  20.968
 1317POPC   GL127731  10.355  23.862  20.842
 1317POPC   GL227732  10.382  23.800  20.917
 1317POPC   C1A27733  10.347  23.706  20.717
 1317POPC   D2A27734  10.339  23.551  20.591
 1317POPC   C3A27735  10.331  23.395  20.466
 1317POPC   C4A27736  10.323  23.240  20.340
 1317POPC   C1B27737  10.155  23.678  20.764
 1317POPC   C2B27738  10.147  23.523  20.638
 1317POPC   C3B27739  10.139  23.367  20.513
 1317POPC   C4B27740  10.131  23.212  20.387
 1318POPC   NC327741  -1.989  18.167  20.806
 1318POPC   PO427742  -1.860  18.077  20.682
 1318POPC   GL127743  -1.731  17.987  20.558
 1318POPC   GL227744  -1.673  18.069  20.559
 1318POPC   C1A27745  -1.602  17.897  20.435
 1318POPC   D2A27746  -1.472  17.808  20.311
 1318POPC   C3A27747  -1.343  17.718  20.188
 1318POPC   C4A27748  -1.214  17.628  20.064
 1318POPC   C1B27749  -1.502  17.825  20.592
 1318POPC   C2B27750  -1.372  17.735  20.468
 1318POPC   C3B27751  -1.243  17.645  20.345
 1318POPC   C4B27752  -1.114  17.555  20.221
 1319POPC   NC327753   8.561  26.904  16.157
 1319POPC   PO427754   8.578  26.718  16.087
 1319POPC   GL127755   8.595  26.532  16.017
 1319POPC   GL227756   8.642  26.566  15.936
 1319POPC   C1A27757   8.611  26.345  15.946
 1319POPC   D2A27758   8.628  26.159  15.876
 1319POPC   C3A27759   8.644  25.972  15.805
 1319POPC   C4A27760   8.661  25.786  15.735
 1319POPC   C1B27761   8.787  26.325  16.040
 1319POPC   C2B27762   8.803  26.139  15.970
 1319POPC   C3B27763   8.820  25.953  15.900
 1319POPC   C4B27764   8.836  25.766  15.829
 1320POPC   NC327765  -3.307  11.062  -2.306
 1320POPC   PO427766  -3.162  11.054  -2.168
 1320POPC   GL127767  -3.017  11.046  -2.030
 1320POPC   GL227768  -3.072  11.103  -1.969
 1320POPC   C1A27769  -2.872  11.038  -1.893
 1320POPC   D2A27770  -2.728  11.029  -1.755
 1320POPC   C3A27771  -2.583  11.021  -1.618
 1320POPC   C4A27772  -2.438  11.013  -1.480
 1320POPC   C1B27773  -2.956  10.874  -1.814
 1320POPC   C2B27774  -2.812  10.866  -1.677
 1320POPC   C3B27775  -2.667  10.858  -1.539
 1320POPC   C4B27776  -2.522  10.849  -1.401
 1321POPC   NC327777  18.500   2.296  23.783
 1321POPC   PO427778  18.401   2.380  23.631
 1321POPC   GL127779  18.302   2.464  23.479
 1321POPC   GL227780  18.302   2.377  23.431
 1321POPC   C1A27781  18.203   2.549  23.327
 1321POPC   D2A27782  18.105   2.633  23.175
 1321POPC   C3A27783  18.006   2.718  23.023
 1321POPC   C4A27784  17.907   2.802  22.871
 1321POPC   C1B27785  18.030   2.502  23.414
 1321POPC   C2B27786  17.931   2.586  23.262
 1321POPC   C3B27787  17.832   2.671  23.110
 1321POPC   C4B27788  17.733   2.755  22.958
 1322POPC   NC327789  -0.210   4.994  23.970
 1322POPC   PO427790  -0.096   5.054  23.817
 1322POPC   GL127791   0.018   5.114  23.664
 1322POPC   GL227792   0.096   5.066  23.703
 1322POPC   C1A27793   0.132   5.174  23.511
 1322POPC   D2A27794   0.245   5.234  23.358
 1322POPC   C3A27795   0.359   5.294  23.205
 1322POPC   C4A27796   0.473   5.354  23.052
 1322POPC   C1B27797   0.081   5.009  23.409
 1322POPC   C2B27798   0.195   5.069  23.256
 1322POPC   C3B27799   0.309   5.129  23.103
 1322POPC   C4B27800   0.423   5.189  22.950
 1323POPC   NC327801  14.828  -1.970  22.442
 1323POPC   PO427802  14.776  -1.836  22.303
 1323POPC   GL127803  14.724  -1.702  22.164
 1323POPC   GL227804  14.728  -1.773  22.094
 1323POPC   C1A27805  14.672  -1.567  22.025
 1323POPC   D2A27806  14.621  -1.433  21.887
 1323POPC   C3A27807  14.569  -1.298  21.748
 1323POPC   C4A27808  14.517  -1.164  21.609
 1323POPC   C1B27809  14.479  -1.609  22.057
 1323POPC   C2B27810  14.428  -1.474  21.918
 1323POPC   C3B27811  14.376  -1.340  21.779
 1323POPC   C4B27812  14.324  -1.206  21.641
 1324POPC   NC327813  27.251   8.869  14.745
 1324POPC   PO427814  27.057   8.881  14.696
 1324POPC   GL127815  26.863   8.893  14.647
 1324POPC   GL227816  26.874   8.815  14.586
 1324POPC   C1A27817  26.670   8.905  14.598
 1324POPC   D2A27818  26.476   8.916  14.549
 1324POPC   C3A27819  26.283   8.928  14.500
 1324POPC   C4A27820  26.089   8.940  14.451
 1324POPC   C1B27821  26.624   8.780  14.748
 1324POPC   C2B27822  26.431   8.792  14.699
 1324POPC   C3B27823  26.237   8.804  14.650
 1324POPC   C4B27824  26.043   8.816  14.601
 1325POPC   NC327825  13.211  25.289   0.995
 1325POPC   PO427826  13.174  25.117   1.091
 1325POPC   GL127827  13.137  24.945   1.187
 1325POPC   GL227828  13.221  24.907   1.150
 1325POPC   C1A27829  13.099  24.774   1.282
 1325POPC   D2A27830  13.062  24.602   1.378
 1325POPC   C3A27831  13.024  24.431   1.473
 1325POPC   C4A27832  12.987  24.259   1.569
 1325POPC   C1B27833  13.200  24.841   1.442
 1325POPC   C2B27834  13.162  24.669   1.537
 1325POPC   C3B27835  13.125  24.497   1.633
 1325POPC   C4B27836  13.088  24.326   1.728
 1326POPC   NC327837   8.469  -7.976  10.386
 1326POPC   PO427838   8.484  -7.777  10.382
 1326POPC   GL127839   8.499  -7.578  10.378
 1326POPC   GL227840   8.593  -7.585  10.345
 1326POPC   C1A27841   8.514  -7.378  10.373
 1326POPC   D2A27842   8.528  -7.179  10.369
 1326POPC   C3A27843   8.543  -6.979  10.364
 1326POPC   C4A27844   8.558  -6.780  10.360
 1326POPC   C1B27845   8.449  -7.378  10.184
 1326POPC   C2B27846   8.463  -7.178  10.180
 1326POPC   C3B27847   8.478  -6.979  10.175
 1326POPC   C4B27848   8.493  -6.779  10.171
 1327POPC   NC327849  11.692  23.984  -1.324
 1327POPC   PO427850  11.677  23.829  -1.198
 1327POPC   GL127851  11.662  23.674  -1.072
 1327POPC   GL227852  11.760  23.656  -1.083
 1327POPC   C1A27853  11.647  23.520  -0.946
 1327POPC   D2A27854  11.631  23.365  -0.821
 1327POPC   C3A27855  11.616  23.211  -0.695
 1327POPC   C4A27856  11.601  23.056  -0.569
 1327POPC   C1B27857  11.685  23.641  -0.792
 1327POPC   C2B27858  11.670  23.487  -0.667
 1327POPC   C3B27859  11.655  23.332  -0.541
 1327POPC   C4B27860  11.640  23.178  -0.415
 1328POPC   NC327861  15.028  16.092  26.098
 1328POPC   PO427862  14.978  16.020  25.918
 1328POPC   GL127863  14.928  15.948  25.738
 1328POPC   GL227864  14.959  15.857  25.766
 1328POPC   C1A27865  14.878  15.876  25.558
 1328POPC   D2A27866  14.827  15.805  25.379
 1328POPC   C3A27867  14.777  15.733  25.199
 1328POPC   C4A27868  14.727  15.661  25.019
 1328POPC   C1B27869  14.694  15.834  25.626
 1328POPC   C2B27870  14.644  15.762  25.447
 1328POPC   C3B27871  14.594  15.690  25.267
 1328POPC   C4B27872  14.544  15.619  25.087
 1329POPC   NC327873  25.673   1.381   8.894
 1329POPC   PO427874  25.498   1.477   8.909
 1329POPC   GL127875  25.323   1.573   8.924
 1329POPC   GL227876  25.369   1.649   8.969
 1329POPC   C1A27877  25.148   1.669   8.938
 1329POPC   D2A27878  24.974   1.766   8.953
 1329POPC   C3A27879  24.799   1.862   8.967
 1329POPC   C4A27880  24.624   1.958   8.982
 1329POPC   C1B27881  25.181   1.756   8.761
 1329POPC   C2B27882  25.007   1.852   8.776
 1329POPC   C3B27883  24.832   1.948   8.790
 1329POPC   C4B27884  24.657   2.045   8.805
 1330POPC   NC327885   7.820  -6.616   3.171
 1330POPC   PO427886   7.843  -6.433   3.247
 1330POPC   GL127887   7.866  -6.250   3.323
 1330POPC   GL227888   7.959  -6.273   3.352
 1330POPC   C1A27889   7.889  -6.066   3.399
 1330POPC   D2A27890   7.912  -5.883   3.476
 1330POPC   C3A27891   7.935  -5.699   3.552
 1330POPC   C4A27892   7.958  -5.516   3.628
 1330POPC   C1B27893   7.959  -6.002   3.223
 1330POPC   C2B27894   7.982  -5.819   3.300
 1330POPC   C3B27895   8.005  -5.635   3.376
 1330POPC   C4B27896   8.028  -5.452   3.452
 1331POPC   NC327897  25.033   4.092   2.016
 1331POPC   PO427898  24.866   4.159   2.104
 1331POPC   GL127899  24.699   4.226   2.192
 1331POPC   GL227900  24.669   4.266   2.105
 1331POPC   C1A27901  24.532   4.292   2.280
 1331POPC   D2A27902  24.365   4.359   2.367
 1331POPC   C3A27903  24.198   4.425   2.455
 1331POPC   C4A27904  24.031   4.492   2.543
 1331POPC   C1B27905  24.439   4.121   2.233
 1331POPC   C2B27906  24.272   4.188   2.320
 1331POPC   C3B27907  24.105   4.255   2.408
 1331POPC   C4B27908  23.938   4.321   2.496
 1332POPC   NC327909  14.559  -5.801  17.319
 1332POPC   PO427910  14.505  -5.626  17.240
 1332POPC   GL127911  14.451  -5.451  17.161
 1332POPC   GL227912  14.540  -5.443  17.117
 1332POPC   C1A27913  14.397  -5.275  17.082
 1332POPC   D2A27914  14.342  -5.100  17.002
 1332POPC   C3A27915  14.288  -4.924  16.923
 1332POPC   C4A27916  14.234  -4.749  16.844
 1332POPC   C1B27917  14.326  -5.370  16.920
 1332POPC   C2B27918  14.272  -5.194  16.841
 1332POPC   C3B27919  14.218  -5.019  16.762
 1332POPC   C4B27920  14.164  -4.844  16.682
 1333POPC   NC327921   3.137   0.245  -3.652
 1333POPC   PO427922   3.218   0.354  -3.505
 1333POPC   GL127923   3.299   0.463  -3.358
 1333POPC   GL227924   3.380   0.405  -3.360
 1333POPC   C1A27925   3.380   0.572  -3.212
 1333POPC   D2A27926   3.461   0.682  -3.065
 1333POPC   C3A27927   3.542   0.791  -2.919
 1333POPC   C4A27928   3.623   0.900  -2.772
 1333POPC   C1B27929   3.464   0.693  -3.348
 1333POPC   C2B27930   3.545   0.802  -3.201
 1333POPC   C3B27931   3.626   0.911  -3.055
 1333POPC   C4B27932   3.707   1.021  -2.908
 1334POPC   NC327933   2.808  21.465  21.953
 1334POPC   PO427934   2.884  21.337  21.819
 1334POPC   GL127935   2.960  21.209  21.685
 1334POPC   GL227936   2.991  21.150  21.760
 1334POPC   C1A27937   3.035  21.081  21.551
 1334POPC   D2A27938   3.111  20.953  21.418
 1334POPC   C3A27939   3.186  20.825  21.284
 1334POPC   C4A27940   3.262  20.697  21.150
 1334POPC   C1B27941   2.861  20.983  21.546
 1334POPC   C2B27942   2.936  20.855  21.412
 1334POPC   C3B27943   3.012  20.727  21.279
 1334POPC   C4B27944   3.088  20.599  21.145
 1335POPC   NC327945  -5.720   2.277   5.156
 1335POPC   PO427946  -5.545   2.362   5.204
 1335POPC   GL127947  -5.370   2.447   5.252
 1335POPC   GL227948  -5.354   2.375   5.320
 1335POPC   C1A27949  -5.196   2.532   5.301
 1335POPC   D2A27950  -5.021   2.616   5.349
 1335POPC   C3A27951  -4.847   2.701   5.398
 1335POPC   C4A27952  -4.672   2.786   5.446
 1335POPC   C1B27953  -5.104   2.421   5.162
 1335POPC   C2B27954  -4.929   2.506   5.210
 1335POPC   C3B27955  -4.754   2.591   5.258
 1335POPC   C4B27956  -4.580   2.676   5.307
 1336POPC   NC327957   1.840  20.255  22.437
 1336POPC   PO427958   1.929  20.142  22.298
 1336POPC   GL127959   2.018  20.029  22.159
 1336POPC   GL227960   2.075  19.987  22.230
 1336POPC   C1A27961   2.108  19.917  22.020
 1336POPC   D2A27962   2.197  19.804  21.881
 1336POPC   C3A27963   2.287  19.692  21.742
 1336POPC   C4A27964   2.376  19.579  21.603
 1336POPC   C1B27965   1.970  19.774  22.047
 1336POPC   C2B27966   2.059  19.662  21.908
 1336POPC   C3B27967   2.149  19.549  21.769
 1336POPC   C4B27968   2.238  19.437  21.630
 1337POPC   NC327969  18.721  23.522   1.965
 1337POPC   PO427970  18.622  23.376   2.058
 1337POPC   GL127971  18.523  23.230   2.151
 1337POPC   GL227972  18.474  23.208   2.066
 1337POPC   C1A27973  18.423  23.083   2.244
 1337POPC   D2A27974  18.324  22.937   2.338
 1337POPC   C3A27975  18.224  22.790   2.431
 1337POPC   C4A27976  18.125  22.644   2.524
 1337POPC   C1B27977  18.568  22.954   2.195
 1337POPC   C2B27978  18.468  22.807   2.288
 1337POPC   C3B27979  18.369  22.661   2.382
 1337POPC   C4B27980  18.269  22.515   2.475
 1338POPC   NC327981   8.546  -3.211  -2.320
 1338POPC   PO427982   8.562  -3.065  -2.184
 1338POPC   GL127983   8.578  -2.919  -2.048
 1338POPC   GL227984   8.678  -2.929  -2.049
 1338POPC   C1A27985   8.594  -2.773  -1.912
 1338POPC   D2A27986   8.611  -2.627  -1.777
 1338POPC   C3A27987   8.627  -2.481  -1.641
 1338POPC   C4A27988   8.643  -2.335  -1.505
 1338POPC   C1B27989   8.608  -2.638  -2.059
 1338POPC   C2B27990   8.624  -2.492  -1.924
 1338POPC   C3B27991   8.640  -2.346  -1.788
 1338POPC   C4B27992   8.656  -2.200  -1.652
 1339POPC   NC327993  -7.808   8.177  13.089
 1339POPC   PO427994  -7.612   8.199  13.054
 1339POPC   GL127995  -7.416   8.221  13.019
 1339POPC   GL227996  -7.398   8.215  13.117
 1339POPC   C1A27997  -7.221   8.244  12.983
 1339POPC   D2A27998  -7.025   8.266  12.948
 1339POPC   C3A27999  -6.830   8.289  12.912
 1339POPC   C4A28000  -6.634   8.311  12.877
 1339POPC   C1B28001  -7.201   8.045  12.967
 1339POPC   C2B28002  -7.006   8.068  12.931
 1339POPC   C3B28003  -6.810   8.090  12.896
 1339POPC   C4B28004  -6.614   8.113  12.860
 1340POPC   NC328005   2.733  26.457  11.985
 1340POPC   PO428006   2.812  26.275  11.962
 1340POPC   GL128007   2.891  26.093  11.939
 1340POPC   GL228008   2.980  26.133  11.919
 1340POPC   C1A28009   2.969  25.910  11.915
 1340POPC   D2A28010   3.048  25.728  11.892
 1340POPC   C3A28011   3.126  25.545  11.868
 1340POPC   C4A28012   3.205  25.363  11.845
 1340POPC   C1B28013   3.015  25.905  12.110
 1340POPC   C2B28014   3.093  25.722  12.087
 1340POPC   C3B28015   3.172  25.540  12.063
 1340POPC   C4B28016   3.250  25.358  12.040
 1341POPC   NC328017  24.239  11.223  -0.804
 1341POPC   PO428018  24.081  11.212  -0.682
 1341POPC   GL128019  23.923  11.201  -0.560
 1341POPC   GL228020  23.865  11.172  -0.637
 1341POPC   C1A28021  23.764  11.189  -0.439
 1341POPC   D2A28022  23.606  11.178  -0.317
 1341POPC   C3A28023  23.447  11.166  -0.196
 1341POPC   C4A28024  23.289  11.155  -0.074
 1341POPC   C1B28025  23.808  10.998  -0.400
 1341POPC   C2B28026  23.649  10.986  -0.278
 1341POPC   C3B28027  23.491  10.975  -0.157
 1341POPC   C4B28028  23.332  10.964  -0.035
 1342POPC   NC328029  -0.203  13.823  24.349
 1342POPC   PO428030  -0.090  13.778  24.191
 1342POPC   GL128031   0.023  13.733  24.033
 1342POPC   GL228032   0.104  13.768  24.080
 1342POPC   C1A28033   0.137  13.688  23.874
 1342POPC   D2A28034   0.250  13.643  23.716
 1342POPC   C3A28035   0.364  13.598  23.557
 1342POPC   C4A28036   0.477  13.553  23.399
 1342POPC   C1B28037   0.171  13.506  23.950
 1342POPC   C2B28038   0.284  13.461  23.792
 1342POPC   C3B28039   0.398  13.416  23.634
 1342POPC   C4B28040   0.511  13.371  23.475
 1343POPC   NC328041  -0.574  24.636   9.417
 1343POPC   PO428042  -0.460  24.472   9.430
 1343POPC   GL128043  -0.346  24.308   9.443
 1343POPC   GL228044  -0.264  24.365   9.435
 1343POPC   C1A28045  -0.232  24.144   9.456
 1343POPC   D2A28046  -0.118  23.981   9.469
 1343POPC   C3A28047  -0.004  23.817   9.482
 1343POPC   C4A28048   0.110  23.653   9.495
 1343POPC   C1B28049  -0.226  24.164   9.655
 1343POPC   C2B28050  -0.112  24.000   9.668
 1343POPC   C3B28051   0.002  23.836   9.681
 1343POPC   C4B28052   0.116  23.673   9.694
 1344POPC   NC328053  20.218   0.541  -1.397
 1344POPC   PO428054  20.099   0.642  -1.272
 1344POPC   GL128055  19.980   0.743  -1.147
 1344POPC   GL228056  19.919   0.765  -1.223
 1344POPC   C1A28057  19.862   0.844  -1.022
 1344POPC   D2A28058  19.743   0.946  -0.896
 1344POPC   C3A28059  19.625   1.047  -0.771
 1344POPC   C4A28060  19.506   1.148  -0.646
 1344POPC   C1B28061  19.758   0.677  -0.985
 1344POPC   C2B28062  19.639   0.779  -0.860
 1344POPC   C3B28063  19.521   0.880  -0.734
 1344POPC   C4B28064  19.402   0.981  -0.609
 1345POPC   NC328065   9.928  27.228   4.535
 1345POPC   PO428066   9.925  27.036   4.592
 1345POPC   GL128067   9.922  26.844   4.649
 1345POPC   GL228068  10.005  26.827   4.597
 1345POPC   C1A28069   9.919  26.653   4.707
 1345POPC   D2A28070   9.915  26.461   4.764
 1345POPC   C3A28071   9.912  26.270   4.822
 1345POPC   C4A28072   9.909  26.078   4.879
 1345POPC   C1B28073  10.029  26.699   4.867
 1345POPC   C2B28074  10.025  26.507   4.925
 1345POPC   C3B28075  10.022  26.316   4.982
 1345POPC   C4B28076  10.019  26.124   5.039
 1346POPC   NC328077  25.457   7.886   1.087
 1346POPC   PO428078  25.284   7.906   1.185
 1346POPC   GL128079  25.111   7.926   1.283
 1346POPC   GL228080  25.080   7.838   1.247
 1346POPC   C1A28081  24.938   7.946   1.382
 1346POPC   D2A28082  24.765   7.966   1.480
 1346POPC   C3A28083  24.592   7.986   1.579
 1346POPC   C4A28084  24.419   8.006   1.677
 1346POPC   C1B28085  25.017   7.852   1.540
 1346POPC   C2B28086  24.844   7.872   1.638
 1346POPC   C3B28087  24.671   7.892   1.736
 1346POPC   C4B28088  24.498   7.912   1.835
 1347POPC   NC328089  -4.385  18.840  16.626
 1347POPC   PO428090  -4.226  18.742  16.554
 1347POPC   GL128091  -4.067  18.644  16.482
 1347POPC   GL228092  -4.015  18.729  16.481
 1347POPC   C1A28093  -3.909  18.545  16.410
 1347POPC   D2A28094  -3.750  18.447  16.338
 1347POPC   C3A28095  -3.592  18.348  16.266
 1347POPC   C4A28096  -3.433  18.250  16.194
 1347POPC   C1B28097  -3.847  18.509  16.597
 1347POPC   C2B28098  -3.688  18.411  16.525
 1347POPC   C3B28099  -3.529  18.312  16.453
 1347POPC   C4B28100  -3.371  18.214  16.381
 1348POPC   NC328101   6.287   5.174  26.896
 1348POPC   PO428102   6.325   5.233  26.709
 1348POPC   GL128103   6.363   5.292  26.522
 1348POPC   GL228104   6.450   5.332  26.552
 1348POPC   C1A28105   6.402   5.351  26.335
 1348POPC   D2A28106   6.440   5.411  26.147
 1348POPC   C3A28107   6.479   5.470  25.960
 1348POPC   C4A28108   6.517   5.529  25.773
 1348POPC   C1B28109   6.495   5.178  26.299
 1348POPC   C2B28110   6.533   5.237  26.112
 1348POPC   C3B28111   6.572   5.297  25.924
 1348POPC   C4B28112   6.610   5.356  25.737
 1349POPC   NC328113  16.119  26.860   9.308
 1349POPC   PO428114  16.045  26.675   9.316
 1349POPC   GL128115  15.971  26.490   9.324
 1349POPC   GL228116  16.014  26.468   9.237
 1349POPC   C1A28117  15.896  26.304   9.332
 1349POPC   D2A28118  15.822  26.119   9.341
 1349POPC   C3A28119  15.747  25.933   9.349
 1349POPC   C4A28120  15.673  25.748   9.357
 1349POPC   C1B28121  16.060  26.243   9.429
 1349POPC   C2B28122  15.986  26.057   9.437
 1349POPC   C3B28123  15.912  25.872   9.445
 1349POPC   C4B28124  15.837  25.686   9.453
 1350POPC   NC328125  27.308   6.640   6.857
 1350POPC   PO428126  27.114   6.673   6.891
 1350POPC   GL128127  26.920   6.706   6.925
 1350POPC   GL228128  26.931   6.801   6.897
 1350POPC   C1A28129  26.726   6.739   6.959
 1350POPC   D2A28130  26.531   6.773   6.994
 1350POPC   C3A28131  26.337   6.806   7.028
 1350POPC   C4A28132  26.143   6.839   7.062
 1350POPC   C1B28133  26.684   6.688   6.771
 1350POPC   C2B28134  26.489   6.721   6.805
 1350POPC   C3B28135  26.295   6.754   6.839
 1350POPC   C4B28136  26.101   6.787   6.873
 1351POPC   NC328137  11.102   1.649  25.909
 1351POPC   PO428138  11.093   1.743  25.732
 1351POPC   GL128139  11.084   1.837  25.555
 1351POPC   GL228140  11.155   1.776  25.520
 1351POPC   C1A28141  11.075   1.930  25.379
 1351POPC   D2A28142  11.067   2.024  25.202
 1351POPC   C3A28143  11.058   2.117  25.026
 1351POPC   C4A28144  11.049   2.211  24.849
 1351POPC   C1B28145  10.935   1.802  25.318
 1351POPC   C2B28146  10.926   1.896  25.141
 1351POPC   C3B28147  10.917   1.989  24.965
 1351POPC   C4B28148  10.908   2.083  24.788
 1352POPC   NC328149   9.723  12.813  -7.906
 1352POPC   PO428150   9.724  12.781  -7.709
 1352POPC   GL128151   9.725  12.749  -7.512
 1352POPC   GL228152   9.798  12.682  -7.523
 1352POPC   C1A28153   9.727  12.717  -7.314
 1352POPC   D2A28154   9.728  12.686  -7.117
 1352POPC   C3A28155   9.730  12.654  -6.919
 1352POPC   C4A28156   9.731  12.622  -6.722
 1352POPC   C1B28157   9.863  12.862  -7.292
 1352POPC   C2B28158   9.865  12.830  -7.094
 1352POPC   C3B28159   9.866  12.798  -6.897
 1352POPC   C4B28160   9.868  12.766  -6.700
 1353POPC   NC328161  19.702  10.088  -5.175
 1353POPC   PO428162  19.595  10.085  -5.006
 1353POPC   GL128163  19.488  10.082  -4.837
 1353POPC   GL228164  19.405  10.097  -4.889
 1353POPC   C1A28165  19.382  10.079  -4.668
 1353POPC   D2A28166  19.275  10.077  -4.498
 1353POPC   C3A28167  19.169  10.074  -4.329
 1353POPC   C4A28168  19.062  10.071  -4.160
 1353POPC   C1B28169  19.358   9.882  -4.686
 1353POPC   C2B28170  19.252   9.879  -4.516
 1353POPC   C3B28171  19.145   9.876  -4.347
 1353POPC   C4B28172  19.038   9.873  -4.178
 1354POPC   NC328173   3.491  21.464  -2.536
 1354POPC   PO428174   3.559  21.334  -2.400
 1354POPC   GL128175   3.627  21.204  -2.264
 1354POPC   GL228176   3.709  21.189  -2.320
 1354POPC   C1A28177   3.695  21.074  -2.129
 1354POPC   D2A28178   3.764  20.943  -1.993
 1354POPC   C3A28179   3.832  20.813  -1.858
 1354POPC   C4A28180   3.900  20.683  -1.722
 1354POPC   C1B28181   3.787  21.222  -2.032
 1354POPC   C2B28182   3.856  21.092  -1.896
 1354POPC   C3B28183   3.924  20.962  -1.761
 1354POPC   C4B28184   3.992  20.832  -1.625
 1355POPC   NC328185  -4.926  18.080   3.585
 1355POPC   PO428186  -4.759  17.996   3.657
 1355POPC   GL128187  -4.592  17.912   3.729
 1355POPC   GL228188  -4.564  18.000   3.767
 1355POPC   C1A28189  -4.425  17.828   3.800
 1355POPC   D2A28190  -4.259  17.743   3.872
 1355POPC   C3A28191  -4.092  17.659   3.943
 1355POPC   C4A28192  -3.925  17.575   4.015
 1355POPC   C1B28193  -4.520  17.785   3.971
 1355POPC   C2B28194  -4.354  17.700   4.042
 1355POPC   C3B28195  -4.187  17.616   4.114
 1355POPC   C4B28196  -4.020  17.532   4.186
 1356POPC   NC328197  20.055  -4.792  11.712
 1356POPC   PO428198  19.943  -4.627  11.692
 1356POPC   GL128199  19.831  -4.462  11.672
 1356POPC   GL228200  19.914  -4.407  11.665
 1356POPC   C1A28201  19.719  -4.298  11.652
 1356POPC   D2A28202  19.607  -4.133  11.633
 1356POPC   C3A28203  19.495  -3.969  11.613
 1356POPC   C4A28204  19.383  -3.804  11.593
 1356POPC   C1B28205  19.718  -4.322  11.454
 1356POPC   C2B28206  19.606  -4.158  11.434
 1356POPC   C3B28207  19.494  -3.993  11.414
 1356POPC   C4B28208  19.382  -3.829  11.395
 1357POPC   NC328209  19.729  17.529  22.938
 1357POPC   PO428210  19.617  17.451  22.792
 1357POPC   GL128211  19.505  17.373  22.646
 1357POPC   GL228212  19.582  17.382  22.582
 1357POPC   C1A28213  19.394  17.295  22.499
 1357POPC   D2A28214  19.282  17.217  22.353
 1357POPC   C3A28215  19.171  17.139  22.206
 1357POPC   C4A28216  19.059  17.061  22.060
 1357POPC   C1B28217  19.456  17.112  22.549
 1357POPC   C2B28218  19.345  17.034  22.403
 1357POPC   C3B28219  19.233  16.956  22.257
 1357POPC   C4B28220  19.121  16.878  22.110
 1358POPC   NC328221  -6.431   4.473   4.326
 1358POPC   PO428222  -6.250   4.535   4.385
 1358POPC   GL128223  -6.069   4.597   4.444
 1358POPC   GL228224  -6.111   4.649   4.519
 1358POPC   C1A28225  -5.888   4.659   4.503
 1358POPC   D2A28226  -5.708   4.721   4.562
 1358POPC   C3A28227  -5.527   4.783   4.621
 1358POPC   C4A28228  -5.346   4.845   4.680
 1358POPC   C1B28229  -5.873   4.499   4.622
 1358POPC   C2B28230  -5.692   4.561   4.681
 1358POPC   C3B28231  -5.511   4.623   4.740
 1358POPC   C4B28232  -5.330   4.685   4.799
 1359POPC   NC328233  12.610  26.945   4.560
 1359POPC   PO428234  12.575  26.758   4.621
 1359POPC   GL128235  12.540  26.571   4.682
 1359POPC   GL228236  12.614  26.579   4.749
 1359POPC   C1A28237  12.505  26.384   4.743
 1359POPC   D2A28238  12.469  26.197   4.805
 1359POPC   C3A28239  12.434  26.010   4.866
 1359POPC   C4A28240  12.399  25.823   4.927
 1359POPC   C1B28241  12.375  26.453   4.879
 1359POPC   C2B28242  12.340  26.266   4.940
 1359POPC   C3B28243  12.305  26.079   5.002
 1359POPC   C4B28244  12.269  25.892   5.063
 1360POPC   NC328245   4.992  -1.589  -3.036
 1360POPC   PO428246   5.046  -1.460  -2.893
 1360POPC   GL128247   5.100  -1.331  -2.750
 1360POPC   GL228248   5.189  -1.320  -2.794
 1360POPC   C1A28249   5.154  -1.201  -2.608
 1360POPC   D2A28250   5.208  -1.072  -2.465
 1360POPC   C3A28251   5.262  -0.942  -2.323
 1360POPC   C4A28252   5.316  -0.813  -2.180
 1360POPC   C1B28253   5.082  -1.050  -2.717
 1360POPC   C2B28254   5.136  -0.921  -2.575
 1360POPC   C3B28255   5.190  -0.791  -2.432
 1360POPC   C4B28256   5.244  -0.662  -2.290
 1361POPC   NC328257   3.292  20.316  23.204
 1361POPC   PO428258   3.363  20.200  23.058
 1361POPC   GL128259   3.434  20.084  22.912
 1361POPC   GL228260   3.469  20.019  22.980
 1361POPC   C1A28261   3.505  19.968  22.765
 1361POPC   D2A28262   3.576  19.851  22.619
 1361POPC   C3A28263   3.647  19.735  22.472
 1361POPC   C4A28264   3.718  19.619  22.326
 1361POPC   C1B28265   3.331  19.869  22.759
 1361POPC   C2B28266   3.402  19.752  22.613
 1361POPC   C3B28267   3.473  19.636  22.467
 1361POPC   C4B28268   3.544  19.520  22.320
 1362POPC   NC328269   3.971   9.331  -7.130
 1362POPC   PO428270   4.036   9.338  -6.941
 1362POPC   GL128271   4.101   9.345  -6.752
 1362POPC   GL228272   4.100   9.245  -6.748
 1362POPC   C1A28273   4.166   9.351  -6.563
 1362POPC   D2A28274   4.230   9.358  -6.374
 1362POPC   C3A28275   4.295   9.364  -6.185
 1362POPC   C4A28276   4.360   9.371  -5.996
 1362POPC   C1B28277   4.355   9.347  -6.628
 1362POPC   C2B28278   4.420   9.354  -6.439
 1362POPC   C3B28279   4.484   9.360  -6.250
 1362POPC   C4B28280   4.549   9.367  -6.061
 1363POPC   NC328281  12.355  13.965  -7.486
 1363POPC   PO428282  12.327  13.918  -7.294
 1363POPC   GL128283  12.299  13.871  -7.102
 1363POPC   GL228284  12.231  13.803  -7.128
 1363POPC   C1A28285  12.272  13.824  -6.909
 1363POPC   D2A28286  12.244  13.778  -6.717
 1363POPC   C3A28287  12.217  13.731  -6.524
 1363POPC   C4A28288  12.189  13.684  -6.332
 1363POPC   C1B28289  12.415  13.685  -6.922
 1363POPC   C2B28290  12.387  13.638  -6.730
 1363POPC   C3B28291  12.359  13.591  -6.538
 1363POPC   C4B28292  12.332  13.545  -6.345
 1364POPC   NC328293   2.902  -4.807  17.632
 1364POPC   PO428294   2.978  -4.643  17.546
 1364POPC   GL128295   3.054  -4.479  17.460
 1364POPC   GL228296   3.145  -4.504  17.493
 1364POPC   C1A28297   3.130  -4.315  17.375
 1364POPC   D2A28298   3.207  -4.152  17.289
 1364POPC   C3A28299   3.283  -3.988  17.204
 1364POPC   C4A28300   3.359  -3.824  17.118
 1364POPC   C1B28301   3.163  -4.419  17.207
 1364POPC   C2B28302   3.239  -4.255  17.121
 1364POPC   C3B28303   3.315  -4.091  17.035
 1364POPC   C4B28304   3.392  -3.927  16.950
 1365POPC   NC328305   2.984  26.437   7.011
 1365POPC   PO428306   3.068  26.258   7.043
 1365POPC   GL128307   3.152  26.079   7.075
 1365POPC   GL228308   3.138  26.091   7.174
 1365POPC   C1A28309   3.235  25.900   7.108
 1365POPC   D2A28310   3.319  25.722   7.140
 1365POPC   C3A28311   3.402  25.543   7.173
 1365POPC   C4A28312   3.486  25.364   7.205
 1365POPC   C1B28313   3.056  25.814   7.092
 1365POPC   C2B28314   3.139  25.635   7.125
 1365POPC   C3B28315   3.223  25.456   7.157
 1365POPC   C4B28316   3.306  25.277   7.190
 1366POPC   NC328317  -2.709  -2.515  13.415
 1366POPC   PO428318  -2.571  -2.375  13.377
 1366POPC   GL128319  -2.433  -2.235  13.339
 1366POPC   GL228320  -2.377  -2.271  13.415
 1366POPC   C1A28321  -2.295  -2.096  13.302
 1366POPC   D2A28322  -2.156  -1.956  13.264
 1366POPC   C3A28323  -2.018  -1.817  13.227
 1366POPC   C4A28324  -1.880  -1.677  13.189
 1366POPC   C1B28325  -2.203  -2.221  13.175
 1366POPC   C2B28326  -2.065  -2.081  13.138
 1366POPC   C3B28327  -1.926  -1.941  13.100
 1366POPC   C4B28328  -1.788  -1.802  13.062
 1367POPC   NC328329  17.154  22.859  -0.382
 1367POPC   PO428330  17.067  22.717  -0.271
 1367POPC   GL128331  16.980  22.575  -0.160
 1367POPC   GL228332  16.939  22.536  -0.242
 1367POPC   C1A28333  16.893  22.433  -0.049
 1367POPC   D2A28334  16.806  22.292   0.063
 1367POPC   C3A28335  16.719  22.150   0.174
 1367POPC   C4A28336  16.632  22.008   0.285
 1367POPC   C1B28337  17.053  22.316  -0.072
 1367POPC   C2B28338  16.966  22.175   0.039
 1367POPC   C3B28339  16.879  22.033   0.150
 1367POPC   C4B28340  16.792  21.891   0.261
 1368POPC   NC328341   2.972  26.693   9.972
 1368POPC   PO428342   3.052  26.510   9.971
 1368POPC   GL128343   3.132  26.327   9.970
 1368POPC   GL228344   3.193  26.354   9.896
 1368POPC   C1A28345   3.211  26.143   9.969
 1368POPC   D2A28346   3.291  25.960   9.969
 1368POPC   C3A28347   3.370  25.776   9.968
 1368POPC   C4A28348   3.450  25.593   9.967
 1368POPC   C1B28349   3.347  26.202  10.104
 1368POPC   C2B28350   3.427  26.018  10.103
 1368POPC   C3B28351   3.507  25.835  10.102
 1368POPC   C4B28352   3.586  25.651  10.101
 1369POPC   NC328353   9.186  11.807  -8.021
 1369POPC   PO428354   9.195  11.787  -7.822
 1369POPC   GL128355   9.204  11.767  -7.623
 1369POPC   GL228356   9.287  11.712  -7.632
 1369POPC   C1A28357   9.213  11.747  -7.424
 1369POPC   D2A28358   9.222  11.728  -7.226
 1369POPC   C3A28359   9.231  11.708  -7.027
 1369POPC   C4A28360   9.240  11.688  -6.828
 1369POPC   C1B28361   9.324  11.913  -7.413
 1369POPC   C2B28362   9.333  11.893  -7.214
 1369POPC   C3B28363   9.342  11.873  -7.015
 1369POPC   C4B28364   9.351  11.854  -6.817
 1370POPC   NC328365  17.848  25.382   4.955
 1370POPC   PO428366  17.763  25.208   5.006
 1370POPC   GL128367  17.678  25.034   5.057
 1370POPC   GL228368  17.755  24.985   5.015
 1370POPC   C1A28369  17.594  24.860   5.108
 1370POPC   D2A28370  17.509  24.687   5.159
 1370POPC   C3A28371  17.425  24.513   5.210
 1370POPC   C4A28372  17.340  24.339   5.261
 1370POPC   C1B28373  17.692  24.864   5.282
 1370POPC   C2B28374  17.607  24.690   5.333
 1370POPC   C3B28375  17.523  24.516   5.384
 1370POPC   C4B28376  17.438  24.342   5.435
 1371POPC   NC328377  16.077  -5.799   3.865
 1371POPC   PO428378  16.005  -5.624   3.931
 1371POPC   GL128379  15.933  -5.449   3.997
 1371POPC   GL228380  16.002  -5.449   4.070
 1371POPC   C1A28381  15.862  -5.274   4.063
 1371POPC   D2A28382  15.790  -5.100   4.129
 1371POPC   C3A28383  15.719  -4.925   4.195
 1371POPC   C4A28384  15.647  -4.750   4.261
 1371POPC   C1B28385  15.988  -5.177   3.942
 1371POPC   C2B28386  15.917  -5.002   4.008
 1371POPC   C3B28387  15.845  -4.827   4.074
 1371POPC   C4B28388  15.773  -4.653   4.140
 1372POPC   NC328389  -5.164   9.222  19.894
 1372POPC   PO428390  -4.999   9.228  19.782
 1372POPC   GL128391  -4.834   9.234  19.670
 1372POPC   GL228392  -4.785   9.179  19.738
 1372POPC   C1A28393  -4.668   9.240  19.557
 1372POPC   D2A28394  -4.503   9.247  19.445
 1372POPC   C3A28395  -4.337   9.253  19.332
 1372POPC   C4A28396  -4.172   9.259  19.220
 1372POPC   C1B28397  -4.726   9.074  19.463
 1372POPC   C2B28398  -4.561   9.080  19.351
 1372POPC   C3B28399  -4.395   9.086  19.238
 1372POPC   C4B28400  -4.230   9.092  19.126
 1373POPC   NC328401  26.768   9.036   3.680
 1373POPC   PO428402  26.579   9.045   3.746
 1373POPC   GL128403  26.390   9.054   3.812
 1373POPC   GL228404  26.388   9.151   3.791
 1373POPC   C1A28405  26.202   9.062   3.878
 1373POPC   D2A28406  26.013   9.071   3.944
 1373POPC   C3A28407  25.825   9.079   4.010
 1373POPC   C4A28408  25.636   9.088   4.076
 1373POPC   C1B28409  26.135   9.022   3.694
 1373POPC   C2B28410  25.947   9.030   3.760
 1373POPC   C3B28411  25.758   9.039   3.826
 1373POPC   C4B28412  25.570   9.047   3.892
 1374POPC   NC328413  -4.267  21.237  10.576
 1374POPC   PO428414  -4.112  21.112  10.566
 1374POPC   GL128415  -3.957  20.987  10.556
 1374POPC   GL228416  -3.910  21.038  10.627
 1374POPC   C1A28417  -3.801  20.861  10.545
 1374POPC   D2A28418  -3.646  20.736  10.535
 1374POPC   C3A28419  -3.490  20.610  10.524
 1374POPC   C4A28420  -3.335  20.485  10.514
 1374POPC   C1B28421  -3.886  20.745  10.684
 1374POPC   C2B28422  -3.730  20.620  10.674
 1374POPC   C3B28423  -3.575  20.494  10.663
 1374POPC   C4B28424  -3.419  20.369  10.653
 1375POPC   NC328425  -7.139   4.231   8.462
 1375POPC   PO428426  -6.951   4.297   8.480
 1375POPC   GL128427  -6.763   4.363   8.498
 1375POPC   GL228428  -6.748   4.300   8.573
 1375POPC   C1A28429  -6.575   4.430   8.516
 1375POPC   D2A28430  -6.388   4.496   8.534
 1375POPC   C3A28431  -6.200   4.563   8.552
 1375POPC   C4A28432  -6.012   4.629   8.570
 1375POPC   C1B28433  -6.514   4.291   8.386
 1375POPC   C2B28434  -6.326   4.357   8.404
 1375POPC   C3B28435  -6.138   4.424   8.422
 1375POPC   C4B28436  -5.951   4.490   8.440
 1376POPC   NC328437  -6.904   5.577  14.947
 1376POPC   PO428438  -6.717   5.627  14.896
 1376POPC   GL128439  -6.530   5.677  14.845
 1376POPC   GL228440  -6.506   5.687  14.942
 1376POPC   C1A28441  -6.343   5.727  14.795
 1376POPC   D2A28442  -6.156   5.776  14.744
 1376POPC   C3A28443  -5.969   5.826  14.694
 1376POPC   C4A28444  -5.782   5.876  14.643
 1376POPC   C1B28445  -6.290   5.534  14.802
 1376POPC   C2B28446  -6.103   5.584  14.751
 1376POPC   C3B28447  -5.916   5.634  14.700
 1376POPC   C4B28448  -5.729   5.683  14.650
 1377POPC   NC328449  11.467  27.935  10.551
 1377POPC   PO428450  11.451  27.736  10.544
 1377POPC   GL128451  11.435  27.537  10.537
 1377POPC   GL228452  11.533  27.529  10.519
 1377POPC   C1A28453  11.419  27.338  10.529
 1377POPC   D2A28454  11.402  27.138  10.522
 1377POPC   C3A28455  11.386  26.939  10.514
 1377POPC   C4A28456  11.370  26.740  10.507
 1377POPC   C1B28457  11.452  27.327  10.726
 1377POPC   C2B28458  11.436  27.128  10.719
 1377POPC   C3B28459  11.420  26.929  10.711
 1377POPC   C4B28460  11.404  26.730  10.704
 1378POPC   NC328461  -4.681  14.815   0.281
 1378POPC   PO428462  -4.518  14.758   0.381
 1378POPC   GL128463  -4.355  14.701   0.481
 1378POPC   GL228464  -4.310  14.787   0.457
 1378POPC   C1A28465  -4.191  14.644   0.581
 1378POPC   D2A28466  -4.028  14.586   0.682
 1378POPC   C3A28467  -3.864  14.529   0.782
 1378POPC   C4A28468  -3.701  14.472   0.882
 1378POPC   C1B28469  -4.263  14.729   0.747
 1378POPC   C2B28470  -4.100  14.671   0.848
 1378POPC   C3B28471  -3.937  14.614   0.948
 1378POPC   C4B28472  -3.773  14.557   1.048
 1379POPC   NC328473  17.393  13.223  -6.177
 1379POPC   PO428474  17.308  13.191  -5.999
 1379POPC   GL128475  17.223  13.159  -5.821
 1379POPC   GL228476  17.162  13.091  -5.862
 1379POPC   C1A28477  17.138  13.127  -5.643
 1379POPC   D2A28478  17.053  13.095  -5.464
 1379POPC   C3A28479  16.968  13.063  -5.286
 1379POPC   C4A28480  16.883  13.031  -5.108
 1379POPC   C1B28481  17.272  12.983  -5.605
 1379POPC   C2B28482  17.187  12.951  -5.426
 1379POPC   C3B28483  17.102  12.919  -5.248
 1379POPC   C4B28484  17.017  12.887  -5.070
 1380POPC   NC328485  25.513  17.836  14.359
 1380POPC   PO428486  25.341  17.745  14.314
 1380POPC   GL128487  25.169  17.654  14.269
 1380POPC   GL228488  25.157  17.715  14.190
 1380POPC   C1A28489  24.996  17.564  14.224
 1380POPC   D2A28490  24.824  17.473  14.178
 1380POPC   C3A28491  24.651  17.383  14.133
 1380POPC   C4A28492  24.479  17.292  14.088
 1380POPC   C1B28493  25.095  17.433  14.109
 1380POPC   C2B28494  24.923  17.342  14.064
 1380POPC   C3B28495  24.750  17.252  14.019
 1380POPC   C4B28496  24.578  17.161  13.974
 1381POPC   NC328497  -4.718   0.035  13.710
 1381POPC   PO428498  -4.555   0.143  13.666
 1381POPC   GL128499  -4.392   0.251  13.622
 1381POPC   GL228500  -4.339   0.167  13.615
 1381POPC   C1A28501  -4.229   0.358  13.578
 1381POPC   D2A28502  -4.067   0.466  13.533
 1381POPC   C3A28503  -3.904   0.573  13.489
 1381POPC   C4A28504  -3.741   0.681  13.445
 1381POPC   C1B28505  -4.274   0.346  13.383
 1381POPC   C2B28506  -4.111   0.454  13.339
 1381POPC   C3B28507  -3.949   0.561  13.295
 1381POPC   C4B28508  -3.786   0.669  13.250
 1382POPC   NC328509  19.693  -2.647  18.308
 1382POPC   PO428510  19.582  -2.510  18.213
 1382POPC   GL128511  19.471  -2.373  18.118
 1382POPC   GL228512  19.551  -2.312  18.113
 1382POPC   C1A28513  19.361  -2.236  18.024
 1382POPC   D2A28514  19.250  -2.098  17.929
 1382POPC   C3A28515  19.140  -1.961  17.835
 1382POPC   C4A28516  19.029  -1.824  17.740
 1382POPC   C1B28517  19.411  -2.316  17.848
 1382POPC   C2B28518  19.301  -2.179  17.753
 1382POPC   C3B28519  19.190  -2.042  17.659
 1382POPC   C4B28520  19.079  -1.905  17.564
 1383POPC   NC328521  12.660  -7.533  13.300
 1383POPC   PO428522  12.631  -7.339  13.262
 1383POPC   GL128523  12.602  -7.145  13.224
 1383POPC   GL228524  12.649  -7.155  13.137
 1383POPC   C1A28525  12.573  -6.951  13.186
 1383POPC   D2A28526  12.543  -6.756  13.149
 1383POPC   C3A28527  12.514  -6.562  13.111
 1383POPC   C4A28528  12.485  -6.368  13.073
 1383POPC   C1B28529  12.399  -6.994  13.098
 1383POPC   C2B28530  12.370  -6.800  13.060
 1383POPC   C3B28531  12.340  -6.606  13.022
 1383POPC   C4B28532  12.311  -6.411  12.984
 1384POPC   NC328533   2.727  -4.574  17.912
 1384POPC   PO428534   2.806  -4.413  17.823
 1384POPC   GL128535   2.885  -4.252  17.734
 1384POPC   GL228536   2.961  -4.253  17.799
 1384POPC   C1A28537   2.963  -4.091  17.644
 1384POPC   D2A28538   3.042  -3.931  17.555
 1384POPC   C3A28539   3.120  -3.770  17.465
 1384POPC   C4A28540   3.199  -3.609  17.376
 1384POPC   C1B28541   3.067  -4.210  17.521
 1384POPC   C2B28542   3.145  -4.050  17.432
 1384POPC   C3B28543   3.224  -3.889  17.343
 1384POPC   C4B28544   3.303  -3.728  17.253
 1385POPC   NC328545  12.972  27.616   7.660
 1385POPC   PO428546  12.937  27.421   7.688
 1385POPC   GL128547  12.902  27.226   7.716
 1385POPC   GL228548  12.945  27.231   7.806
 1385POPC   C1A28549  12.867  27.031   7.744
 1385POPC   D2A28550  12.832  26.836   7.771
 1385POPC   C3A28551  12.797  26.641   7.799
 1385POPC   C4A28552  12.762  26.446   7.827
 1385POPC   C1B28553  12.690  27.075   7.827
 1385POPC   C2B28554  12.655  26.880   7.854
 1385POPC   C3B28555  12.620  26.685   7.882
 1385POPC   C4B28556  12.585  26.490   7.910
 1386POPC   NC328557   5.819  12.154  27.270
 1386POPC   PO428558   5.865  12.133  27.076
 1386POPC   GL128559   5.911  12.112  26.882
 1386POPC   GL228560   5.920  12.211  26.874
 1386POPC   C1A28561   5.956  12.091  26.689
 1386POPC   D2A28562   6.002  12.069  26.495
 1386POPC   C3A28563   6.047  12.048  26.302
 1386POPC   C4A28564   6.093  12.027  26.108
 1386POPC   C1B28565   6.150  12.077  26.736
 1386POPC   C2B28566   6.196  12.056  26.542
 1386POPC   C3B28567   6.241  12.035  26.349
 1386POPC   C4B28568   6.287  12.014  26.155
 1387POPC   NC328569  20.661  22.735  16.476
 1387POPC   PO428570  20.540  22.594  16.403
 1387POPC   GL128571  20.419  22.453  16.330
 1387POPC   GL228572  20.404  22.508  16.248
 1387POPC   C1A28573  20.298  22.311  16.257
 1387POPC   D2A28574  20.176  22.170  16.184
 1387POPC   C3A28575  20.055  22.028  16.111
 1387POPC   C4A28576  19.934  21.887  16.038
 1387POPC   C1B28577  20.454  22.223  16.169
 1387POPC   C2B28578  20.333  22.082  16.096
 1387POPC   C3B28579  20.211  21.940  16.023
 1387POPC   C4B28580  20.090  21.799  15.950
 1388POPC   NC328581   8.215  21.778  23.472
 1388POPC   PO428582   8.237  21.644  23.325
 1388POPC   GL128583   8.259  21.510  23.178
 1388POPC   GL228584   8.288  21.583  23.116
 1388POPC   C1A28585   8.281  21.376  23.031
 1388POPC   D2A28586   8.304  21.242  22.885
 1388POPC   C3A28587   8.326  21.108  22.738
 1388POPC   C4A28588   8.348  20.974  22.591
 1388POPC   C1B28589   8.471  21.347  23.086
 1388POPC   C2B28590   8.494  21.213  22.940
 1388POPC   C3B28591   8.516  21.079  22.793
 1388POPC   C4B28592   8.538  20.945  22.646
 1389POPC   NC328593   4.169  -1.884  22.318
 1389POPC   PO428594   4.232  -1.749  22.184
 1389POPC   GL128595   4.295  -1.614  22.050
 1389POPC   GL228596   4.301  -1.546  22.122
 1389POPC   C1A28597   4.357  -1.480  21.916
 1389POPC   D2A28598   4.420  -1.345  21.782
 1389POPC   C3A28599   4.482  -1.211  21.648
 1389POPC   C4A28600   4.545  -1.076  21.514
 1389POPC   C1B28601   4.547  -1.534  21.950
 1389POPC   C2B28602   4.609  -1.399  21.816
 1389POPC   C3B28603   4.672  -1.265  21.682
 1389POPC   C4B28604   4.734  -1.130  21.548
 1390POPC   NC328605  15.327  -7.195   8.916
 1390POPC   PO428606  15.261  -7.007   8.930
 1390POPC   GL128607  15.195  -6.819   8.944
 1390POPC   GL228608  15.289  -6.786   8.954
 1390POPC   C1A28609  15.129  -6.630   8.957
 1390POPC   D2A28610  15.064  -6.442   8.971
 1390POPC   C3A28611  14.998  -6.253   8.984
 1390POPC   C4A28612  14.932  -6.065   8.998
 1390POPC   C1B28613  15.144  -6.611   8.759
 1390POPC   C2B28614  15.078  -6.422   8.772
 1390POPC   C3B28615  15.013  -6.234   8.786
 1390POPC   C4B28616  14.947  -6.045   8.800
 1391POPC   NC328617  24.626   5.732  19.297
 1391POPC   PO428618  24.463   5.778  19.191
 1391POPC   GL128619  24.300   5.824  19.085
 1391POPC   GL228620  24.343   5.786  19.003
 1391POPC   C1A28621  24.137   5.869  18.979
 1391POPC   D2A28622  23.973   5.915  18.872
 1391POPC   C3A28623  23.810   5.960  18.766
 1391POPC   C4A28624  23.647   6.006  18.660
 1391POPC   C1B28625  24.059   5.690  19.021
 1391POPC   C2B28626  23.896   5.736  18.915
 1391POPC   C3B28627  23.732   5.781  18.809
 1391POPC   C4B28628  23.569   5.827  18.702
 1392POPC   NC328629  -4.923   5.390   0.555
 1392POPC   PO428630  -4.759   5.434   0.660
 1392POPC   GL128631  -4.595   5.478   0.765
 1392POPC   GL228632  -4.635   5.436   0.846
 1392POPC   C1A28633  -4.430   5.522   0.870
 1392POPC   D2A28634  -4.266   5.565   0.975
 1392POPC   C3A28635  -4.101   5.609   1.080
 1392POPC   C4A28636  -3.937   5.653   1.185
 1392POPC   C1B28637  -4.351   5.345   0.820
 1392POPC   C2B28638  -4.187   5.389   0.925
 1392POPC   C3B28639  -4.022   5.432   1.030
 1392POPC   C4B28640  -3.858   5.476   1.135
 1393POPC   NC328641  12.492  -5.105   0.367
 1393POPC   PO428642  12.464  -4.938   0.474
 1393POPC   GL128643  12.436  -4.771   0.581
 1393POPC   GL228644  12.414  -4.721   0.497
 1393POPC   C1A28645  12.407  -4.604   0.687
 1393POPC   D2A28646  12.379  -4.438   0.794
 1393POPC   C3A28647  12.350  -4.271   0.900
 1393POPC   C4A28648  12.322  -4.104   1.007
 1393POPC   C1B28649  12.214  -4.652   0.710
 1393POPC   C2B28650  12.186  -4.485   0.816
 1393POPC   C3B28651  12.157  -4.318   0.923
 1393POPC   C4B28652  12.129  -4.151   1.030
 1394POPC   NC328653   7.194  24.144  20.818
 1394POPC   PO428654   7.226  23.991  20.693
 1394POPC   GL128655   7.258  23.838  20.568
 1394POPC   GL228656   7.348  23.823  20.610
 1394POPC   C1A28657   7.290  23.685  20.444
 1394POPC   D2A28658   7.323  23.532  20.319
 1394POPC   C3A28659   7.355  23.379  20.195
 1394POPC   C4A28660   7.387  23.226  20.070
 1394POPC   C1B28661   7.209  23.560  20.577
 1394POPC   C2B28662   7.241  23.407  20.452
 1394POPC   C3B28663   7.273  23.254  20.327
 1394POPC   C4B28664   7.305  23.101  20.203
 1395POPC   NC328665  16.968  -4.662   2.169
 1395POPC   PO428666  16.887  -4.498   2.251
 1395POPC   GL128667  16.806  -4.334   2.333
 1395POPC   GL228668  16.879  -4.279   2.294
 1395POPC   C1A28669  16.725  -4.171   2.414
 1395POPC   D2A28670  16.644  -4.007   2.496
 1395POPC   C3A28671  16.563  -3.844   2.577
 1395POPC   C4A28672  16.482  -3.680   2.659
 1395POPC   C1B28673  16.616  -4.143   2.249
 1395POPC   C2B28674  16.535  -3.979   2.331
 1395POPC   C3B28675  16.454  -3.815   2.412
 1395POPC   C4B28676  16.373  -3.652   2.494
 1396POPC   NC328677  -7.655   7.295  13.250
 1396POPC   PO428678  -7.461   7.327  13.213
 1396POPC   GL128679  -7.267   7.359  13.176
 1396POPC   GL228680  -7.245   7.334  13.271
 1396POPC   C1A28681  -7.073   7.390  13.140
 1396POPC   D2A28682  -6.879   7.422  13.103
 1396POPC   C3A28683  -6.685   7.453  13.067
 1396POPC   C4A28684  -6.491   7.485  13.030
 1396POPC   C1B28685  -7.052   7.199  13.086
 1396POPC   C2B28686  -6.858   7.230  13.049
 1396POPC   C3B28687  -6.664   7.262  13.013
 1396POPC   C4B28688  -6.470   7.294  12.976
 1397POPC   NC328689  -6.180   3.215  14.600
 1397POPC   PO428690  -6.002   3.291  14.550
 1397POPC   GL128691  -5.824   3.367  14.500
 1397POPC   GL228692  -5.825   3.424  14.582
 1397POPC   C1A28693  -5.646   3.443  14.450
 1397POPC   D2A28694  -5.467   3.519  14.400
 1397POPC   C3A28695  -5.289   3.595  14.350
 1397POPC   C4A28696  -5.111   3.671  14.300
 1397POPC   C1B28697  -5.555   3.297  14.553
 1397POPC   C2B28698  -5.376   3.373  14.503
 1397POPC   C3B28699  -5.198   3.449  14.453
 1397POPC   C4B28700  -5.020   3.525  14.403
 1398POPC   NC328701   2.325  -4.402  17.851
 1398POPC   PO428702   2.408  -4.244  17.761
 1398POPC   GL128703   2.491  -4.086  17.671
 1398POPC   GL228704   2.577  -4.104  17.719
 1398POPC   C1A28705   2.575  -3.928  17.581
 1398POPC   D2A28706   2.658  -3.770  17.491
 1398POPC   C3A28707   2.742  -3.612  17.401
 1398POPC   C4A28708   2.825  -3.454  17.311
 1398POPC   C1B28709   2.635  -4.045  17.431
 1398POPC   C2B28710   2.719  -3.887  17.341
 1398POPC   C3B28711   2.802  -3.729  17.251
 1398POPC   C4B28712   2.885  -3.571  17.161
 1399POPC   NC328713  22.967  21.157  15.133
 1399POPC   PO428714  22.826  21.029  15.074
 1399POPC   GL128715  22.685  20.901  15.015
 1399POPC   GL228716  22.748  20.824  15.028
 1399POPC   C1A28717  22.543  20.772  14.956
 1399POPC   D2A28718  22.402  20.644  14.897
 1399POPC   C3A28719  22.260  20.515  14.838
 1399POPC   C4A28720  22.119  20.387  14.779
 1399POPC   C1B28721  22.481  20.753  15.145
 1399POPC   C2B28722  22.340  20.625  15.086
 1399POPC   C3B28723  22.198  20.497  15.027
 1399POPC   C4B28724  22.057  20.368  14.968
 1400POPC   NC328725  24.484  19.766  13.935
 1400POPC   PO428726  24.323  19.656  13.890
 1400POPC   GL128727  24.162  19.546  13.845
 1400POPC   GL228728  24.172  19.571  13.749
 1400POPC   C1A28729  24.001  19.436  13.801
 1400POPC   D2A28730  23.840  19.327  13.756
 1400POPC   C3A28731  23.679  19.217  13.712
 1400POPC   C4A28732  23.518  19.107  13.667
 1400POPC   C1B28733  24.118  19.277  13.771
 1400POPC   C2B28734  23.957  19.167  13.726
 1400POPC   C3B28735  23.796  19.057  13.682
 1400POPC   C4B28736  23.635  18.948  13.637
 1401POPC   NC328737  16.267  16.049  -5.837
 1401POPC   PO428738  16.199  15.979  -5.662
 1401POPC   GL128739  16.131  15.909  -5.487
 1401POPC   GL228740  16.153  15.816  -5.516
 1401POPC   C1A28741  16.063  15.839  -5.313
 1401POPC   D2A28742  15.995  15.769  -5.138
 1401POPC   C3A28743  15.927  15.699  -4.964
 1401POPC   C4A28744  15.859  15.629  -4.789
 1401POPC   C1B28745  16.246  15.858  -5.234
 1401POPC   C2B28746  16.178  15.788  -5.059
 1401POPC   C3B28747  16.110  15.718  -4.885
 1401POPC   C4B28748  16.042  15.648  -4.710
 1402POPC   NC328749  18.384  12.969  -5.708
 1402POPC   PO428750  18.287  12.941  -5.535
 1402POPC   GL128751  18.190  12.913  -5.362
 1402POPC   GL228752  18.106  12.896  -5.412
 1402POPC   C1A28753  18.094  12.886  -5.189
 1402POPC   D2A28754  17.997  12.858  -5.017
 1402POPC   C3A28755  17.901  12.831  -4.844
 1402POPC   C4A28756  17.804  12.803  -4.671
 1402POPC   C1B28757  18.137  12.691  -5.196
 1402POPC   C2B28758  18.041  12.663  -5.024
 1402POPC   C3B28759  17.944  12.635  -4.851
 1402POPC   C4B28760  17.847  12.608  -4.678
 1403POPC   NC328761   4.732  26.410  15.363
 1403POPC   PO428762   4.787  26.228  15.301
 1403POPC   GL128763   4.842  26.046  15.239
 1403POPC   GL228764   4.924  26.085  15.197
 1403POPC   C1A28765   4.897  25.864  15.177
 1403POPC   D2A28766   4.952  25.682  15.115
 1403POPC   C3A28767   5.007  25.500  15.053
 1403POPC   C4A28768   5.062  25.318  14.991
 1403POPC   C1B28769   4.997  25.836  15.348
 1403POPC   C2B28770   5.052  25.654  15.286
 1403POPC   C3B28771   5.107  25.472  15.224
 1403POPC   C4B28772   5.162  25.290  15.162
 1404POPC   NC328773   4.261  -2.877  21.307
 1404POPC   PO428774   4.322  -2.734  21.181
 1404POPC   GL128775   4.383  -2.591  21.055
 1404POPC   GL228776   4.450  -2.655  21.016
 1404POPC   C1A28777   4.444  -2.448  20.929
 1404POPC   D2A28778   4.506  -2.306  20.804
 1404POPC   C3A28779   4.567  -2.163  20.678
 1404POPC   C4A28780   4.628  -2.020  20.552
 1404POPC   C1B28781   4.308  -2.508  20.796
 1404POPC   C2B28782   4.369  -2.365  20.670
 1404POPC   C3B28783   4.431  -2.222  20.544
 1404POPC   C4B28784   4.492  -2.079  20.418
 1405POPC   NC328785   0.351  10.353  -5.345
 1405POPC   PO428786   0.460  10.346  -5.177
 1405POPC   GL128787   0.569  10.339  -5.009
 1405POPC   GL228788   0.501  10.396  -4.963
 1405POPC   C1A28789   0.677  10.332  -4.841
 1405POPC   D2A28790   0.786  10.324  -4.674
 1405POPC   C3A28791   0.894  10.317  -4.506
 1405POPC   C4A28792   1.003  10.310  -4.338
 1405POPC   C1B28793   0.578  10.168  -4.784
 1405POPC   C2B28794   0.686  10.161  -4.616
 1405POPC   C3B28795   0.795  10.153  -4.448
 1405POPC   C4B28796   0.904  10.146  -4.281
 1406POPC   NC328797  -1.849  12.454  23.416
 1406POPC   PO428798  -1.722  12.422  23.265
 1406POPC   GL128799  -1.595  12.390  23.114
 1406POPC   GL228800  -1.524  12.362  23.179
 1406POPC   C1A28801  -1.468  12.358  22.963
 1406POPC   D2A28802  -1.340  12.327  22.812
 1406POPC   C3A28803  -1.213  12.295  22.661
 1406POPC   C4A28804  -1.086  12.263  22.510
 1406POPC   C1B28805  -1.531  12.169  22.950
 1406POPC   C2B28806  -1.403  12.137  22.799
 1406POPC   C3B28807  -1.276  12.105  22.648
 1406POPC   C4B28808  -1.149  12.074  22.497
 1407POPC   NC328809  -3.531  14.141  -1.544
 1407POPC   PO428810  -3.387  14.097  -1.413
 1407POPC   GL128811  -3.243  14.053  -1.282
 1407POPC   GL228812  -3.300  13.981  -1.243
 1407POPC   C1A28813  -3.098  14.009  -1.151
 1407POPC   D2A28814  -2.954  13.964  -1.019
 1407POPC   C3A28815  -2.809  13.920  -0.888
 1407POPC   C4A28816  -2.665  13.876  -0.757
 1407POPC   C1B28817  -3.021  13.877  -1.280
 1407POPC   C2B28818  -2.876  13.833  -1.149
 1407POPC   C3B28819  -2.732  13.789  -1.018
 1407POPC   C4B28820  -2.588  13.744  -0.886
 1408POPC   NC328821  10.624  10.188  27.996
 1408POPC   PO428822  10.616  10.186  27.796
 1408POPC   GL128823  10.608  10.184  27.596
 1408POPC   GL228824  10.623  10.283  27.595
 1408POPC   C1A28825  10.600  10.183  27.396
 1408POPC   D2A28826  10.592  10.181  27.197
 1408POPC   C3A28827  10.584  10.180  26.997
 1408POPC   C4A28828  10.576  10.178  26.797
 1408POPC   C1B28829  10.797  10.152  27.389
 1408POPC   C2B28830  10.789  10.150  27.189
 1408POPC   C3B28831  10.781  10.149  26.989
 1408POPC   C4B28832  10.773  10.147  26.789
 1409POPC   NC328833  19.415  25.002   7.086
 1409POPC   PO428834  19.313  24.832   7.112
 1409POPC   GL128835  19.211  24.662   7.138
 1409POPC   GL228836  19.281  24.612   7.086
 1409POPC   C1A28837  19.110  24.491   7.164
 1409POPC   D2A28838  19.008  24.321   7.189
 1409POPC   C3A28839  18.907  24.150   7.215
 1409POPC   C4A28840  18.805  23.980   7.241
 1409POPC   C1B28841  19.211  24.456   7.332
 1409POPC   C2B28842  19.110  24.286   7.358
 1409POPC   C3B28843  19.008  24.115   7.384
 1409POPC   C4B28844  18.906  23.945   7.410
 1410POPC   NC328845   8.050  16.835  -6.684
 1410POPC   PO428846   8.069  16.759  -6.500
 1410POPC   GL128847   8.088  16.683  -6.316
 1410POPC   GL228848   8.126  16.770  -6.284
 1410POPC   C1A28849   8.107  16.606  -6.132
 1410POPC   D2A28850   8.126  16.530  -5.949
 1410POPC   C3A28851   8.145  16.453  -5.765
 1410POPC   C4A28852   8.164  16.377  -5.581
 1410POPC   C1B28853   7.923  16.669  -6.087
 1410POPC   C2B28854   7.942  16.593  -5.903
 1410POPC   C3B28855   7.961  16.517  -5.719
 1410POPC   C4B28856   7.980  16.440  -5.536
 1411POPC   NC328857   1.333  23.241   1.224
 1411POPC   PO428858   1.430  23.093   1.317
 1411POPC   GL128859   1.527  22.945   1.410
 1411POPC   GL228860   1.608  23.004   1.420
 1411POPC   C1A28861   1.624  22.797   1.503
 1411POPC   D2A28862   1.722  22.649   1.596
 1411POPC   C3A28863   1.819  22.501   1.689
 1411POPC   C4A28864   1.916  22.353   1.782
 1411POPC   C1B28865   1.555  22.862   1.679
 1411POPC   C2B28866   1.652  22.714   1.772
 1411POPC   C3B28867   1.750  22.566   1.865
 1411POPC   C4B28868   1.847  22.418   1.958
 1412POPC   NC328869  -2.181   8.140  -3.354
 1412POPC   PO428870  -2.046   8.156  -3.207
 1412POPC   GL128871  -1.911   8.172  -3.060
 1412POPC   GL228872  -1.912   8.073  -3.049
 1412POPC   C1A28873  -1.776   8.188  -2.914
 1412POPC   D2A28874  -1.641   8.205  -2.767
 1412POPC   C3A28875  -1.506   8.221  -2.621
 1412POPC   C4A28876  -1.371   8.237  -2.474
 1412POPC   C1B28877  -1.628   8.171  -3.048
 1412POPC   C2B28878  -1.493   8.188  -2.901
 1412POPC   C3B28879  -1.358   8.204  -2.755
 1412POPC   C4B28880  -1.223   8.220  -2.608
 1413POPC   NC328881  -1.896  23.671  10.878
 1413POPC   PO428882  -1.766  23.519  10.874
 1413POPC   GL128883  -1.636  23.367  10.870
 1413POPC   GL228884  -1.588  23.406  10.949
 1413POPC   C1A28885  -1.506  23.215  10.867
 1413POPC   D2A28886  -1.376  23.063  10.863
 1413POPC   C3A28887  -1.246  22.911  10.860
 1413POPC   C4A28888  -1.116  22.759  10.856
 1413POPC   C1B28889  -1.624  23.111  10.990
 1413POPC   C2B28890  -1.494  22.959  10.986
 1413POPC   C3B28891  -1.364  22.807  10.983
 1413POPC   C4B28892  -1.234  22.655  10.979
 1414POPC   NC328893   0.354   2.241  -3.242
 1414POPC   PO428894   0.461   2.330  -3.098
 1414POPC   GL128895   0.568   2.419  -2.954
 1414POPC   GL228896   0.493   2.406  -2.890
 1414POPC   C1A28897   0.675   2.507  -2.810
 1414POPC   D2A28898   0.782   2.596  -2.667
 1414POPC   C3A28899   0.889   2.684  -2.523
 1414POPC   C4A28900   0.996   2.773  -2.379
 1414POPC   C1B28901   0.751   2.330  -2.758
 1414POPC   C2B28902   0.858   2.418  -2.614
 1414POPC   C3B28903   0.965   2.507  -2.470
 1414POPC   C4B28904   1.072   2.596  -2.326
 1415POPC   NC328905  17.393  -6.092  13.149
 1415POPC   PO428906  17.308  -5.914  13.113
 1415POPC   GL128907  17.223  -5.736  13.077
 1415POPC   GL228908  17.284  -5.694  13.145
 1415POPC   C1A28909  17.138  -5.559  13.042
 1415POPC   D2A28910  17.054  -5.381  13.006
 1415POPC   C3A28911  16.969  -5.204  12.971
 1415POPC   C4A28912  16.884  -5.026  12.935
 1415POPC   C1B28913  17.273  -5.523  12.899
 1415POPC   C2B28914  17.189  -5.345  12.863
 1415POPC   C3B28915  17.104  -5.168  12.828
 1415POPC   C4B28916  17.019  -4.990  12.792
 1416POPC   NC328917  14.654   1.853  -5.492
 1416POPC   PO428918  14.606   1.943  -5.320
 1416POPC   GL128919  14.558   2.033  -5.148
 1416POPC   GL228920  14.652   2.020  -5.115
 1416POPC   C1A28921  14.511   2.123  -4.976
 1416POPC   D2A28922  14.463   2.213  -4.803
 1416POPC   C3A28923  14.416   2.303  -4.631
 1416POPC   C4A28924  14.368   2.393  -4.459
 1416POPC   C1B28925  14.563   2.300  -5.053
 1416POPC   C2B28926  14.515   2.390  -4.881
 1416POPC   C3B28927  14.468   2.480  -4.709
 1416POPC   C4B28928  14.420   2.570  -4.537
 1417POPC   NC328929  -6.076  17.984  12.839
 1417POPC   PO428930  -5.900  17.895  12.807
 1417POPC   GL128931  -5.724  17.806  12.775
 1417POPC   GL228932  -5.714  17.790  12.874
 1417POPC   C1A28933  -5.547  17.718  12.744
 1417POPC   D2A28934  -5.371  17.629  12.712
 1417POPC   C3A28935  -5.194  17.541  12.681
 1417POPC   C4A28936  -5.018  17.452  12.649
 1417POPC   C1B28937  -5.639  17.542  12.722
 1417POPC   C2B28938  -5.463  17.453  12.691
 1417POPC   C3B28939  -5.287  17.364  12.659
 1417POPC   C4B28940  -5.110  17.276  12.627
 1418POPC   NC328941  -4.065  21.483  10.571
 1418POPC   PO428942  -3.912  21.355  10.562
 1418POPC   GL128943  -3.759  21.227  10.553
 1418POPC   GL228944  -3.716  21.273  10.630
 1418POPC   C1A28945  -3.605  21.099  10.543
 1418POPC   D2A28946  -3.452  20.971  10.534
 1418POPC   C3A28947  -3.298  20.843  10.524
 1418POPC   C4A28948  -3.145  20.715  10.515
 1418POPC   C1B28949  -3.701  20.976  10.668
 1418POPC   C2B28950  -3.547  20.848  10.659
 1418POPC   C3B28951  -3.394  20.720  10.650
 1418POPC   C4B28952  -3.240  20.592  10.640
 1419POPC   NC328953   8.232  17.720  -6.312
 1419POPC   PO428954   8.250  17.637  -6.131
 1419POPC   GL128955   8.268  17.554  -5.950
 1419POPC   GL228956   8.274  17.644  -5.909
 1419POPC   C1A28957   8.286  17.470  -5.769
 1419POPC   D2A28958   8.303  17.387  -5.589
 1419POPC   C3A28959   8.321  17.303  -5.408
 1419POPC   C4A28960   8.339  17.220  -5.227
 1419POPC   C1B28961   8.087  17.473  -5.748
 1419POPC   C2B28962   8.105  17.390  -5.568
 1419POPC   C3B28963   8.122  17.307  -5.387
 1419POPC   C4B28964   8.140  17.223  -5.206
 1420POPC   NC328965   9.394   1.300  -5.883
 1420POPC   PO428966   9.397   1.396  -5.707
 1420POPC   GL128967   9.400   1.492  -5.531
 1420POPC   GL228968   9.490   1.528  -5.553
 1420POPC   C1A28969   9.403   1.588  -5.356
 1420POPC   D2A28970   9.405   1.683  -5.180
 1420POPC   C3A28971   9.408   1.779  -5.005
 1420POPC   C4A28972   9.411   1.875  -4.829
 1420POPC   C1B28973   9.318   1.747  -5.441
 1420POPC   C2B28974   9.321   1.843  -5.266
 1420POPC   C3B28975   9.323   1.939  -5.090
 1420POPC   C4B28976   9.326   2.035  -4.915
 1421POPC   NC328977   9.165  24.599  20.557
 1421POPC   PO428978   9.173  24.439  20.438
 1421POPC   GL128979   9.181  24.279  20.319
 1421POPC   GL228980   9.227  24.333  20.248
 1421POPC   C1A28981   9.189  24.119  20.199
 1421POPC   D2A28982   9.198  23.958  20.080
 1421POPC   C3A28983   9.206  23.798  19.960
 1421POPC   C4A28984   9.214  23.638  19.841
 1421POPC   C1B28985   9.367  24.069  20.277
 1421POPC   C2B28986   9.375  23.909  20.158
 1421POPC   C3B28987   9.383  23.749  20.038
 1421POPC   C4B28988   9.391  23.589  19.919
 1422POPC   NC328989   2.267  25.513  15.046
 1422POPC   PO428990   2.354  25.342  14.989
 1422POPC   GL128991   2.441  25.171  14.932
 1422POPC   GL228992   2.521  25.194  14.986
 1422POPC   C1A28993   2.527  25.000  14.875
 1422POPC   D2A28994   2.614  24.829  14.818
 1422POPC   C3A28995   2.700  24.658  14.761
 1422POPC   C4A28996   2.787  24.487  14.704
 1422POPC   C1B28997   2.448  24.907  15.033
 1422POPC   C2B28998   2.534  24.736  14.976
 1422POPC   C3B28999   2.621  24.565  14.919
 1422POPC   C4B29000   2.707  24.394  14.862
 1423POPC   NC329001   0.671  -3.181  18.208
 1423POPC   PO429002   0.772  -3.035  18.116
 1423POPC   GL129003   0.873  -2.889  18.024
 1423POPC   GL229004   0.889  -2.845  18.112
 1423POPC   C1A29005   0.974  -2.743  17.932
 1423POPC   D2A29006   1.075  -2.597  17.839
 1423POPC   C3A29007   1.176  -2.451  17.747
 1423POPC   C4A29008   1.277  -2.305  17.655
 1423POPC   C1B29009   1.144  -2.847  17.953
 1423POPC   C2B29010   1.245  -2.701  17.861
 1423POPC   C3B29011   1.346  -2.555  17.768
 1423POPC   C4B29012   1.447  -2.409  17.676
 1424POPC   NC329013  -2.469   4.185  -1.934
 1424POPC   PO429014  -2.335   4.251  -1.801
 1424POPC   GL129015  -2.201   4.317  -1.668
 1424POPC   GL229016  -2.244   4.262  -1.597
 1424POPC   C1A29017  -2.066   4.383  -1.536
 1424POPC   D2A29018  -1.932   4.450  -1.403
 1424POPC   C3A29019  -1.797   4.516  -1.271
 1424POPC   C4A29020  -1.663   4.582  -1.138
 1424POPC   C1B29021  -1.946   4.230  -1.581
 1424POPC   C2B29022  -1.812   4.296  -1.448
 1424POPC   C3B29023  -1.678   4.362  -1.315
 1424POPC   C4B29024  -1.543   4.428  -1.183
 1425POPC   NC329025  22.769  15.683  -1.379
 1425POPC   PO429026  22.626  15.622  -1.253
 1425POPC   GL129027  22.483  15.561  -1.127
 1425POPC   GL229028  22.504  15.466  -1.150
 1425POPC   C1A29029  22.340  15.501  -1.002
 1425POPC   D2A29030  22.196  15.440  -0.876
 1425POPC   C3A29031  22.053  15.380  -0.751
 1425POPC   C4A29032  21.910  15.319  -0.625
 1425POPC   C1B29033  22.473  15.495  -0.853
 1425POPC   C2B29034  22.330  15.434  -0.727
 1425POPC   C3B29035  22.186  15.374  -0.602
 1425POPC   C4B29036  22.043  15.313  -0.476
 1426POPC   NC329037  -6.615   9.679  17.287
 1426POPC   PO429038  -6.432   9.686  17.207
 1426POPC   GL129039  -6.249   9.693  17.127
 1426POPC   GL229040  -6.236   9.785  17.165
 1426POPC   C1A29041  -6.066   9.700  17.047
 1426POPC   D2A29042  -5.882   9.707  16.968
 1426POPC   C3A29043  -5.699   9.714  16.888
 1426POPC   C4A29044  -5.516   9.721  16.808
 1426POPC   C1B29045  -5.990   9.621  17.215
 1426POPC   C2B29046  -5.807   9.628  17.135
 1426POPC   C3B29047  -5.623   9.635  17.055
 1426POPC   C4B29048  -5.440   9.642  16.975
 1427POPC   NC329049  27.814  11.143   9.940
 1427POPC   PO429050  27.614  11.133   9.938
 1427POPC   GL129051  27.414  11.123   9.936
 1427POPC   GL229052  27.409  11.223   9.927
 1427POPC   C1A29053  27.214  11.113   9.934
 1427POPC   D2A29054  27.015  11.104   9.933
 1427POPC   C3A29055  26.815  11.094   9.931
 1427POPC   C4A29056  26.615  11.084   9.929
 1427POPC   C1B29057  27.217  11.095   9.735
 1427POPC   C2B29058  27.017  11.085   9.733
 1427POPC   C3B29059  26.817  11.075   9.732
 1427POPC   C4B29060  26.618  11.065   9.730
 1428POPC   NC329061  -3.101  13.173  22.082
 1428POPC   PO429062  -2.957  13.139  21.947
 1428POPC   GL129063  -2.813  13.105  21.812
 1428POPC   GL229064  -2.772  13.037  21.873
 1428POPC   C1A29065  -2.670  13.072  21.677
 1428POPC   D2A29066  -2.526  13.038  21.542
 1428POPC   C3A29067  -2.383  13.005  21.407
 1428POPC   C4A29068  -2.239  12.971  21.272
 1428POPC   C1B29069  -2.782  12.929  21.593
 1428POPC   C2B29070  -2.639  12.896  21.458
 1428POPC   C3B29071  -2.495  12.862  21.323
 1428POPC   C4B29072  -2.352  12.829  21.188
 1429POPC   NC329073   3.886   9.598  26.943
 1429POPC   PO429074   3.946   9.594  26.752
 1429POPC   GL129075   4.006   9.590  26.561
 1429POPC   GL229076   4.098   9.562  26.591
 1429POPC   C1A29077   4.066   9.586  26.371
 1429POPC   D2A29078   4.127   9.581  26.180
 1429POPC   C3A29079   4.187   9.577  25.990
 1429POPC   C4A29080   4.247   9.573  25.799
 1429POPC   C1B29081   4.012   9.394  26.358
 1429POPC   C2B29082   4.072   9.389  26.167
 1429POPC   C3B29083   4.132   9.385  25.977
 1429POPC   C4B29084   4.193   9.381  25.786
 1430POPC   NC329085  24.554   4.726   0.778
 1430POPC   PO429086  24.393   4.785   0.881
 1430POPC   GL129087  24.232   4.844   0.984
 1430POPC   GL229088  24.195   4.886   0.901
 1430POPC   C1A29089  24.071   4.903   1.087
 1430POPC   D2A29090  23.910   4.961   1.190
 1430POPC   C3A29091  23.749   5.020   1.293
 1430POPC   C4A29092  23.588   5.079   1.396
 1430POPC   C1B29093  23.979   4.731   1.041
 1430POPC   C2B29094  23.818   4.790   1.144
 1430POPC   C3B29095  23.657   4.849   1.247
 1430POPC   C4B29096  23.496   4.907   1.350
 1431POPC   NC329097   7.621  11.677  27.684
 1431POPC   PO429098   7.655  11.658  27.488
 1431POPC   GL129099   7.689  11.639  27.292
 1431POPC   GL229100   7.747  11.720  27.294
 1431POPC   C1A29101   7.722  11.620  27.096
 1431POPC   D2A29102   7.756  11.602  26.899
 1431POPC   C3A29103   7.789  11.583  26.703
 1431POPC   C4A29104   7.823  11.564  26.507
 1431POPC   C1B29105   7.880  11.504  27.134
 1431POPC   C2B29106   7.914  11.485  26.938
 1431POPC   C3B29107   7.948  11.467  26.741
 1431POPC   C4B29108   7.981  11.448  26.545
 1432POPC   NC329109  21.165  19.859  -0.052
 1432POPC   PO429110  21.040  19.744   0.054
 1432POPC   GL129111  20.915  19.629   0.160
 1432POPC   GL229112  20.993  19.584   0.203
 1432POPC   C1A29113  20.790  19.514   0.266
 1432POPC   D2A29114  20.666  19.399   0.371
 1432POPC   C3A29115  20.541  19.284   0.477
 1432POPC   C4A29116  20.416  19.169   0.583
 1432POPC   C1B29117  20.788  19.651   0.412
 1432POPC   C2B29118  20.663  19.536   0.517
 1432POPC   C3B29119  20.539  19.421   0.623
 1432POPC   C4B29120  20.414  19.306   0.729
 1433POPC   NC329121  13.031  12.129  -7.727
 1433POPC   PO429122  12.995  12.102  -7.532
 1433POPC   GL129123  12.959  12.075  -7.337
 1433POPC   GL229124  12.902  11.995  -7.359
 1433POPC   C1A29125  12.922  12.047  -7.142
 1433POPC   D2A29126  12.886  12.020  -6.948
 1433POPC   C3A29127  12.849  11.992  -6.753
 1433POPC   C4A29128  12.813  11.965  -6.558
 1433POPC   C1B29129  13.082  11.928  -7.129
 1433POPC   C2B29130  13.046  11.901  -6.934
 1433POPC   C3B29131  13.010  11.873  -6.740
 1433POPC   C4B29132  12.973  11.846  -6.545
 1434POPC   NC329133  15.726  25.573   3.070
 1434POPC   PO429134  15.665  25.397   3.142
 1434POPC   GL129135  15.604  25.221   3.214
 1434POPC   GL229136  15.694  25.207   3.255
 1434POPC   C1A29137  15.543  25.045   3.287
 1434POPC   D2A29138  15.482  24.868   3.359
 1434POPC   C3A29139  15.421  24.692   3.432
 1434POPC   C4A29140  15.360  24.516   3.504
 1434POPC   C1B29141  15.481  25.135   3.454
 1434POPC   C2B29142  15.420  24.959   3.527
 1434POPC   C3B29143  15.359  24.782   3.599
 1434POPC   C4B29144  15.298  24.606   3.671
 1435POPC   NC329145  15.763  25.814  16.263
 1435POPC   PO429146  15.695  25.640  16.191
 1435POPC   GL129147  15.627  25.466  16.119
 1435POPC   GL229148  15.711  25.421  16.151
 1435POPC   C1A29149  15.560  25.292  16.048
 1435POPC   D2A29150  15.492  25.118  15.976
 1435POPC   C3A29151  15.425  24.944  15.905
 1435POPC   C4A29152  15.357  24.770  15.833
 1435POPC   C1B29153  15.473  25.253  16.224
 1435POPC   C2B29154  15.405  25.079  16.152
 1435POPC   C3B29155  15.338  24.905  16.081
 1435POPC   C4B29156  15.270  24.731  16.009
 1436POPC   NC329157   3.811  24.229  19.260
 1436POPC   PO429158   3.879  24.073  19.154
 1436POPC   GL129159   3.947  23.917  19.048
 1436POPC   GL229160   4.040  23.954  19.055
 1436POPC   C1A29161   4.015  23.762  18.943
 1436POPC   D2A29162   4.084  23.606  18.837
 1436POPC   C3A29163   4.152  23.451  18.732
 1436POPC   C4A29164   4.220  23.295  18.626
 1436POPC   C1B29165   4.044  23.659  19.112
 1436POPC   C2B29166   4.112  23.504  19.007
 1436POPC   C3B29167   4.180  23.348  18.901
 1436POPC   C4B29168   4.248  23.192  18.795
 1437POPC   NC329169  -3.094   8.580  22.437
 1437POPC   PO429170  -2.949   8.593  22.299
 1437POPC   GL129171  -2.804   8.606  22.161
 1437POPC   GL229172  -2.739   8.633  22.232
 1437POPC   C1A29173  -2.660   8.618  22.024
 1437POPC   D2A29174  -2.515   8.631  21.886
 1437POPC   C3A29175  -2.371   8.643  21.749
 1437POPC   C4A29176  -2.226   8.656  21.611
 1437POPC   C1B29177  -2.614   8.426  22.055
 1437POPC   C2B29178  -2.469   8.439  21.917
 1437POPC   C3B29179  -2.324   8.451  21.780
 1437POPC   C4B29180  -2.180   8.464  21.642
 1438POPC   NC329181  20.625  23.829  14.087
 1438POPC   PO429182  20.501  23.681  14.034
 1438POPC   GL129183  20.377  23.533  13.981
 1438POPC   GL229184  20.437  23.467  14.026
 1438POPC   C1A29185  20.253  23.385  13.927
 1438POPC   D2A29186  20.130  23.238  13.874
 1438POPC   C3A29187  20.006  23.090  13.820
 1438POPC   C4A29188  19.882  22.942  13.767
 1438POPC   C1B29189  20.150  23.410  14.097
 1438POPC   C2B29190  20.026  23.263  14.043
 1438POPC   C3B29191  19.903  23.115  13.990
 1438POPC   C4B29192  19.779  22.967  13.937
 1439POPC   NC329193   9.047  20.984  24.239
 1439POPC   PO429194   9.057  20.861  24.082
 1439POPC   GL129195   9.067  20.738  23.925
 1439POPC   GL229196   9.125  20.804  23.877
 1439POPC   C1A29197   9.078  20.614  23.768
 1439POPC   D2A29198   9.088  20.491  23.611
 1439POPC   C3A29199   9.099  20.367  23.454
 1439POPC   C4A29200   9.109  20.244  23.297
 1439POPC   C1B29201   9.241  20.528  23.846
 1439POPC   C2B29202   9.251  20.405  23.689
 1439POPC   C3B29203   9.261  20.282  23.532
 1439POPC   C4B29204   9.272  20.158  23.375
 1440POPC   NC329205   9.703  -7.770   6.594
 1440POPC   PO429206   9.709  -7.573   6.627
 1440POPC   GL129207   9.715  -7.376   6.660
 1440POPC   GL229208   9.815  -7.377   6.648
 1440POPC   C1A29209   9.722  -7.179   6.693
 1440POPC   D2A29210   9.728  -6.981   6.727
 1440POPC   C3A29211   9.735  -6.784   6.760
 1440POPC   C4A29212   9.741  -6.587   6.793
 1440POPC   C1B29213   9.698  -7.145   6.498
 1440POPC   C2B29214   9.704  -6.948   6.531
 1440POPC   C3B29215   9.711  -6.751   6.564
 1440POPC   C4B29216   9.717  -6.553   6.597
 1441POPC   NC329217  11.539  14.647  27.257
 1441POPC   PO429218  11.519  14.591  27.066
 1441POPC   GL129219  11.499  14.535  26.875
 1441POPC   GL229220  11.598  14.536  26.864
 1441POPC   C1A29221  11.478  14.480  26.684
 1441POPC   D2A29222  11.458  14.424  26.493
 1441POPC   C3A29223  11.437  14.369  26.302
 1441POPC   C4A29224  11.417  14.313  26.111
 1441POPC   C1B29225  11.484  14.288  26.739
 1441POPC   C2B29226  11.464  14.232  26.548
 1441POPC   C3B29227  11.444  14.176  26.357
 1441POPC   C4B29228  11.423  14.121  26.166
 1442POPC   NC329229   3.501   9.685  -6.971
 1442POPC   PO429230   3.571   9.688  -6.784
 1442POPC   GL129231   3.641   9.691  -6.597
 1442POPC   GL229232   3.626   9.593  -6.589
 1442POPC   C1A29233   3.711   9.695  -6.409
 1442POPC   D2A29234   3.780   9.698  -6.222
 1442POPC   C3A29235   3.850   9.702  -6.034
 1442POPC   C4A29236   3.920   9.705  -5.847
 1442POPC   C1B29237   3.896   9.662  -6.478
 1442POPC   C2B29238   3.965   9.666  -6.290
 1442POPC   C3B29239   4.035   9.669  -6.103
 1442POPC   C4B29240   4.105   9.672  -5.915
 1443POPC   NC329241   9.788  -7.563  14.278
 1443POPC   PO429242   9.787  -7.368  14.236
 1443POPC   GL129243   9.786  -7.173  14.194
 1443POPC   GL229244   9.855  -7.187  14.123
 1443POPC   C1A29245   9.784  -6.977  14.151
 1443POPC   D2A29246   9.783  -6.782  14.109
 1443POPC   C3A29247   9.781  -6.586  14.066
 1443POPC   C4A29248   9.780  -6.391  14.024
 1443POPC   C1B29249   9.640  -7.008  14.016
 1443POPC   C2B29250   9.639  -6.812  13.973
 1443POPC   C3B29251   9.638  -6.617  13.931
 1443POPC   C4B29252   9.636  -6.422  13.888
 1444POPC   NC329253  26.623   4.329  13.505
 1444POPC   PO429254  26.437   4.391  13.466
 1444POPC   GL129255  26.251   4.453  13.427
 1444POPC   GL229256  26.287   4.543  13.400
 1444POPC   C1A29257  26.065   4.516  13.388
 1444POPC   D2A29258  25.879   4.578  13.348
 1444POPC   C3A29259  25.693   4.641  13.309
 1444POPC   C4A29260  25.507   4.703  13.270
 1444POPC   C1B29261  26.083   4.451  13.199
 1444POPC   C2B29262  25.897   4.514  13.160
 1444POPC   C3B29263  25.711   4.576  13.121
 1444POPC   C4B29264  25.525   4.639  13.081
 1445POPC   NC329265   9.202  -7.886   7.576
 1445POPC   PO429266   9.212  -7.688   7.599
 1445POPC   GL129267   9.222  -7.490   7.622
 1445POPC   GL229268   9.321  -7.493   7.605
 1445POPC   C1A29269   9.232  -7.291   7.644
 1445POPC   D2A29270   9.243  -7.093   7.667
 1445POPC   C3A29271   9.253  -6.894   7.689
 1445POPC   C4A29272   9.263  -6.696   7.712
 1445POPC   C1B29273   9.199  -7.267   7.448
 1445POPC   C2B29274   9.209  -7.069   7.471
 1445POPC   C3B29275   9.219  -6.870   7.494
 1445POPC   C4B29276   9.230  -6.672   7.516
 1446POPC   NC329277   3.584  25.421   2.959
 1446POPC   PO429278   3.658  25.253   3.038
 1446POPC   GL129279   3.732  25.085   3.117
 1446POPC   GL229280   3.779  25.139   3.188
 1446POPC   C1A29281   3.807  24.917   3.196
 1446POPC   D2A29282   3.881  24.750   3.276
 1446POPC   C3A29283   3.956  24.582   3.355
 1446POPC   C4A29284   4.030  24.414   3.434
 1446POPC   C1B29285   3.646  24.901   3.314
 1446POPC   C2B29286   3.720  24.734   3.393
 1446POPC   C3B29287   3.795  24.566   3.472
 1446POPC   C4B29288   3.869  24.398   3.551
 1447POPC   NC329289   9.496  -7.965  11.505
 1447POPC   PO429290   9.500  -7.766  11.489
 1447POPC   GL129291   9.504  -7.567  11.473
 1447POPC   GL229292   9.531  -7.575  11.377
 1447POPC   C1A29293   9.509  -7.367  11.457
 1447POPC   D2A29294   9.513  -7.168  11.440
 1447POPC   C3A29295   9.518  -6.968  11.424
 1447POPC   C4A29296   9.522  -6.769  11.408
 1447POPC   C1B29297   9.316  -7.367  11.403
 1447POPC   C2B29298   9.320  -7.168  11.387
 1447POPC   C3B29299   9.325  -6.969  11.371
 1447POPC   C4B29300   9.329  -6.769  11.355
 1448POPC   NC329301   8.256   3.948  26.796
 1448POPC   PO429302   8.278   4.017  26.610
 1448POPC   GL129303   8.300   4.086  26.424
 1448POPC   GL229304   8.317   3.993  26.391
 1448POPC   C1A29305   8.323   4.156  26.238
 1448POPC   D2A29306   8.345   4.225  26.051
 1448POPC   C3A29307   8.368   4.295  25.865
 1448POPC   C4A29308   8.390   4.364  25.679
 1448POPC   C1B29309   8.127   4.133  26.205
 1448POPC   C2B29310   8.149   4.202  26.019
 1448POPC   C3B29311   8.172   4.271  25.833
 1448POPC   C4B29312   8.194   4.341  25.647
 1449POPC   NC329313  23.795   4.818  -0.358
 1449POPC   PO429314  23.643   4.878  -0.243
 1449POPC   GL129315  23.491   4.938  -0.128
 1449POPC   GL229316  23.450   4.985  -0.206
 1449POPC   C1A29317  23.339   4.998  -0.012
 1449POPC   D2A29318  23.187   5.057   0.103
 1449POPC   C3A29319  23.035   5.117   0.219
 1449POPC   C4A29320  22.883   5.177   0.334
 1449POPC   C1B29321  23.238   4.832  -0.060
 1449POPC   C2B29322  23.086   4.892   0.056
 1449POPC   C3B29323  22.934   4.952   0.171
 1449POPC   C4B29324  22.782   5.011   0.286
 1450POPC   NC329325  11.188   3.936  -6.993
 1450POPC   PO429326  11.177   4.001  -6.804
 1450POPC   GL129327  11.166   4.066  -6.615
 1450POPC   GL229328  11.217   4.148  -6.640
 1450POPC   C1A29329  11.154   4.130  -6.426
 1450POPC   D2A29330  11.143   4.195  -6.237
 1450POPC   C3A29331  11.131   4.259  -6.048
 1450POPC   C4A29332  11.120   4.324  -5.859
 1450POPC   C1B29333  10.983   4.224  -6.468
 1450POPC   C2B29334  10.971   4.288  -6.279
 1450POPC   C3B29335  10.960   4.353  -6.090
 1450POPC   C4B29336  10.948   4.417  -5.901
 1451POPC   NC329337  10.455  -8.018  10.634
 1451POPC   PO429338  10.450  -7.818  10.625
 1451POPC   GL129339  10.445  -7.618  10.616
 1451POPC   GL229340  10.523  -7.619  10.554
 1451POPC   C1A29341  10.441  -7.418  10.608
 1451POPC   D2A29342  10.436  -7.219  10.599
 1451POPC   C3A29343  10.432  -7.019  10.591
 1451POPC   C4A29344  10.427  -6.819  10.582
 1451POPC   C1B29345  10.316  -7.428  10.452
 1451POPC   C2B29346  10.311  -7.228  10.444
 1451POPC   C3B29347  10.306  -7.028  10.435
 1451POPC   C4B29348  10.302  -6.828  10.426
 1452POPC   NC329349  14.345  -7.523   9.187
 1452POPC   PO429350  14.292  -7.330   9.197
 1452POPC   GL129351  14.239  -7.137   9.207
 1452POPC   GL229352  14.294  -7.126   9.289
 1452POPC   C1A29353  14.185  -6.945   9.216
 1452POPC   D2A29354  14.132  -6.752   9.226
 1452POPC   C3A29355  14.078  -6.560   9.235
 1452POPC   C4A29356  14.025  -6.367   9.245
 1452POPC   C1B29357  14.343  -6.896   9.103
 1452POPC   C2B29358  14.289  -6.703   9.113
 1452POPC   C3B29359  14.236  -6.510   9.122
 1452POPC   C4B29360  14.182  -6.318   9.132
 1453POPC   NC329361  22.935   0.266  17.848
 1453POPC   PO429362  22.791   0.375  17.762
 1453POPC   GL129363  22.647   0.484  17.676
 1453POPC   GL229364  22.694   0.568  17.703
 1453POPC   C1A29365  22.503   0.593  17.590
 1453POPC   D2A29366  22.359   0.702  17.505
 1453POPC   C3A29367  22.215   0.811  17.419
 1453POPC   C4A29368  22.071   0.920  17.333
 1453POPC   C1B29369  22.605   0.592  17.418
 1453POPC   C2B29370  22.461   0.701  17.332
 1453POPC   C3B29371  22.317   0.810  17.247
 1453POPC   C4B29372  22.173   0.919  17.161
 1454POPC   NC329373  -7.014   7.465  15.880
 1454POPC   PO429374  -6.826   7.491  15.816
 1454POPC   GL129375  -6.638   7.517  15.752
 1454POPC   GL229376  -6.609   7.437  15.804
 1454POPC   C1A29377  -6.451   7.544  15.687
 1454POPC   D2A29378  -6.263   7.570  15.623
 1454POPC   C3A29379  -6.076   7.597  15.558
 1454POPC   C4A29380  -5.888   7.623  15.494
 1454POPC   C1B29381  -6.489   7.427  15.529
 1454POPC   C2B29382  -6.301   7.454  15.465
 1454POPC   C3B29383  -6.113   7.480  15.400
 1454POPC   C4B29384  -5.926   7.507  15.336
 1455POPC   NC329385  21.120  14.616  23.109
 1455POPC   PO429386  20.997  14.564  22.961
 1455POPC   GL129387  20.874  14.512  22.813
 1455POPC   GL229388  20.934  14.556  22.747
 1455POPC   C1A29389  20.750  14.459  22.664
 1455POPC   D2A29390  20.627  14.407  22.516
 1455POPC   C3A29391  20.503  14.354  22.367
 1455POPC   C4A29392  20.380  14.302  22.219
 1455POPC   C1B29393  20.851  14.288  22.641
 1455POPC   C2B29394  20.728  14.236  22.492
 1455POPC   C3B29395  20.604  14.183  22.344
 1455POPC   C4B29396  20.481  14.131  22.195
 1456POPC   NC329397   9.084  24.790  -0.314
 1456POPC   PO429398   9.095  24.628  -0.197
 1456POPC   GL129399   9.106  24.466  -0.080
 1456POPC   GL229400   9.116  24.525   0.000
 1456POPC   C1A29401   9.118  24.304   0.037
 1456POPC   D2A29402   9.129  24.143   0.154
 1456POPC   C3A29403   9.141  23.981   0.271
 1456POPC   C4A29404   9.152  23.819   0.388
 1456POPC   C1B29405   8.919  24.306   0.059
 1456POPC   C2B29406   8.930  24.145   0.176
 1456POPC   C3B29407   8.942  23.983   0.293
 1456POPC   C4B29408   8.953  23.821   0.410
 1457POPC   NC329409  20.215   5.866  -4.255
 1457POPC   PO429410  20.103   5.912  -4.096
 1457POPC   GL129411  19.991   5.958  -3.937
 1457POPC   GL229412  19.924   5.888  -3.964
 1457POPC   C1A29413  19.879   6.003  -3.778
 1457POPC   D2A29414  19.766   6.049  -3.619
 1457POPC   C3A29415  19.654   6.094  -3.460
 1457POPC   C4A29416  19.542   6.140  -3.301
 1457POPC   C1B29417  19.977   5.867  -3.669
 1457POPC   C2B29418  19.865   5.913  -3.510
 1457POPC   C3B29419  19.753   5.958  -3.351
 1457POPC   C4B29420  19.641   6.004  -3.192
 1458POPC   NC329421  18.116  15.967  24.808
 1458POPC   PO429422  18.017  15.902  24.647
 1458POPC   GL129423  17.918  15.837  24.486
 1458POPC   GL229424  17.922  15.928  24.446
 1458POPC   C1A29425  17.819  15.771  24.325
 1458POPC   D2A29426  17.720  15.706  24.164
 1458POPC   C3A29427  17.621  15.640  24.003
 1458POPC   C4A29428  17.522  15.575  23.842
 1458POPC   C1B29429  17.993  15.725  24.237
 1458POPC   C2B29430  17.894  15.660  24.076
 1458POPC   C3B29431  17.795  15.594  23.915
 1458POPC   C4B29432  17.696  15.529  23.754
 1459POPC   NC329433  14.088  26.910   5.497
 1459POPC   PO429434  14.042  26.723   5.551
 1459POPC   GL129435  13.996  26.536   5.605
 1459POPC   GL229436  14.086  26.505   5.574
 1459POPC   C1A29437  13.949  26.349   5.659
 1459POPC   D2A29438  13.903  26.162   5.712
 1459POPC   C3A29439  13.856  25.975   5.766
 1459POPC   C4A29440  13.810  25.788   5.820
 1459POPC   C1B29441  14.023  26.383   5.841
 1459POPC   C2B29442  13.976  26.196   5.895
 1459POPC   C3B29443  13.930  26.009   5.949
 1459POPC   C4B29444  13.883  25.822   6.003
 1460POPC   NC329445  24.220  12.874  -0.564
 1460POPC   PO429446  24.061  12.846  -0.446
 1460POPC   GL129447  23.902  12.818  -0.328
 1460POPC   GL229448  23.851  12.886  -0.380
 1460POPC   C1A29449  23.743  12.790  -0.210
 1460POPC   D2A29450  23.585  12.762  -0.091
 1460POPC   C3A29451  23.426  12.734   0.027
 1460POPC   C4A29452  23.267  12.706   0.145
 1460POPC   C1B29453  23.678  12.646  -0.332
 1460POPC   C2B29454  23.519  12.618  -0.214
 1460POPC   C3B29455  23.360  12.590  -0.096
 1460POPC   C4B29456  23.201  12.562   0.023
 1461POPC   NC329457  15.413  10.179  -7.254
 1461POPC   PO429458  15.348  10.178  -7.065
 1461POPC   GL129459  15.283  10.177  -6.876
 1461POPC   GL229460  15.216  10.106  -6.899
 1461POPC   C1A29461  15.218  10.176  -6.687
 1461POPC   D2A29462  15.153  10.175  -6.497
 1461POPC   C3A29463  15.088  10.174  -6.308
 1461POPC   C4A29464  15.023  10.173  -6.119
 1461POPC   C1B29465  15.352  10.035  -6.641
 1461POPC   C2B29466  15.287  10.034  -6.452
 1461POPC   C3B29467  15.222  10.033  -6.263
 1461POPC   C4B29468  15.157  10.032  -6.074
 1462POPC   NC329469  14.544  -6.809   5.245
 1462POPC   PO429470  14.484  -6.625   5.297
 1462POPC   GL129471  14.424  -6.441   5.349
 1462POPC   GL229472  14.518  -6.408   5.337
 1462POPC   C1A29473  14.365  -6.257   5.400
 1462POPC   D2A29474  14.305  -6.074   5.452
 1462POPC   C3A29475  14.246  -5.890   5.503
 1462POPC   C4A29476  14.186  -5.706   5.555
 1462POPC   C1B29477  14.326  -6.216   5.208
 1462POPC   C2B29478  14.266  -6.032   5.260
 1462POPC   C3B29479  14.207  -5.849   5.312
 1462POPC   C4B29480  14.147  -5.665   5.363
 1463POPC   NC329481  -7.089  15.726  12.380
 1463POPC   PO429482  -6.902  15.661  12.354
 1463POPC   GL129483  -6.715  15.596  12.328
 1463POPC   GL229484  -6.688  15.687  12.296
 1463POPC   C1A29485  -6.528  15.531  12.302
 1463POPC   D2A29486  -6.340  15.465  12.276
 1463POPC   C3A29487  -6.153  15.400  12.250
 1463POPC   C4A29488  -5.966  15.335  12.224
 1463POPC   C1B29489  -6.483  15.583  12.490
 1463POPC   C2B29490  -6.296  15.517  12.464
 1463POPC   C3B29491  -6.109  15.452  12.438
 1463POPC   C4B29492  -5.922  15.387  12.412
 1464POPC   NC329493  25.242  18.394  14.243
 1464POPC   PO429494  25.072  18.299  14.197
 1464POPC   GL129495  24.902  18.204  14.151
 1464POPC   GL229496  24.885  18.270  14.078
 1464POPC   C1A29497  24.732  18.110  14.105
 1464POPC   D2A29498  24.561  18.015  14.060
 1464POPC   C3A29499  24.391  17.921  14.014
 1464POPC   C4A29500  24.221  17.826  13.968
 1464POPC   C1B29501  24.831  17.992  13.978
 1464POPC   C2B29502  24.661  17.898  13.932
 1464POPC   C3B29503  24.491  17.803  13.886
 1464POPC   C4B29504  24.321  17.709  13.840
 1465POPC   NC329505  -4.020  14.357  -0.889
 1465POPC   PO429506  -3.868  14.308  -0.769
 1465POPC   GL129507  -3.716  14.259  -0.649
 1465POPC   GL229508  -3.672  14.347  -0.669
 1465POPC   C1A29509  -3.563  14.211  -0.529
 1465POPC   D2A29510  -3.411  14.162  -0.409
 1465POPC   C3A29511  -3.258  14.114  -0.289
 1465POPC   C4A29512  -3.106  14.065  -0.169
 1465POPC   C1B29513  -3.659  14.294  -0.374
 1465POPC   C2B29514  -3.506  14.245  -0.254
 1465POPC   C3B29515  -3.354  14.197  -0.134
 1465POPC   C4B29516  -3.201  14.148  -0.014
 1466POPC   NC329517   4.424  22.875  21.300
 1466POPC   PO429518   4.481  22.732  21.172
 1466POPC   GL129519   4.538  22.589  21.044
 1466POPC   GL229520   4.588  22.658  20.990
 1466POPC   C1A29521   4.596  22.447  20.916
 1466POPC   D2A29522   4.653  22.304  20.788
 1466POPC   C3A29523   4.711  22.162  20.660
 1466POPC   C4A29524   4.768  22.019  20.532
 1466POPC   C1B29525   4.760  22.414  21.026
 1466POPC   C2B29526   4.817  22.272  20.898
 1466POPC   C3B29527   4.875  22.129  20.770
 1466POPC   C4B29528   4.932  21.987  20.642
 1467POPC   NC329529  27.766  11.511  10.836
 1467POPC   PO429530  27.567  11.498  10.825
 1467POPC   GL129531  27.368  11.485  10.814
 1467POPC   GL229532  27.365  11.570  10.762
 1467POPC   C1A29533  27.168  11.472  10.804
 1467POPC   D2A29534  26.969  11.460  10.793
 1467POPC   C3A29535  26.769  11.447  10.783
 1467POPC   C4A29536  26.570  11.434  10.772
 1467POPC   C1B29537  27.184  11.369  10.633
 1467POPC   C2B29538  26.984  11.356  10.623
 1467POPC   C3B29539  26.785  11.343  10.612
 1467POPC   C4B29540  26.586  11.330  10.602
 1468POPC   NC329541  27.580   6.874   9.029
 1468POPC   PO429542  27.382   6.903   9.039
 1468POPC   GL129543  27.184   6.932   9.049
 1468POPC   GL229544  27.169   6.837   9.025
 1468POPC   C1A29545  26.987   6.962   9.059
 1468POPC   D2A29546  26.789   6.991   9.069
 1468POPC   C3A29547  26.592   7.021   9.079
 1468POPC   C4A29548  26.394   7.050   9.089
 1468POPC   C1B29549  26.989   6.912   9.253
 1468POPC   C2B29550  26.792   6.941   9.263
 1468POPC   C3B29551  26.594   6.971   9.273
 1468POPC   C4B29552  26.396   7.000   9.283
 1469POPC   NC329553  13.032  26.077  17.484
 1469POPC   PO429554  12.996  25.900  17.399
 1469POPC   GL129555  12.960  25.723  17.314
 1469POPC   GL229556  13.057  25.714  17.290
 1469POPC   C1A29557  12.924  25.545  17.229
 1469POPC   D2A29558  12.888  25.368  17.144
 1469POPC   C3A29559  12.852  25.190  17.059
 1469POPC   C4A29560  12.816  25.013  16.974
 1469POPC   C1B29561  12.959  25.454  17.404
 1469POPC   C2B29562  12.923  25.277  17.319
 1469POPC   C3B29563  12.887  25.100  17.234
 1469POPC   C4B29564  12.851  24.922  17.149
 1470POPC   NC329565  15.001  -3.775  20.402
 1470POPC   PO429566  14.948  -3.625  20.281
 1470POPC   GL129567  14.895  -3.475  20.160
 1470POPC   GL229568  14.893  -3.538  20.082
 1470POPC   C1A29569  14.842  -3.325  20.039
 1470POPC   D2A29570  14.788  -3.175  19.917
 1470POPC   C3A29571  14.735  -3.025  19.796
 1470POPC   C4A29572  14.682  -2.875  19.675
 1470POPC   C1B29573  14.649  -3.365  20.074
 1470POPC   C2B29574  14.596  -3.215  19.953
 1470POPC   C3B29575  14.542  -3.065  19.832
 1470POPC   C4B29576  14.489  -2.915  19.711
 1471POPC   NC329577   2.311  -3.909   1.159
 1471POPC   PO429578   2.395  -3.758   1.259
 1471POPC   GL129579   2.479  -3.607   1.359
 1471POPC   GL229580   2.569  -3.636   1.327
 1471POPC   C1A29581   2.564  -3.456   1.459
 1471POPC   D2A29582   2.648  -3.304   1.559
 1471POPC   C3A29583   2.733  -3.153   1.659
 1471POPC   C4A29584   2.817  -3.002   1.759
 1471POPC   C1B29585   2.544  -3.338   1.298
 1471POPC   C2B29586   2.629  -3.187   1.398
 1471POPC   C3B29587   2.713  -3.036   1.498
 1471POPC   C4B29588   2.798  -2.885   1.598
 1472POPC   NC329589  24.306  15.690  19.236
 1472POPC   PO429590  24.145  15.630  19.133
 1472POPC   GL129591  23.984  15.570  19.030
 1472POPC   GL229592  24.005  15.475  19.052
 1472POPC   C1A29593  23.824  15.511  18.926
 1472POPC   D2A29594  23.663  15.451  18.823
 1472POPC   C3A29595  23.503  15.392  18.719
 1472POPC   C4A29596  23.342  15.332  18.616
 1472POPC   C1B29597  23.712  15.525  19.092
 1472POPC   C2B29598  23.552  15.465  18.988
 1472POPC   C3B29599  23.391  15.406  18.885
 1472POPC   C4B29600  23.230  15.346  18.781
 1473POPC   NC329601  -3.820  -1.764  11.094
 1473POPC   PO429602  -3.670  -1.632  11.081
 1473POPC   GL129603  -3.520  -1.500  11.068
 1473POPC   GL229604  -3.470  -1.550  11.139
 1473POPC   C1A29605  -3.370  -1.369  11.056
 1473POPC   D2A29606  -3.219  -1.237  11.043
 1473POPC   C3A29607  -3.069  -1.106  11.031
 1473POPC   C4A29608  -2.919  -0.974  11.018
 1473POPC   C1B29609  -3.283  -1.481  10.915
 1473POPC   C2B29610  -3.133  -1.350  10.902
 1473POPC   C3B29611  -2.982  -1.218  10.890
 1473POPC   C4B29612  -2.832  -1.086  10.877
 1474POPC   NC329613   7.600  25.849   1.571
 1474POPC   PO429614   7.627  25.677   1.669
 1474POPC   GL129615   7.654  25.505   1.767
 1474POPC   GL229616   7.747  25.499   1.731
 1474POPC   C1A29617   7.681  25.333   1.866
 1474POPC   D2A29618   7.709  25.161   1.964
 1474POPC   C3A29619   7.736  24.989   2.063
 1474POPC   C4A29620   7.763  24.817   2.161
 1474POPC   C1B29621   7.750  25.434   2.024
 1474POPC   C2B29622   7.777  25.262   2.122
 1474POPC   C3B29623   7.804  25.090   2.221
 1474POPC   C4B29624   7.832  24.918   2.319
 1475POPC   NC329625  27.410  13.481   7.380
 1475POPC   PO429626  27.215  13.443   7.407
 1475POPC   GL129627  27.020  13.405   7.434
 1475POPC   GL229628  27.013  13.374   7.339
 1475POPC   C1A29629  26.826  13.367   7.461
 1475POPC   D2A29630  26.631  13.330   7.487
 1475POPC   C3A29631  26.437  13.292   7.514
 1475POPC   C4A29632  26.242  13.254   7.541
 1475POPC   C1B29633  26.870  13.181   7.518
 1475POPC   C2B29634  26.675  13.143   7.545
 1475POPC   C3B29635  26.481  13.105   7.572
 1475POPC   C4B29636  26.286  13.068   7.598
 1476POPC   NC329637  -7.810   6.541   8.172
 1476POPC   PO429638  -7.616   6.585   8.189
 1476POPC   GL129639  -7.422   6.629   8.206
 1476POPC   GL229640  -7.438   6.664   8.298
 1476POPC   C1A29641  -7.227   6.673   8.223
 1476POPC   D2A29642  -7.033   6.717   8.241
 1476POPC   C3A29643  -6.838   6.761   8.258
 1476POPC   C4A29644  -6.644   6.805   8.275
 1476POPC   C1B29645  -7.193   6.491   8.299
 1476POPC   C2B29646  -6.998   6.535   8.316
 1476POPC   C3B29647  -6.804   6.579   8.333
 1476POPC   C4B29648  -6.609   6.623   8.350
 1477POPC   NC329649   6.012  23.496  -1.329
 1477POPC   PO429650   6.052  23.345  -1.205
 1477POPC   GL129651   6.092  23.194  -1.081
 1477POPC   GL229652   6.163  23.248  -1.037
 1477POPC   C1A29653   6.132  23.042  -0.956
 1477POPC   D2A29654   6.172  22.891  -0.832
 1477POPC   C3A29655   6.212  22.739  -0.707
 1477POPC   C4A29656   6.252  22.588  -0.583
 1477POPC   C1B29657   5.997  23.113  -0.827
 1477POPC   C2B29658   6.037  22.961  -0.702
 1477POPC   C3B29659   6.077  22.810  -0.578
 1477POPC   C4B29660   6.117  22.659  -0.453
 1478POPC   NC329661   8.199  16.452  26.719
 1478POPC   PO429662   8.213  16.386  26.531
 1478POPC   GL129663   8.227  16.320  26.343
 1478POPC   GL229664   8.281  16.401  26.318
 1478POPC   C1A29665   8.242  16.254  26.155
 1478POPC   D2A29666   8.256  16.188  25.966
 1478POPC   C3A29667   8.271  16.122  25.778
 1478POPC   C4A29668   8.285  16.056  25.590
 1478POPC   C1B29669   8.410  16.157  26.201
 1478POPC   C2B29670   8.425  16.091  26.013
 1478POPC   C3B29671   8.439  16.025  25.825
 1478POPC   C4B29672   8.454  15.959  25.637
 1479POPC   NC329673  16.302  21.452  22.346
 1479POPC   PO429674  16.232  21.325  22.208
 1479POPC   GL129675  16.162  21.198  22.070
 1479POPC   GL229676  16.249  21.203  22.022
 1479POPC   C1A29677  16.092  21.071  21.932
 1479POPC   D2A29678  16.023  20.943  21.795
 1479POPC   C3A29679  15.953  20.816  21.657
 1479POPC   C4A29680  15.883  20.689  21.519
 1479POPC   C1B29681  16.161  20.917  22.040
 1479POPC   C2B29682  16.092  20.789  21.902
 1479POPC   C3B29683  16.022  20.662  21.764
 1479POPC   C4B29684  15.952  20.535  21.626
 1480POPC   NC329685  10.786  19.194  -5.566
 1480POPC   PO429686  10.773  19.093  -5.394
 1480POPC   GL129687  10.760  18.992  -5.222
 1480POPC   GL229688  10.855  19.015  -5.201
 1480POPC   C1A29689  10.747  18.891  -5.050
 1480POPC   D2A29690  10.734  18.791  -4.877
 1480POPC   C3A29691  10.721  18.690  -4.705
 1480POPC   C4A29692  10.708  18.589  -4.533
 1480POPC   C1B29693  10.687  19.058  -4.957
 1480POPC   C2B29694  10.674  18.957  -4.784
 1480POPC   C3B29695  10.661  18.856  -4.612
 1480POPC   C4B29696  10.648  18.756  -4.440
 1481POPC   NC329697   4.571  -2.016  22.365
 1481POPC   PO429698   4.629  -1.880  22.230
 1481POPC   GL129699   4.687  -1.744  22.095
 1481POPC   GL229700   4.688  -1.674  22.167
 1481POPC   C1A29701   4.745  -1.608  21.961
 1481POPC   D2A29702   4.804  -1.472  21.826
 1481POPC   C3A29703   4.862  -1.336  21.692
 1481POPC   C4A29704   4.920  -1.200  21.557
 1481POPC   C1B29705   4.937  -1.650  22.001
 1481POPC   C2B29706   4.995  -1.514  21.867
 1481POPC   C3B29707   5.053  -1.378  21.732
 1481POPC   C4B29708   5.111  -1.242  21.597
 1482POPC   NC329709  24.290  13.592  20.216
 1482POPC   PO429710  24.133  13.551  20.100
 1482POPC   GL129711  23.976  13.510  19.984
 1482POPC   GL229712  24.002  13.414  19.982
 1482POPC   C1A29713  23.818  13.469  19.867
 1482POPC   D2A29714  23.661  13.429  19.751
 1482POPC   C3A29715  23.503  13.388  19.634
 1482POPC   C4A29716  23.346  13.347  19.518
 1482POPC   C1B29717  23.707  13.436  20.030
 1482POPC   C2B29718  23.549  13.395  19.913
 1482POPC   C3B29719  23.392  13.354  19.797
 1482POPC   C4B29720  23.234  13.314  19.681
 1483POPC   NC329721  11.140  24.230  -1.074
 1483POPC   PO429722  11.130  24.072  -0.952
 1483POPC   GL129723  11.120  23.914  -0.830
 1483POPC   GL229724  11.208  23.939  -0.790
 1483POPC   C1A29725  11.109  23.756  -0.707
 1483POPC   D2A29726  11.099  23.599  -0.585
 1483POPC   C3A29727  11.088  23.441  -0.462
 1483POPC   C4A29728  11.078  23.283  -0.340
 1483POPC   C1B29729  11.016  23.869  -0.570
 1483POPC   C2B29730  11.006  23.711  -0.448
 1483POPC   C3B29731  10.996  23.553  -0.325
 1483POPC   C4B29732  10.985  23.395  -0.203
 1484POPC   NC329733  24.129  13.878  20.328
 1484POPC   PO429734  23.974  13.834  20.210
 1484POPC   GL129735  23.819  13.790  20.092
 1484POPC   GL229736  23.836  13.692  20.106
 1484POPC   C1A29737  23.664  13.746  19.973
 1484POPC   D2A29738  23.509  13.702  19.855
 1484POPC   C3A29739  23.354  13.658  19.736
 1484POPC   C4A29740  23.199  13.614  19.618
 1484POPC   C1B29741  23.542  13.749  20.132
 1484POPC   C2B29742  23.387  13.705  20.013
 1484POPC   C3B29743  23.232  13.661  19.895
 1484POPC   C4B29744  23.077  13.617  19.777
 1485POPC   NC329745  -6.118   5.960  17.463
 1485POPC   PO429746  -5.939   5.999  17.383
 1485POPC   GL129747  -5.760   6.038  17.303
 1485POPC   GL229748  -5.716   5.985  17.376
 1485POPC   C1A29749  -5.581   6.078  17.223
 1485POPC   D2A29750  -5.401   6.117  17.144
 1485POPC   C3A29751  -5.222   6.157  17.064
 1485POPC   C4A29752  -5.043   6.196  16.984
 1485POPC   C1B29753  -5.595   5.913  17.111
 1485POPC   C2B29754  -5.415   5.953  17.031
 1485POPC   C3B29755  -5.236   5.992  16.951
 1485POPC   C4B29756  -5.057   6.031  16.871
 1486POPC   NC329757  -3.954  -0.242   4.444
 1486POPC   PO429758  -3.799  -0.128   4.500
 1486POPC   GL129759  -3.644  -0.014   4.556
 1486POPC   GL229760  -3.674  -0.021   4.651
 1486POPC   C1A29761  -3.489   0.100   4.611
 1486POPC   D2A29762  -3.335   0.213   4.667
 1486POPC   C3A29763  -3.180   0.327   4.722
 1486POPC   C4A29764  -3.025   0.441   4.778
 1486POPC   C1B29765  -3.377  -0.064   4.635
 1486POPC   C2B29766  -3.223   0.049   4.691
 1486POPC   C3B29767  -3.068   0.163   4.746
 1486POPC   C4B29768  -2.913   0.277   4.802
 1487POPC   NC329769   2.024  13.215  -5.985
 1487POPC   PO429770   2.115  13.182  -5.810
 1487POPC   GL129771   2.206  13.149  -5.635
 1487POPC   GL229772   2.170  13.236  -5.600
 1487POPC   C1A29773   2.297  13.117  -5.460
 1487POPC   D2A29774   2.388  13.084  -5.285
 1487POPC   C3A29775   2.479  13.052  -5.110
 1487POPC   C4A29776   2.570  13.019  -4.935
 1487POPC   C1B29777   2.134  13.023  -5.393
 1487POPC   C2B29778   2.225  12.990  -5.218
 1487POPC   C3B29779   2.316  12.958  -5.043
 1487POPC   C4B29780   2.407  12.925  -4.868
 1488POPC   NC329781  -3.911  19.144   2.694
 1488POPC   PO429782  -3.756  19.046   2.774
 1488POPC   GL129783  -3.601  18.948   2.854
 1488POPC   GL229784  -3.632  18.975   2.946
 1488POPC   C1A29785  -3.446  18.851   2.934
 1488POPC   D2A29786  -3.291  18.753   3.015
 1488POPC   C3A29787  -3.136  18.656   3.095
 1488POPC   C4A29788  -2.981  18.558   3.175
 1488POPC   C1B29789  -3.556  18.684   2.945
 1488POPC   C2B29790  -3.401  18.587   3.025
 1488POPC   C3B29791  -3.246  18.489   3.105
 1488POPC   C4B29792  -3.091  18.391   3.185
 1489POPC   NC329793  -7.952  10.045   7.140
 1489POPC   PO429794  -7.756  10.040   7.179
 1489POPC   GL129795  -7.560  10.035   7.218
 1489POPC   GL229796  -7.579  10.031   7.316
 1489POPC   C1A29797  -7.364  10.030   7.257
 1489POPC   D2A29798  -7.167  10.026   7.295
 1489POPC   C3A29799  -6.971  10.021   7.334
 1489POPC   C4A29800  -6.775  10.016   7.373
 1489POPC   C1B29801  -7.367   9.831   7.247
 1489POPC   C2B29802  -7.171   9.826   7.286
 1489POPC   C3B29803  -6.974   9.821   7.325
 1489POPC   C4B29804  -6.778   9.816   7.364
 1490POPC   NC329805   0.708  20.961  -1.168
 1490POPC   PO429806   0.810  20.837  -1.048
 1490POPC   GL129807   0.912  20.713  -0.928
 1490POPC   GL229808   0.997  20.740  -0.974
 1490POPC   C1A29809   1.014  20.590  -0.808
 1490POPC   D2A29810   1.116  20.466  -0.689
 1490POPC   C3A29811   1.218  20.343  -0.569
 1490POPC   C4A29812   1.320  20.219  -0.449
 1490POPC   C1B29813   1.038  20.738  -0.676
 1490POPC   C2B29814   1.140  20.614  -0.556
 1490POPC   C3B29815   1.242  20.491  -0.437
 1490POPC   C4B29816   1.344  20.367  -0.317
 1491POPC   NC329817   6.602  -4.672  -0.064
 1491POPC   PO429818   6.636  -4.509   0.046
 1491POPC   GL129819   6.670  -4.346   0.156
 1491POPC   GL229820   6.756  -4.330   0.108
 1491POPC   C1A29821   6.703  -4.182   0.266
 1491POPC   D2A29822   6.737  -4.019   0.377
 1491POPC   C3A29823   6.770  -3.855   0.487
 1491POPC   C4A29824   6.804  -3.692   0.597
 1491POPC   C1B29825   6.607  -4.071   0.131
 1491POPC   C2B29826   6.641  -3.908   0.241
 1491POPC   C3B29827   6.674  -3.744   0.351
 1491POPC   C4B29828   6.708  -3.581   0.461
 1492POPC   NC329829   5.778  14.249  -7.159
 1492POPC   PO429830   5.823  14.202  -6.970
 1492POPC   GL129831   5.868  14.155  -6.781
 1492POPC   GL229832   5.951  14.210  -6.787
 1492POPC   C1A29833   5.913  14.107  -6.592
 1492POPC   D2A29834   5.957  14.060  -6.403
 1492POPC   C3A29835   6.002  14.012  -6.214
 1492POPC   C4A29836   6.047  13.965  -6.025
 1492POPC   C1B29837   5.810  14.267  -6.528
 1492POPC   C2B29838   5.855  14.219  -6.339
 1492POPC   C3B29839   5.900  14.172  -6.150
 1492POPC   C4B29840   5.945  14.124  -5.961
 1493POPC   NC329841  -5.620  18.077  14.597
 1493POPC   PO429842  -5.449  17.986  14.548
 1493POPC   GL129843  -5.278  17.895  14.499
 1493POPC   GL229844  -5.285  17.838  14.581
 1493POPC   C1A29845  -5.107  17.804  14.450
 1493POPC   D2A29846  -4.935  17.713  14.401
 1493POPC   C3A29847  -4.764  17.622  14.352
 1493POPC   C4A29848  -4.593  17.531  14.303
 1493POPC   C1B29849  -5.209  17.668  14.346
 1493POPC   C2B29850  -5.038  17.577  14.297
 1493POPC   C3B29851  -4.867  17.486  14.248
 1493POPC   C4B29852  -4.695  17.395  14.199
 1494POPC   NC329853   7.705  24.801  -0.079
 1494POPC   PO429854   7.730  24.639   0.035
 1494POPC   GL129855   7.755  24.477   0.149
 1494POPC   GL229856   7.828  24.523   0.199
 1494POPC   C1A29857   7.780  24.315   0.264
 1494POPC   D2A29858   7.804  24.153   0.378
 1494POPC   C3A29859   7.829  23.991   0.493
 1494POPC   C4A29860   7.854  23.829   0.607
 1494POPC   C1B29861   7.646  24.387   0.394
 1494POPC   C2B29862   7.671  24.225   0.509
 1494POPC   C3B29863   7.695  24.063   0.623
 1494POPC   C4B29864   7.720  23.901   0.737
 1495POPC   NC329865  18.288  -4.258   2.775
 1495POPC   PO429866  18.197  -4.098   2.854
 1495POPC   GL129867  18.106  -3.938   2.933
 1495POPC   GL229868  18.190  -3.915   2.982
 1495POPC   C1A29869  18.015  -3.778   3.011
 1495POPC   D2A29870  17.923  -3.619   3.090
 1495POPC   C3A29871  17.832  -3.459   3.168
 1495POPC   C4A29872  17.741  -3.299   3.247
 1495POPC   C1B29873  18.075  -3.668   2.856
 1495POPC   C2B29874  17.983  -3.508   2.934
 1495POPC   C3B29875  17.892  -3.348   3.013
 1495POPC   C4B29876  17.801  -3.188   3.092
 1496POPC   NC329877   4.235  -5.409  17.562
 1496POPC   PO429878   4.300  -5.239  17.479
 1496POPC   GL129879   4.365  -5.069  17.396
 1496POPC   GL229880   4.399  -5.121  17.317
 1496POPC   C1A29881   4.429  -4.899  17.312
 1496POPC   D2A29882   4.494  -4.729  17.229
 1496POPC   C3A29883   4.558  -4.559  17.145
 1496POPC   C4A29884   4.623  -4.389  17.062
 1496POPC   C1B29885   4.253  -4.877  17.220
 1496POPC   C2B29886   4.318  -4.707  17.136
 1496POPC   C3B29887   4.382  -4.537  17.053
 1496POPC   C4B29888   4.447  -4.367  16.970
 1497POPC   NC329889  16.847  26.223   6.480
 1497POPC   PO429890  16.768  26.043   6.516
 1497POPC   GL129891  16.689  25.863   6.552
 1497POPC   GL229892  16.765  25.820   6.503
 1497POPC   C1A29893  16.610  25.683   6.588
 1497POPC   D2A29894  16.531  25.502   6.623
 1497POPC   C3A29895  16.452  25.322   6.659
 1497POPC   C4A29896  16.373  25.142   6.695
 1497POPC   C1B29897  16.713  25.671   6.759
 1497POPC   C2B29898  16.634  25.491   6.794
 1497POPC   C3B29899  16.555  25.311   6.830
 1497POPC   C4B29900  16.476  25.131   6.866
 1498POPC   NC329901   7.656  -5.713   1.342
 1498POPC   PO429902   7.681  -5.539   1.438
 1498POPC   GL129903   7.706  -5.365   1.534
 1498POPC   GL229904   7.796  -5.354   1.490
 1498POPC   C1A29905   7.732  -5.191   1.629
 1498POPC   D2A29906   7.757  -5.018   1.725
 1498POPC   C3A29907   7.783  -4.844   1.820
 1498POPC   C4A29908   7.808  -4.670   1.916
 1498POPC   C1B29909   7.645  -5.095   1.477
 1498POPC   C2B29910   7.670  -4.921   1.573
 1498POPC   C3B29911   7.696  -4.748   1.668
 1498POPC   C4B29912   7.721  -4.574   1.764
 1499POPC   NC329913   7.575  13.398  -7.667
 1499POPC   PO429914   7.599  13.361  -7.472
 1499POPC   GL129915   7.623  13.324  -7.277
 1499POPC   GL229916   7.721  13.307  -7.292
 1499POPC   C1A29917   7.647  13.287  -7.082
 1499POPC   D2A29918   7.672  13.250  -6.887
 1499POPC   C3A29919   7.696  13.213  -6.692
 1499POPC   C4A29920   7.720  13.176  -6.497
 1499POPC   C1B29921   7.687  13.481  -7.050
 1499POPC   C2B29922   7.711  13.444  -6.855
 1499POPC   C3B29923   7.735  13.407  -6.660
 1499POPC   C4B29924   7.759  13.370  -6.465
 1500POPC   NC329925  17.759  -2.204  -0.809
 1500POPC   PO429926  17.672  -2.068  -0.690
 1500POPC   GL129927  17.585  -1.932  -0.571
 1500POPC   GL229928  17.625  -1.859  -0.627
 1500POPC   C1A29929  17.498  -1.797  -0.453
 1500POPC   D2A29930  17.412  -1.661  -0.334
 1500POPC   C3A29931  17.325  -1.526  -0.216
 1500POPC   C4A29932  17.238  -1.390  -0.097
 1500POPC   C1B29933  17.336  -1.798  -0.570
 1500POPC   C2B29934  17.250  -1.662  -0.452
 1500POPC   C3B29935  17.163  -1.526  -0.333
 1500POPC   C4B29936  17.076  -1.391  -0.214
 1501POPC   NC329937  20.545   0.942  21.295
 1501POPC   PO429938  20.426   1.041  21.169
 1501POPC   GL129939  20.307   1.140  21.043
 1501POPC   GL229940  20.372   1.124  20.968
 1501POPC   C1A29941  20.188   1.239  20.916
 1501POPC   D2A29942  20.068   1.338  20.790
 1501POPC   C3A29943  19.949   1.437  20.663
 1501POPC   C4A29944  19.830   1.536  20.537
 1501POPC   C1B29945  20.093   1.068  20.871
 1501POPC   C2B29946  19.974   1.167  20.745
 1501POPC   C3B29947  19.855   1.266  20.619
 1501POPC   C4B29948  19.736   1.365  20.492
 1502POPC   NC329949  -6.677   3.729   6.527
 1502POPC   PO429950  -6.494   3.803   6.561
 1502POPC   GL129951  -6.311   3.877   6.595
 1502POPC   GL229952  -6.293   3.802   6.658
 1502POPC   C1A29953  -6.128   3.950   6.629
 1502POPC   D2A29954  -5.946   4.024   6.663
 1502POPC   C3A29955  -5.763   4.097   6.697
 1502POPC   C4A29956  -5.580   4.171   6.731
 1502POPC   C1B29957  -6.056   3.840   6.478
 1502POPC   C2B29958  -5.873   3.914   6.512
 1502POPC   C3B29959  -5.691   3.987   6.546
 1502POPC   C4B29960  -5.508   4.061   6.580
 1503POPC   NC329961   4.724  25.218  18.187
 1503POPC   PO429962   4.781  25.048  18.099
 1503POPC   GL129963   4.838  24.878  18.011
 1503POPC   GL229964   4.925  24.881  18.061
 1503POPC   C1A29965   4.895  24.707  17.923
 1503POPC   D2A29966   4.953  24.537  17.836
 1503POPC   C3A29967   5.010  24.366  17.748
 1503POPC   C4A29968   5.067  24.196  17.660
 1503POPC   C1B29969   4.814  24.603  18.073
 1503POPC   C2B29970   4.871  24.432  17.986
 1503POPC   C3B29971   4.929  24.262  17.898
 1503POPC   C4B29972   4.986  24.092  17.810
 1504POPC   NC329973   6.633  27.751   9.095
 1504POPC   PO429974   6.665  27.554   9.106
 1504POPC   GL129975   6.697  27.357   9.117
 1504POPC   GL229976   6.711  27.365   9.215
 1504POPC   C1A29977   6.729  27.160   9.128
 1504POPC   D2A29978   6.762  26.963   9.138
 1504POPC   C3A29979   6.794  26.766   9.149
 1504POPC   C4A29980   6.826  26.569   9.160
 1504POPC   C1B29981   6.534  27.130   9.158
 1504POPC   C2B29982   6.566  26.933   9.168
 1504POPC   C3B29983   6.598  26.736   9.179
 1504POPC   C4B29984   6.631  26.539   9.190
 1505POPC   NC329985  24.643  19.421   5.950
 1505POPC   PO429986  24.479  19.316   5.994
 1505POPC   GL129987  24.315  19.211   6.038
 1505POPC   GL229988  24.325  19.159   5.953
 1505POPC   C1A29989  24.151  19.105   6.082
 1505POPC   D2A29990  23.986  19.000   6.125
 1505POPC   C3A29991  23.822  18.894   6.169
 1505POPC   C4A29992  23.658  18.789   6.213
 1505POPC   C1B29993  24.263  18.970   6.177
 1505POPC   C2B29994  24.099  18.864   6.221
 1505POPC   C3B29995  23.934  18.759   6.264
 1505POPC   C4B29996  23.770  18.654   6.308
 1506POPC   NC329997   6.593   1.860  -5.909
 1506POPC   PO429998   6.626   1.947  -5.732
 1506POPC   GL129999   6.659   2.034  -5.555
 1506POPC   GL230000   6.712   1.955  -5.525
 1506POPC   C1A30001   6.691   2.121  -5.378
 1506POPC   D2A30002   6.724   2.209  -5.201
 1506POPC   C3A30003   6.756   2.296  -5.024
 1506POPC   C4A30004   6.789   2.383  -4.847
 1506POPC   C1B30005   6.858   2.205  -5.450
 1506POPC   C2B30006   6.890   2.293  -5.273
 1506POPC   C3B30007   6.923   2.380  -5.096
 1506POPC   C4B30008   6.956   2.467  -4.919
 1507POPC   NC330009  11.569  -7.673   6.238
 1507POPC   PO430010  11.552  -7.478   6.277
 1507POPC   GL130011  11.535  -7.283   6.316
 1507POPC   GL230012  11.574  -7.297   6.407
 1507POPC   C1A30013  11.518  -7.087   6.355
 1507POPC   D2A30014  11.501  -6.892   6.395
 1507POPC   C3A30015  11.484  -6.696   6.434
 1507POPC   C4A30016  11.467  -6.501   6.473
 1507POPC   C1B30017  11.702  -7.057   6.283
 1507POPC   C2B30018  11.685  -6.861   6.322
 1507POPC   C3B30019  11.668  -6.666   6.361
 1507POPC   C4B30020  11.651  -6.470   6.400
 1508POPC   NC330021  -0.081  24.172   5.148
 1508POPC   PO430022   0.029  24.014   5.201
 1508POPC   GL130023   0.139  23.856   5.254
 1508POPC   GL230024   0.222  23.912   5.252
 1508POPC   C1A30025   0.249  23.698   5.307
 1508POPC   D2A30026   0.360  23.539   5.361
 1508POPC   C3A30027   0.470  23.381   5.414
 1508POPC   C4A30028   0.580  23.223   5.467
 1508POPC   C1B30029   0.223  23.744   5.500
 1508POPC   C2B30030   0.333  23.585   5.553
 1508POPC   C3B30031   0.443  23.427   5.607
 1508POPC   C4B30032   0.553  23.269   5.660
 1509POPC   NC330033  -2.610   2.800  -0.992
 1509POPC   PO430034  -2.476   2.881  -0.867
 1509POPC   GL130035  -2.342   2.962  -0.742
 1509POPC   GL230036  -2.378   2.906  -0.668
 1509POPC   C1A30037  -2.208   3.043  -0.618
 1509POPC   D2A30038  -2.075   3.124  -0.493
 1509POPC   C3A30039  -1.941   3.205  -0.369
 1509POPC   C4A30040  -1.807   3.286  -0.244
 1509POPC   C1B30041  -2.078   2.899  -0.664
 1509POPC   C2B30042  -1.944   2.980  -0.540
 1509POPC   C3B30043  -1.810   3.061  -0.415
 1509POPC   C4B30044  -1.676   3.142  -0.290
 1510POPC   NC330045  -1.439  12.120  23.819
 1510POPC   PO430046  -1.315  12.092  23.664
 1510POPC   GL130047  -1.191  12.064  23.509
 1510POPC   GL230048  -1.113  12.064  23.572
 1510POPC   C1A30049  -1.068  12.036  23.354
 1510POPC   D2A30050  -0.944  12.008  23.200
 1510POPC   C3A30051  -0.821  11.980  23.045
 1510POPC   C4A30052  -0.697  11.952  22.890
 1510POPC   C1B30053  -1.085  11.838  23.376
 1510POPC   C2B30054  -0.962  11.810  23.221
 1510POPC   C3B30055  -0.838  11.782  23.067
 1510POPC   C4B30056  -0.714  11.754  22.912
 1511POPC   NC330057  25.163  19.521   9.557
 1511POPC   PO430058  24.993  19.415   9.565
 1511POPC   GL130059  24.823  19.309   9.573
 1511POPC   GL230060  24.876  19.225   9.585
 1511POPC   C1A30061  24.654  19.204   9.581
 1511POPC   D2A30062  24.484  19.098   9.589
 1511POPC   C3A30063  24.315  18.993   9.597
 1511POPC   C4A30064  24.145  18.887   9.605
 1511POPC   C1B30065  24.648  19.229   9.779
 1511POPC   C2B30066  24.478  19.123   9.787
 1511POPC   C3B30067  24.309  19.017   9.795
 1511POPC   C4B30068  24.139  18.912   9.803
 1512POPC   NC330069  10.477  -2.743  22.657
 1512POPC   PO430070  10.463  -2.600  22.518
 1512POPC   GL130071  10.449  -2.457  22.379
 1512POPC   GL230072  10.471  -2.388  22.447
 1512POPC   C1A30073  10.436  -2.314  22.239
 1512POPC   D2A30074  10.422  -2.172  22.100
 1512POPC   C3A30075  10.409  -2.029  21.960
 1512POPC   C4A30076  10.395  -1.886  21.821
 1512POPC   C1B30077  10.630  -2.336  22.198
 1512POPC   C2B30078  10.617  -2.193  22.059
 1512POPC   C3B30079  10.603  -2.050  21.920
 1512POPC   C4B30080  10.590  -1.907  21.780
 1513POPC   NC330081  16.988  26.494  10.567
 1513POPC   PO430082  16.904  26.312  10.561
 1513POPC   GL130083  16.820  26.130  10.555
 1513POPC   GL230084  16.911  26.089  10.565
 1513POPC   C1A30085  16.736  25.949  10.550
 1513POPC   D2A30086  16.653  25.767  10.544
 1513POPC   C3A30087  16.569  25.586  10.539
 1513POPC   C4A30088  16.485  25.404  10.533
 1513POPC   C1B30089  16.717  25.951  10.749
 1513POPC   C2B30090  16.633  25.770  10.743
 1513POPC   C3B30091  16.550  25.588  10.738
 1513POPC   C4B30092  16.466  25.407  10.732
 1514POPC   NC330093  24.430  15.148   0.606
 1514POPC   PO430094  24.268  15.092   0.709
 1514POPC   GL130095  24.106  15.036   0.812
 1514POPC   GL230096  24.048  15.088   0.749
 1514POPC   C1A30097  23.944  14.981   0.915
 1514POPC   D2A30098  23.782  14.925   1.019
 1514POPC   C3A30099  23.620  14.870   1.122
 1514POPC   C4A30100  23.458  14.814   1.225
 1514POPC   C1B30101  23.926  14.819   0.800
 1514POPC   C2B30102  23.764  14.763   0.903
 1514POPC   C3B30103  23.602  14.708   1.006
 1514POPC   C4B30104  23.440  14.652   1.109
 1515POPC   NC330105  26.946   5.326   6.400
 1515POPC   PO430106  26.756   5.374   6.440
 1515POPC   GL130107  26.566   5.422   6.480
 1515POPC   GL230108  26.549   5.435   6.382
 1515POPC   C1A30109  26.376   5.470   6.520
 1515POPC   D2A30110  26.186   5.518   6.560
 1515POPC   C3A30111  25.996   5.566   6.600
 1515POPC   C4A30112  25.806   5.614   6.640
 1515POPC   C1B30113  26.324   5.277   6.504
 1515POPC   C2B30114  26.134   5.325   6.544
 1515POPC   C3B30115  25.944   5.373   6.584
 1515POPC   C4B30116  25.754   5.421   6.624
 1516POPC   NC330117  13.278  22.045  -3.102
 1516POPC   PO430118  13.247  21.913  -2.955
 1516POPC   GL130119  13.216  21.781  -2.808
 1516POPC   GL230120  13.231  21.706  -2.872
 1516POPC   C1A30121  13.185  21.650  -2.660
 1516POPC   D2A30122  13.155  21.518  -2.513
 1516POPC   C3A30123  13.124  21.387  -2.365
 1516POPC   C4A30124  13.093  21.255  -2.218
 1516POPC   C1B30125  13.381  21.652  -2.618
 1516POPC   C2B30126  13.350  21.520  -2.470
 1516POPC   C3B30127  13.319  21.388  -2.323
 1516POPC   C4B30128  13.288  21.257  -2.176
 1517POPC   NC330129  15.445  -6.948   7.217
 1517POPC   PO430130  15.380  -6.762   7.248
 1517POPC   GL130131  15.315  -6.576   7.279
 1517POPC   GL230132  15.408  -6.541   7.268
 1517POPC   C1A30133  15.249  -6.389   7.310
 1517POPC   D2A30134  15.184  -6.203   7.342
 1517POPC   C3A30135  15.118  -6.016   7.373
 1517POPC   C4A30136  15.053  -5.830   7.404
 1517POPC   C1B30137  15.218  -6.367   7.114
 1517POPC   C2B30138  15.153  -6.181   7.145
 1517POPC   C3B30139  15.087  -5.994   7.176
 1517POPC   C4B30140  15.022  -5.808   7.208
 1518POPC   NC330141  10.434  23.083  -2.432
 1518POPC   PO430142  10.430  22.939  -2.294
 1518POPC   GL130143  10.426  22.795  -2.156
 1518POPC   GL230144  10.488  22.848  -2.098
 1518POPC   C1A30145  10.422  22.651  -2.017
 1518POPC   D2A30146  10.417  22.506  -1.879
 1518POPC   C3A30147  10.413  22.362  -1.740
 1518POPC   C4A30148  10.409  22.218  -1.602
 1518POPC   C1B30149  10.265  22.739  -1.930
 1518POPC   C2B30150  10.260  22.595  -1.792
 1518POPC   C3B30151  10.256  22.450  -1.653
 1518POPC   C4B30152  10.252  22.306  -1.515
 1519POPC   NC330153  15.214  -4.202   0.141
 1519POPC   PO430154  15.156  -4.047   0.253
 1519POPC   GL130155  15.098  -3.892   0.365
 1519POPC   GL230156  15.185  -3.847   0.348
 1519POPC   C1A30157  15.039  -3.737   0.476
 1519POPC   D2A30158  14.981  -3.581   0.588
 1519POPC   C3A30159  14.922  -3.426   0.699
 1519POPC   C4A30160  14.864  -3.271   0.811
 1519POPC   C1B30161  14.962  -3.649   0.314
 1519POPC   C2B30162  14.904  -3.494   0.425
 1519POPC   C3B30163  14.845  -3.338   0.537
 1519POPC   C4B30164  14.787  -3.183   0.649
 1520POPC   NC330165  13.740  11.785  -7.624
 1520POPC   PO430166  13.696  11.762  -7.430
 1520POPC   GL130167  13.652  11.739  -7.236
 1520POPC   GL230168  13.587  11.666  -7.260
 1520POPC   C1A30169  13.608  11.716  -7.043
 1520POPC   D2A30170  13.563  11.693  -6.849
 1520POPC   C3A30171  13.519  11.670  -6.656
 1520POPC   C4A30172  13.475  11.647  -6.462
 1520POPC   C1B30173  13.754  11.581  -7.025
 1520POPC   C2B30174  13.710  11.558  -6.832
 1520POPC   C3B30175  13.666  11.535  -6.638
 1520POPC   C4B30176  13.621  11.512  -6.445
 1521POPC   NC330177  19.052  21.592  20.283
 1521POPC   PO430178  18.948  21.460  20.174
 1521POPC   GL130179  18.844  21.328  20.065
 1521POPC   GL230180  18.929  21.297  20.022
 1521POPC   C1A30181  18.741  21.196  19.956
 1521POPC   D2A30182  18.637  21.065  19.847
 1521POPC   C3A30183  18.534  20.933  19.738
 1521POPC   C4A30184  18.430  20.801  19.629
 1521POPC   C1B30185  18.764  21.059  20.100
 1521POPC   C2B30186  18.660  20.927  19.991
 1521POPC   C3B30187  18.557  20.796  19.882
 1521POPC   C4B30188  18.453  20.664  19.773
 1522POPC   NC330189  12.675  24.001  -1.151
 1522POPC   PO430190  12.650  23.845  -1.029
 1522POPC   GL130191  12.625  23.689  -0.907
 1522POPC   GL230192  12.692  23.637  -0.959
 1522POPC   C1A30193  12.599  23.533  -0.784
 1522POPC   D2A30194  12.574  23.376  -0.662
 1522POPC   C3A30195  12.548  23.220  -0.539
 1522POPC   C4A30196  12.523  23.064  -0.417
 1522POPC   C1B30197  12.745  23.602  -0.666
 1522POPC   C2B30198  12.719  23.446  -0.543
 1522POPC   C3B30199  12.694  23.289  -0.421
 1522POPC   C4B30200  12.668  23.133  -0.299
 1523POPC   NC330201  -0.875  24.437  11.718
 1523POPC   PO430202  -0.758  24.276  11.703
 1523POPC   GL130203  -0.641  24.115  11.688
 1523POPC   GL230204  -0.680  24.078  11.772
 1523POPC   C1A30205  -0.523  23.953  11.673
 1523POPC   D2A30206  -0.406  23.792  11.659
 1523POPC   C3A30207  -0.288  23.630  11.644
 1523POPC   C4A30208  -0.171  23.469  11.629
 1523POPC   C1B30209  -0.665  23.860  11.567
 1523POPC   C2B30210  -0.547  23.699  11.552
 1523POPC   C3B30211  -0.430  23.537  11.537
 1523POPC   C4B30212  -0.312  23.376  11.522
 1524POPC   NC330213  21.097  14.492  -3.466
 1524POPC   PO430214  20.975  14.442  -3.316
 1524POPC   GL130215  20.853  14.392  -3.166
 1524POPC   GL230216  20.813  14.320  -3.223
 1524POPC   C1A30217  20.731  14.341  -3.016
 1524POPC   D2A30218  20.609  14.291  -2.865
 1524POPC   C3A30219  20.487  14.240  -2.715
 1524POPC   C4A30220  20.365  14.190  -2.565
 1524POPC   C1B30221  20.867  14.211  -2.949
 1524POPC   C2B30222  20.745  14.161  -2.798
 1524POPC   C3B30223  20.623  14.110  -2.648
 1524POPC   C4B30224  20.501  14.060  -2.498
 1525POPC   NC330225  -4.625   6.978  20.312
 1525POPC   PO430226  -4.466   7.008  20.195
 1525POPC   GL130227  -4.307   7.038  20.078
 1525POPC   GL230228  -4.272   7.105  20.143
 1525POPC   C1A30229  -4.148   7.068  19.960
 1525POPC   D2A30230  -3.989   7.099  19.843
 1525POPC   C3A30231  -3.830   7.129  19.725
 1525POPC   C4A30232  -3.671   7.159  19.608
 1525POPC   C1B30233  -4.050   6.923  20.056
 1525POPC   C2B30234  -3.891   6.953  19.939
 1525POPC   C3B30235  -3.732   6.983  19.821
 1525POPC   C4B30236  -3.573   7.013  19.704
 1526POPC   NC330237   1.794  16.210  24.819
 1526POPC   PO430238   1.891  16.142  24.658
 1526POPC   GL130239   1.988  16.074  24.497
 1526POPC   GL230240   2.069  16.128  24.523
 1526POPC   C1A30241   2.086  16.007  24.336
 1526POPC   D2A30242   2.183  15.939  24.175
 1526POPC   C3A30243   2.281  15.872  24.014
 1526POPC   C4A30244   2.378  15.804  23.853
 1526POPC   C1B30245   2.155  15.853  24.443
 1526POPC   C2B30246   2.253  15.785  24.282
 1526POPC   C3B30247   2.350  15.717  24.121
 1526POPC   C4B30248   2.448  15.650  23.960
 1527POPC   NC330249  24.916  16.690  17.397
 1527POPC   PO430250  24.748  16.618  17.316
 1527POPC   GL130251  24.580  16.546  17.235
 1527POPC   GL230252  24.621  16.552  17.144
 1527POPC   C1A30253  24.412  16.474  17.154
 1527POPC   D2A30254  24.243  16.403  17.074
 1527POPC   C3A30255  24.075  16.331  16.993
 1527POPC   C4A30256  23.907  16.259  16.912
 1527POPC   C1B30257  24.482  16.288  17.174
 1527POPC   C2B30258  24.313  16.216  17.093
 1527POPC   C3B30259  24.145  16.145  17.013
 1527POPC   C4B30260  23.977  16.073  16.932
 1528POPC   NC330261  17.526  -6.244   8.176
 1528POPC   PO430262  17.442  -6.064   8.197
 1528POPC   GL130263  17.358  -5.884   8.218
 1528POPC   GL230264  17.442  -5.841   8.187
 1528POPC   C1A30265  17.274  -5.704   8.239
 1528POPC   D2A30266  17.189  -5.523   8.261
 1528POPC   C3A30267  17.105  -5.343   8.282
 1528POPC   C4A30268  17.021  -5.163   8.303
 1528POPC   C1B30269  17.209  -5.712   8.050
 1528POPC   C2B30270  17.125  -5.531   8.072
 1528POPC   C3B30271  17.040  -5.351   8.093
 1528POPC   C4B30272  16.956  -5.171   8.114
 1529POPC   NC330273  26.586  10.523  16.775
 1529POPC   PO430274  26.401  10.513  16.699
 1529POPC   GL130275  26.216  10.503  16.623
 1529POPC   GL230276  26.239  10.415  16.581
 1529POPC   C1A30277  26.031  10.492  16.548
 1529POPC   D2A30278  25.847  10.482  16.472
 1529POPC   C3A30279  25.662  10.471  16.397
 1529POPC   C4A30280  25.477  10.461  16.321
 1529POPC   C1B30281  25.970  10.396  16.712
 1529POPC   C2B30282  25.785  10.386  16.636
 1529POPC   C3B30283  25.600  10.376  16.561
 1529POPC   C4B30284  25.415  10.365  16.485
 1530POPC   NC330285   1.635  26.019   9.532
 1530POPC   PO430286   1.733  25.845   9.540
 1530POPC   GL130287   1.831  25.671   9.548
 1530POPC   GL230288   1.898  25.705   9.482
 1530POPC   C1A30289   1.928  25.496   9.556
 1530POPC   D2A30290   2.026  25.322   9.563
 1530POPC   C3A30291   2.123  25.147   9.571
 1530POPC   C4A30292   2.221  24.973   9.579
 1530POPC   C1B30293   2.040  25.565   9.707
 1530POPC   C2B30294   2.137  25.391   9.714
 1530POPC   C3B30295   2.235  25.217   9.722
 1530POPC   C4B30296   2.332  25.042   9.730
 1531POPC   NC330297  17.880   4.420  -5.221
 1531POPC   PO430298  17.791   4.478  -5.052
 1531POPC   GL130299  17.702   4.536  -4.883
 1531POPC   GL230300  17.617   4.494  -4.913
 1531POPC   C1A30301  17.613   4.594  -4.713
 1531POPC   D2A30302  17.524   4.652  -4.544
 1531POPC   C3A30303  17.435   4.710  -4.374
 1531POPC   C4A30304  17.346   4.768  -4.205
 1531POPC   C1B30305  17.666   4.422  -4.626
 1531POPC   C2B30306  17.577   4.480  -4.457
 1531POPC   C3B30307  17.488   4.538  -4.288
 1531POPC   C4B30308  17.399   4.596  -4.118
 1532POPC   NC330309   9.900  28.016   9.646
 1532POPC   PO430310   9.899  27.816   9.649
 1532POPC   GL130311   9.898  27.616   9.652
 1532POPC   GL230312   9.985  27.615   9.602
 1532POPC   C1A30313   9.897  27.416   9.654
 1532POPC   D2A30314   9.895  27.216   9.657
 1532POPC   C3A30315   9.894  27.016   9.659
 1532POPC   C4A30316   9.893  26.816   9.662
 1532POPC   C1B30317   9.995  27.418   9.828
 1532POPC   C2B30318   9.994  27.218   9.831
 1532POPC   C3B30319   9.993  27.018   9.833
 1532POPC   C4B30320   9.992  26.818   9.836
 1533POPC   NC330321  24.429  14.863   0.458
 1533POPC   PO430322  24.267  14.811   0.563
 1533POPC   GL130323  24.105  14.759   0.668
 1533POPC   GL230324  24.046  14.799   0.597
 1533POPC   C1A30325  23.943  14.707   0.773
 1533POPC   D2A30326  23.781  14.654   0.878
 1533POPC   C3A30327  23.619  14.602   0.983
 1533POPC   C4A30328  23.457  14.550   1.088
 1533POPC   C1B30329  23.938  14.531   0.678
 1533POPC   C2B30330  23.776  14.479   0.783
 1533POPC   C3B30331  23.614  14.426   0.888
 1533POPC   C4B30332  23.452  14.374   0.993
 1534POPC   NC330333  25.061  11.369   0.356
 1534POPC   PO430334  24.895  11.356   0.466
 1534POPC   GL130335  24.729  11.343   0.576
 1534POPC   GL230336  24.694  11.427   0.534
 1534POPC   C1A30337  24.563  11.329   0.687
 1534POPC   D2A30338  24.396  11.316   0.797
 1534POPC   C3A30339  24.230  11.302   0.908
 1534POPC   C4A30340  24.064  11.289   1.018
 1534POPC   C1B30341  24.476  11.221   0.543
 1534POPC   C2B30342  24.309  11.208   0.653
 1534POPC   C3B30343  24.143  11.194   0.764
 1534POPC   C4B30344  23.977  11.181   0.874
 1535POPC   NC330345  -7.405   8.834  15.095
 1535POPC   PO430346  -7.213   8.847  15.040
 1535POPC   GL130347  -7.021   8.860  14.985
 1535POPC   GL230348  -7.002   8.773  15.030
 1535POPC   C1A30349  -6.829   8.873  14.930
 1535POPC   D2A30350  -6.638   8.887  14.876
 1535POPC   C3A30351  -6.446   8.900  14.821
 1535POPC   C4A30352  -6.254   8.913  14.766
 1535POPC   C1B30353  -6.871   8.777  14.760
 1535POPC   C2B30354  -6.680   8.791  14.705
 1535POPC   C3B30355  -6.488   8.804  14.650
 1535POPC   C4B30356  -6.296   8.817  14.596
 1536POPC   NC330357   4.376  25.768  16.755
 1536POPC   PO430358   4.435  25.592  16.681
 1536POPC   GL130359   4.494  25.416  16.607
 1536POPC   GL230360   4.519  25.386  16.699
 1536POPC   C1A30361   4.553  25.240  16.533
 1536POPC   D2A30362   4.611  25.063  16.458
 1536POPC   C3A30363   4.670  24.887  16.384
 1536POPC   C4A30364   4.729  24.711  16.310
 1536POPC   C1B30365   4.368  25.167  16.559
 1536POPC   C2B30366   4.427  24.991  16.485
 1536POPC   C3B30367   4.486  24.814  16.411
 1536POPC   C4B30368   4.545  24.638  16.337
 1537POPC   NC330369   5.749  26.292  16.477
 1537POPC   PO430370   5.797  26.112  16.405
 1537POPC   GL130371   5.845  25.932  16.333
 1537POPC   GL230372   5.923  25.971  16.285
 1537POPC   C1A30373   5.892  25.751  16.261
 1537POPC   D2A30374   5.940  25.571  16.190
 1537POPC   C3A30375   5.987  25.390  16.118
 1537POPC   C4A30376   6.035  25.210  16.046
 1537POPC   C1B30377   6.008  25.718  16.421
 1537POPC   C2B30378   6.056  25.538  16.349
 1537POPC   C3B30379   6.103  25.358  16.277
 1537POPC   C4B30380   6.151  25.177  16.206
 1538POPC   NC330381  18.849  24.673  15.294
 1538POPC   PO430382  18.746  24.514  15.229
 1538POPC   GL130383  18.643  24.355  15.164
 1538POPC   GL230384  18.656  24.386  15.069
 1538POPC   C1A30385  18.541  24.196  15.099
 1538POPC   D2A30386  18.438  24.038  15.033
 1538POPC   C3A30387  18.336  23.879  14.968
 1538POPC   C4A30388  18.233  23.720  14.903
 1538POPC   C1B30389  18.711  24.091  15.087
 1538POPC   C2B30390  18.608  23.933  15.022
 1538POPC   C3B30391  18.505  23.774  14.957
 1538POPC   C4B30392  18.403  23.615  14.892
 1539POPC   NC330393  21.412  14.739  22.818
 1539POPC   PO430394  21.286  14.686  22.672
 1539POPC   GL130395  21.160  14.633  22.526
 1539POPC   GL230396  21.164  14.725  22.489
 1539POPC   C1A30397  21.034  14.580  22.380
 1539POPC   D2A30398  20.907  14.526  22.235
 1539POPC   C3A30399  20.781  14.473  22.089
 1539POPC   C4A30400  20.655  14.420  21.943
 1539POPC   C1B30401  21.189  14.526  22.266
 1539POPC   C2B30402  21.062  14.473  22.120
 1539POPC   C3B30403  20.936  14.420  21.974
 1539POPC   C4B30404  20.810  14.367  21.828
 1540POPC   NC330405  18.099  12.000  -5.986
 1540POPC   PO430406  18.005  11.983  -5.810
 1540POPC   GL130407  17.911  11.966  -5.634
 1540POPC   GL230408  17.845  12.035  -5.663
 1540POPC   C1A30409  17.817  11.949  -5.459
 1540POPC   D2A30410  17.722  11.932  -5.283
 1540POPC   C3A30411  17.628  11.915  -5.108
 1540POPC   C4A30412  17.534  11.898  -4.932
 1540POPC   C1B30413  17.700  11.806  -5.535
 1540POPC   C2B30414  17.606  11.789  -5.360
 1540POPC   C3B30415  17.512  11.772  -5.184
 1540POPC   C4B30416  17.417  11.755  -5.008
 1541POPC   NC330417   3.321  -6.210   5.296
 1541POPC   PO430418   3.392  -6.030   5.349
 1541POPC   GL130419   3.463  -5.850   5.402
 1541POPC   GL230420   3.471  -5.882   5.496
 1541POPC   C1A30421   3.533  -5.671   5.455
 1541POPC   D2A30422   3.604  -5.491   5.507
 1541POPC   C3A30423   3.674  -5.312   5.560
 1541POPC   C4A30424   3.745  -5.132   5.613
 1541POPC   C1B30425   3.720  -5.733   5.417
 1541POPC   C2B30426   3.790  -5.553   5.470
 1541POPC   C3B30427   3.861  -5.374   5.523
 1541POPC   C4B30428   3.931  -5.194   5.576
 1542POPC   NC330429  24.900   0.875   5.876
 1542POPC   PO430430  24.733   0.977   5.918
 1542POPC   GL130431  24.566   1.079   5.960
 1542POPC   GL230432  24.575   1.129   5.874
 1542POPC   C1A30433  24.399   1.181   6.001
 1542POPC   D2A30434  24.232   1.283   6.043
 1542POPC   C3A30435  24.065   1.385   6.084
 1542POPC   C4A30436  23.898   1.487   6.126
 1542POPC   C1B30437  24.290   1.041   5.908
 1542POPC   C2B30438  24.123   1.143   5.950
 1542POPC   C3B30439  23.956   1.245   5.992
 1542POPC   C4B30440  23.789   1.347   6.033
 1543POPC   NC330441  25.702  17.232   5.314
 1543POPC   PO430442  25.527  17.148   5.361
 1543POPC   GL130443  25.352  17.064   5.408
 1543POPC   GL230444  25.361  17.002   5.330
 1543POPC   C1A30445  25.176  16.980   5.454
 1543POPC   D2A30446  25.001  16.896   5.501
 1543POPC   C3A30447  24.825  16.812   5.547
 1543POPC   C4A30448  24.650  16.728   5.594
 1543POPC   C1B30449  25.270  16.848   5.571
 1543POPC   C2B30450  25.095  16.764   5.618
 1543POPC   C3B30451  24.920  16.680   5.664
 1543POPC   C4B30452  24.744  16.596   5.711
 1544POPC   NC330453  11.307  11.486  -8.035
 1544POPC   PO430454  11.292  11.467  -7.836
 1544POPC   GL130455  11.277  11.448  -7.637
 1544POPC   GL230456  11.358  11.388  -7.637
 1544POPC   C1A30457  11.263  11.428  -7.439
 1544POPC   D2A30458  11.248  11.409  -7.240
 1544POPC   C3A30459  11.234  11.389  -7.042
 1544POPC   C4A30460  11.219  11.370  -6.843
 1544POPC   C1B30461  11.381  11.587  -7.415
 1544POPC   C2B30462  11.367  11.568  -7.216
 1544POPC   C3B30463  11.352  11.549  -7.017
 1544POPC   C4B30464  11.338  11.529  -6.819
 1545POPC   NC330465  26.555   6.199  15.696
 1545POPC   PO430466  26.371   6.243  15.630
 1545POPC   GL130467  26.187   6.287  15.564
 1545POPC   GL230468  26.206   6.385  15.575
 1545POPC   C1A30469  26.003   6.331  15.498
 1545POPC   D2A30470  25.820   6.375  15.433
 1545POPC   C3A30471  25.636   6.419  15.367
 1545POPC   C4A30472  25.452   6.463  15.301
 1545POPC   C1B30473  26.072   6.339  15.311
 1545POPC   C2B30474  25.889   6.383  15.245
 1545POPC   C3B30475  25.705   6.427  15.179
 1545POPC   C4B30476  25.521   6.471  15.113
 1546POPC   NC330477  20.526  14.366  23.674
 1546POPC   PO430478  20.406  14.315  23.522
 1546POPC   GL130479  20.286  14.264  23.370
 1546POPC   GL230480  20.341  14.321  23.308
 1546POPC   C1A30481  20.167  14.213  23.218
 1546POPC   D2A30482  20.047  14.163  23.066
 1546POPC   C3A30483  19.928  14.112  22.914
 1546POPC   C4A30484  19.808  14.061  22.762
 1546POPC   C1B30485  20.284  14.056  23.178
 1546POPC   C2B30486  20.164  14.005  23.026
 1546POPC   C3B30487  20.045  13.955  22.874
 1546POPC   C4B30488  19.925  13.904  22.722
 1547POPC   NC330489  -3.537  -2.088  10.981
 1547POPC   PO430490  -3.390  -1.953  10.970
 1547POPC   GL130491  -3.243  -1.818  10.959
 1547POPC   GL230492  -3.193  -1.866  11.031
 1547POPC   C1A30493  -3.096  -1.682  10.948
 1547POPC   D2A30494  -2.950  -1.547  10.937
 1547POPC   C3A30495  -2.803  -1.411  10.926
 1547POPC   C4A30496  -2.656  -1.276  10.915
 1547POPC   C1B30497  -3.004  -1.794  10.810
 1547POPC   C2B30498  -2.857  -1.658  10.799
 1547POPC   C3B30499  -2.710  -1.523  10.788
 1547POPC   C4B30500  -2.563  -1.388  10.777
 1548POPC   NC330501   4.672  -3.740  20.462
 1548POPC   PO430502   4.730  -3.589  20.345
 1548POPC   GL130503   4.788  -3.438  20.228
 1548POPC   GL230504   4.870  -3.489  20.202
 1548POPC   C1A30505   4.846  -3.286  20.110
 1548POPC   D2A30506   4.903  -3.135  19.993
 1548POPC   C3A30507   4.961  -2.983  19.875
 1548POPC   C4A30508   5.019  -2.832  19.758
 1548POPC   C1B30509   4.746  -3.367  19.957
 1548POPC   C2B30510   4.804  -3.216  19.839
 1548POPC   C3B30511   4.862  -3.064  19.722
 1548POPC   C4B30512   4.919  -2.913  19.605
 1549POPC   NC330513  10.865   3.217  26.646
 1549POPC   PO430514  10.861   3.290  26.460
 1549POPC   GL130515  10.857   3.363  26.274
 1549POPC   GL230516  10.901   3.447  26.306
 1549POPC   C1A30517  10.853   3.436  26.088
 1549POPC   D2A30518  10.848   3.510  25.902
 1549POPC   C3A30519  10.844   3.583  25.716
 1549POPC   C4A30520  10.840   3.656  25.530
 1549POPC   C1B30521  11.032   3.355  26.052
 1549POPC   C2B30522  11.027   3.428  25.866
 1549POPC   C3B30523  11.023   3.501  25.680
 1549POPC   C4B30524  11.019   3.575  25.494
 1550POPC   NC330525   5.593  -6.697  15.446
 1550POPC   PO430526   5.640  -6.512  15.385
 1550POPC   GL130527   5.687  -6.327  15.324
 1550POPC   GL230528   5.714  -6.363  15.235
 1550POPC   C1A30529   5.734  -6.142  15.264
 1550POPC   D2A30530   5.781  -5.958  15.203
 1550POPC   C3A30531   5.828  -5.773  15.143
 1550POPC   C4A30532   5.875  -5.588  15.082
 1550POPC   C1B30533   5.547  -6.117  15.197
 1550POPC   C2B30534   5.594  -5.932  15.137
 1550POPC   C3B30535   5.641  -5.747  15.076
 1550POPC   C4B30536   5.688  -5.562  15.015
 1551POPC   NC330537   5.039  24.676   0.666
 1551POPC   PO430538   5.092  24.515   0.772
 1551POPC   GL130539   5.145  24.354   0.878
 1551POPC   GL230540   5.154  24.411   0.960
 1551POPC   C1A30541   5.197  24.193   0.984
 1551POPC   D2A30542   5.250  24.031   1.091
 1551POPC   C3A30543   5.302  23.870   1.197
 1551POPC   C4A30544   5.355  23.709   1.303
 1551POPC   C1B30545   5.005  24.159   1.029
 1551POPC   C2B30546   5.058  23.998   1.135
 1551POPC   C3B30547   5.110  23.837   1.242
 1551POPC   C4B30548   5.163  23.676   1.348
 1552POPC   NC330549  27.600   6.903  10.713
 1552POPC   PO430550  27.402   6.932  10.707
 1552POPC   GL130551  27.204   6.961  10.701
 1552POPC   GL230552  27.197   6.895  10.626
 1552POPC   C1A30553  27.006   6.989  10.695
 1552POPC   D2A30554  26.809   7.018  10.689
 1552POPC   C3A30555  26.611   7.046  10.683
 1552POPC   C4A30556  26.413   7.075  10.677
 1552POPC   C1B30557  26.981   6.842  10.828
 1552POPC   C2B30558  26.783   6.870  10.822
 1552POPC   C3B30559  26.585   6.899  10.816
 1552POPC   C4B30560  26.388   6.927  10.810
 1553POPC   NC330561   5.595   2.903  -6.174
 1553POPC   PO430562   5.639   2.979  -5.995
 1553POPC   GL130563   5.683   3.055  -5.816
 1553POPC   GL230564   5.713   2.965  -5.785
 1553POPC   C1A30565   5.727   3.132  -5.636
 1553POPC   D2A30566   5.771   3.208  -5.457
 1553POPC   C3A30567   5.815   3.285  -5.277
 1553POPC   C4A30568   5.859   3.361  -5.098
 1553POPC   C1B30569   5.913   3.172  -5.699
 1553POPC   C2B30570   5.957   3.249  -5.520
 1553POPC   C3B30571   6.001   3.325  -5.340
 1553POPC   C4B30572   6.045   3.402  -5.161
 1554POPC   NC330573  -3.652  19.945  16.600
 1554POPC   PO430574  -3.502  19.835  16.528
 1554POPC   GL130575  -3.352  19.725  16.456
 1554POPC   GL230576  -3.301  19.808  16.433
 1554POPC   C1A30577  -3.201  19.615  16.383
 1554POPC   D2A30578  -3.051  19.504  16.311
 1554POPC   C3A30579  -2.900  19.394  16.238
 1554POPC   C4A30580  -2.750  19.284  16.166
 1554POPC   C1B30581  -3.116  19.613  16.564
 1554POPC   C2B30582  -2.965  19.502  16.492
 1554POPC   C3B30583  -2.815  19.392  16.419
 1554POPC   C4B30584  -2.664  19.282  16.347
 1555POPC   NC330585   0.669  24.978   6.240
 1555POPC   PO430586   0.773  24.812   6.279
 1555POPC   GL130587   0.877  24.646   6.318
 1555POPC   GL230588   0.962  24.693   6.292
 1555POPC   C1A30589   0.982  24.480   6.357
 1555POPC   D2A30590   1.086  24.314   6.397
 1555POPC   C3A30591   1.191  24.148   6.436
 1555POPC   C4A30592   1.295  23.982   6.475
 1555POPC   C1B30593   1.008  24.541   6.546
 1555POPC   C2B30594   1.112  24.375   6.585
 1555POPC   C3B30595   1.216  24.209   6.625
 1555POPC   C4B30596   1.321  24.043   6.664
 1556POPC   NC330597  27.628   7.283   8.883
 1556POPC   PO430598  27.430   7.309   8.895
 1556POPC   GL130599  27.232   7.335   8.907
 1556POPC   GL230600  27.219   7.237   8.892
 1556POPC   C1A30601  27.034   7.360   8.919
 1556POPC   D2A30602  26.836   7.386   8.930
 1556POPC   C3A30603  26.638   7.411   8.942
 1556POPC   C4A30604  26.440   7.437   8.954
 1556POPC   C1B30605  27.042   7.329   9.116
 1556POPC   C2B30606  26.844   7.355   9.128
 1556POPC   C3B30607  26.646   7.381   9.140
 1556POPC   C4B30608  26.448   7.406   9.151
 1557POPC   NC330609  19.333   3.671  23.922
 1557POPC   PO430610  19.225   3.743  23.770
 1557POPC   GL130611  19.117   3.815  23.618
 1557POPC   GL230612  19.164   3.903  23.626
 1557POPC   C1A30613  19.009   3.886  23.466
 1557POPC   D2A30614  18.900   3.958  23.313
 1557POPC   C3A30615  18.792   4.029  23.161
 1557POPC   C4A30616  18.684   4.101  23.009
 1557POPC   C1B30617  19.148   3.823  23.337
 1557POPC   C2B30618  19.040   3.895  23.185
 1557POPC   C3B30619  18.932   3.967  23.032
 1557POPC   C4B30620  18.824   4.038  22.880
 1558POPC   NC330621  25.275  14.323   1.597
 1558POPC   PO430622  25.105  14.276   1.692
 1558POPC   GL130623  24.935  14.229   1.787
 1558POPC   GL230624  24.892  14.209   1.699
 1558POPC   C1A30625  24.765  14.183   1.881
 1558POPC   D2A30626  24.595  14.136   1.976
 1558POPC   C3A30627  24.425  14.090   2.070
 1558POPC   C4A30628  24.255  14.043   2.165
 1558POPC   C1B30629  24.825  13.992   1.895
 1558POPC   C2B30630  24.655  13.946   1.989
 1558POPC   C3B30631  24.485  13.899   2.084
 1558POPC   C4B30632  24.315  13.853   2.178
 1559POPC   NC330633  22.484  19.174  19.014
 1559POPC   PO430634  22.346  19.070  18.914
 1559POPC   GL130635  22.208  18.966  18.814
 1559POPC   GL230636  22.279  18.904  18.780
 1559POPC   C1A30637  22.070  18.862  18.713
 1559POPC   D2A30638  21.931  18.758  18.613
 1559POPC   C3A30639  21.793  18.654  18.512
 1559POPC   C4A30640  21.655  18.550  18.412
 1559POPC   C1B30641  22.042  18.745  18.873
 1559POPC   C2B30642  21.904  18.641  18.772
 1559POPC   C3B30643  21.766  18.537  18.672
 1559POPC   C4B30644  21.627  18.433  18.572
 1560POPC   NC330645   4.820  16.226  -6.249
 1560POPC   PO430646   4.876  16.155  -6.071
 1560POPC   GL130647   4.932  16.084  -5.893
 1560POPC   GL230648   4.927  16.176  -5.854
 1560POPC   C1A30649   4.989  16.013  -5.715
 1560POPC   D2A30650   5.045  15.942  -5.536
 1560POPC   C3A30651   5.102  15.871  -5.358
 1560POPC   C4A30652   5.158  15.800  -5.180
 1560POPC   C1B30653   4.797  15.981  -5.667
 1560POPC   C2B30654   4.854  15.910  -5.488
 1560POPC   C3B30655   4.910  15.839  -5.310
 1560POPC   C4B30656   4.966  15.768  -5.132
 1561POPC   NC330657  25.948  13.856   2.668
 1561POPC   PO430658  25.771  13.814   2.752
 1561POPC   GL130659  25.594  13.772   2.836
 1561POPC   GL230660  25.552  13.845   2.783
 1561POPC   C1A30661  25.417  13.731   2.920
 1561POPC   D2A30662  25.241  13.689   3.004
 1561POPC   C3A30663  25.064  13.648   3.088
 1561POPC   C4A30664  24.887  13.606   3.172
 1561POPC   C1B30665  25.378  13.601   2.773
 1561POPC   C2B30666  25.202  13.559   2.857
 1561POPC   C3B30667  25.025  13.517   2.941
 1561POPC   C4B30668  24.848  13.476   3.025
 1562POPC   NC330669  14.334  17.006  25.902
 1562POPC   PO430670  14.289  16.928  25.723
 1562POPC   GL130671  14.244  16.850  25.544
 1562POPC   GL230672  14.304  16.772  25.563
 1562POPC   C1A30673  14.199  16.772  25.365
 1562POPC   D2A30674  14.155  16.695  25.187
 1562POPC   C3A30675  14.110  16.617  25.008
 1562POPC   C4A30676  14.065  16.539  24.829
 1562POPC   C1B30677  14.045  16.674  25.447
 1562POPC   C2B30678  14.001  16.596  25.268
 1562POPC   C3B30679  13.956  16.519  25.089
 1562POPC   C4B30680  13.911  16.441  24.910
 1563POPC   NC330681  16.385   2.219  -5.070
 1563POPC   PO430682  16.311   2.300  -4.903
 1563POPC   GL130683  16.237   2.381  -4.736
 1563POPC   GL230684  16.151   2.400  -4.783
 1563POPC   C1A30685  16.163   2.462  -4.569
 1563POPC   D2A30686  16.088   2.544  -4.401
 1563POPC   C3A30687  16.014   2.625  -4.234
 1563POPC   C4A30688  15.940   2.706  -4.067
 1563POPC   C1B30689  16.093   2.283  -4.513
 1563POPC   C2B30690  16.019   2.365  -4.345
 1563POPC   C3B30691  15.945   2.446  -4.178
 1563POPC   C4B30692  15.870   2.527  -4.011
 1564POPC   NC330693  -0.385  19.206  21.555
 1564POPC   PO430694  -0.271  19.107  21.423
 1564POPC   GL130695  -0.157  19.008  21.291
 1564POPC   GL230696  -0.075  19.042  21.337
 1564POPC   C1A30697  -0.044  18.909  21.160
 1564POPC   D2A30698   0.070  18.811  21.028
 1564POPC   C3A30699   0.183  18.712  20.897
 1564POPC   C4A30700   0.297  18.613  20.765
 1564POPC   C1B30701  -0.044  18.749  21.280
 1564POPC   C2B30702   0.069  18.650  21.148
 1564POPC   C3B30703   0.183  18.552  21.016
 1564POPC   C4B30704   0.297  18.453  20.885
 1565POPC   NC330705   7.824  12.714  27.596
 1565POPC   PO430706   7.855  12.687  27.400
 1565POPC   GL130707   7.886  12.660  27.204
 1565POPC   GL230708   7.950  12.586  27.225
 1565POPC   C1A30709   7.917  12.633  27.008
 1565POPC   D2A30710   7.948  12.606  26.813
 1565POPC   C3A30711   7.979  12.579  26.617
 1565POPC   C4A30712   8.010  12.552  26.421
 1565POPC   C1B30713   7.767  12.501  27.003
 1565POPC   C2B30714   7.798  12.474  26.807
 1565POPC   C3B30715   7.829  12.447  26.611
 1565POPC   C4B30716   7.860  12.420  26.415
 1566POPC   NC330717   7.957  -3.250  22.079
 1566POPC   PO430718   7.977  -3.103  21.945
 1566POPC   GL130719   7.997  -2.956  21.811
 1566POPC   GL230720   8.002  -3.024  21.737
 1566POPC   C1A30721   8.017  -2.809  21.676
 1566POPC   D2A30722   8.038  -2.663  21.542
 1566POPC   C3A30723   8.058  -2.516  21.407
 1566POPC   C4A30724   8.078  -2.369  21.273
 1566POPC   C1B30725   7.819  -2.801  21.656
 1566POPC   C2B30726   7.839  -2.654  21.521
 1566POPC   C3B30727   7.859  -2.507  21.387
 1566POPC   C4B30728   7.879  -2.360  21.252
 1567POPC   NC330729   5.864  13.905  27.024
 1567POPC   PO430730   5.908  13.869  26.832
 1567POPC   GL130731   5.952  13.833  26.640
 1567POPC   GL230732   6.023  13.769  26.669
 1567POPC   C1A30733   5.996  13.797  26.448
 1567POPC   D2A30734   6.039  13.761  26.257
 1567POPC   C3A30735   6.083  13.725  26.065
 1567POPC   C4A30736   6.127  13.689  25.873
 1567POPC   C1B30737   5.862  13.648  26.446
 1567POPC   C2B30738   5.906  13.612  26.254
 1567POPC   C3B30739   5.950  13.576  26.062
 1567POPC   C4B30740   5.994  13.540  25.871
 1568POPC   NC330741  11.035  -7.799  12.720
 1568POPC   PO430742  11.023  -7.601  12.691
 1568POPC   GL130743  11.011  -7.403  12.662
 1568POPC   GL230744  11.086  -7.408  12.597
 1568POPC   C1A30745  10.999  -7.206  12.633
 1568POPC   D2A30746  10.986  -7.008  12.604
 1568POPC   C3A30747  10.974  -6.811  12.575
 1568POPC   C4A30748  10.962  -6.613  12.546
 1568POPC   C1B30749  10.868  -7.236  12.484
 1568POPC   C2B30750  10.856  -7.038  12.455
 1568POPC   C3B30751  10.844  -6.841  12.426
 1568POPC   C4B30752  10.832  -6.643  12.397
 1569POPC   NC330753  23.877  19.218  16.590
 1569POPC   PO430754  23.724  19.111  16.518
 1569POPC   GL130755  23.571  19.004  16.446
 1569POPC   GL230756  23.550  19.077  16.382
 1569POPC   C1A30757  23.418  18.897  16.375
 1569POPC   D2A30758  23.265  18.790  16.303
 1569POPC   C3A30759  23.112  18.683  16.232
 1569POPC   C4A30760  22.959  18.576  16.160
 1569POPC   C1B30761  23.540  18.813  16.240
 1569POPC   C2B30762  23.387  18.706  16.169
 1569POPC   C3B30763  23.234  18.599  16.097
 1569POPC   C4B30764  23.081  18.492  16.025
 1570POPC   NC330765   4.481   2.180  25.332
 1570POPC   PO430766   4.534   2.263  25.158
 1570POPC   GL130767   4.587   2.346  24.984
 1570POPC   GL230768   4.611   2.255  24.948
 1570POPC   C1A30769   4.641   2.428  24.810
 1570POPC   D2A30770   4.694   2.511  24.635
 1570POPC   C3A30771   4.748   2.593  24.461
 1570POPC   C4A30772   4.801   2.676  24.287
 1570POPC   C1B30773   4.454   2.406  24.742
 1570POPC   C2B30774   4.507   2.488  24.567
 1570POPC   C3B30775   4.561   2.571  24.393
 1570POPC   C4B30776   4.614   2.653  24.219
 1571POPC   NC330777  24.781   1.424   4.372
 1571POPC   PO430778  24.616   1.520   4.431
 1571POPC   GL130779  24.451   1.616   4.490
 1571POPC   GL230780  24.505   1.699   4.508
 1571POPC   C1A30781  24.286   1.713   4.548
 1571POPC   D2A30782  24.120   1.809   4.607
 1571POPC   C3A30783  23.955   1.906   4.665
 1571POPC   C4A30784  23.790   2.002   4.724
 1571POPC   C1B30785  24.255   1.774   4.360
 1571POPC   C2B30786  24.090   1.871   4.419
 1571POPC   C3B30787  23.924   1.967   4.478
 1571POPC   C4B30788  23.759   2.063   4.536
 1572POPC   NC330789  25.337   0.750   9.192
 1572POPC   PO430790  25.165   0.851   9.203
 1572POPC   GL130791  24.993   0.952   9.214
 1572POPC   GL230792  25.040   1.036   9.188
 1572POPC   C1A30793  24.821   1.053   9.226
 1572POPC   D2A30794  24.648   1.155   9.237
 1572POPC   C3A30795  24.476   1.256   9.249
 1572POPC   C4A30796  24.304   1.357   9.260
 1572POPC   C1B30797  24.784   1.013   9.033
 1572POPC   C2B30798  24.612   1.115   9.045
 1572POPC   C3B30799  24.440   1.216   9.056
 1572POPC   C4B30800  24.268   1.317   9.067
 1573POPC   NC330801   2.331  -6.121  13.048
 1573POPC   PO430802   2.415  -5.942  13.016
 1573POPC   GL130803   2.499  -5.763  12.984
 1573POPC   GL230804   2.533  -5.795  12.895
 1573POPC   C1A30805   2.583  -5.585  12.951
 1573POPC   D2A30806   2.667  -5.406  12.919
 1573POPC   C3A30807   2.751  -5.228  12.886
 1573POPC   C4A30808   2.835  -5.049  12.854
 1573POPC   C1B30809   2.415  -5.522  12.864
 1573POPC   C2B30810   2.499  -5.343  12.831
 1573POPC   C3B30811   2.583  -5.164  12.799
 1573POPC   C4B30812   2.667  -4.986  12.766
 1574POPC   NC330813  17.902  -4.845  16.403
 1574POPC   PO430814  17.815  -4.679  16.334
 1574POPC   GL130815  17.728  -4.513  16.265
 1574POPC   GL230816  17.734  -4.548  16.172
 1574POPC   C1A30817  17.641  -4.346  16.197
 1574POPC   D2A30818  17.554  -4.180  16.128
 1574POPC   C3A30819  17.467  -4.013  16.060
 1574POPC   C4A30820  17.380  -3.847  15.991
 1574POPC   C1B30821  17.461  -4.432  16.217
 1574POPC   C2B30822  17.374  -4.265  16.148
 1574POPC   C3B30823  17.287  -4.099  16.080
 1574POPC   C4B30824  17.200  -3.933  16.011
 1575POPC   NC330825  -6.031  10.931   1.398
 1575POPC   PO430826  -5.853  10.923   1.490
 1575POPC   GL130827  -5.675  10.915   1.582
 1575POPC   GL230828  -5.695  10.821   1.611
 1575POPC   C1A30829  -5.498  10.907   1.673
 1575POPC   D2A30830  -5.320  10.898   1.765
 1575POPC   C3A30831  -5.143  10.890   1.856
 1575POPC   C4A30832  -4.965  10.882   1.948
 1575POPC   C1B30833  -5.415  10.836   1.505
 1575POPC   C2B30834  -5.237  10.828   1.597
 1575POPC   C3B30835  -5.059  10.820   1.689
 1575POPC   C4B30836  -4.882  10.812   1.780
 1576POPC   NC330837   4.072  24.039   0.244
 1576POPC   PO430838   4.134  23.883   0.353
 1576POPC   GL130839   4.196  23.727   0.462
 1576POPC   GL230840   4.225  23.789   0.534
 1576POPC   C1A30841   4.259  23.571   0.570
 1576POPC   D2A30842   4.321  23.416   0.679
 1576POPC   C3A30843   4.384  23.260   0.787
 1576POPC   C4A30844   4.446  23.104   0.896
 1576POPC   C1B30845   4.078  23.557   0.653
 1576POPC   C2B30846   4.140  23.401   0.762
 1576POPC   C3B30847   4.202  23.245   0.871
 1576POPC   C4B30848   4.265  23.089   0.979
 1577POPC   NC330849  -0.441   5.355  23.936
 1577POPC   PO430850  -0.326   5.412  23.783
 1577POPC   GL130851  -0.211   5.469  23.630
 1577POPC   GL230852  -0.130   5.437  23.678
 1577POPC   C1A30853  -0.096   5.527  23.477
 1577POPC   D2A30854   0.020   5.584  23.323
 1577POPC   C3A30855   0.135   5.642  23.170
 1577POPC   C4A30856   0.250   5.699  23.017
 1577POPC   C1B30857  -0.118   5.347  23.393
 1577POPC   C2B30858  -0.002   5.404  23.239
 1577POPC   C3B30859   0.113   5.461  23.086
 1577POPC   C4B30860   0.228   5.519  22.933
 1578POPC   NC330861   7.723  22.894  -2.442
 1578POPC   PO430862   7.747  22.749  -2.306
 1578POPC   GL130863   7.771  22.604  -2.170
 1578POPC   GL230864   7.819  22.669  -2.110
 1578POPC   C1A30865   7.795  22.460  -2.034
 1578POPC   D2A30866   7.820  22.315  -1.898
 1578POPC   C3A30867   7.844  22.171  -1.762
 1578POPC   C4A30868   7.868  22.026  -1.626
 1578POPC   C1B30869   7.621  22.510  -1.949
 1578POPC   C2B30870   7.646  22.366  -1.813
 1578POPC   C3B30871   7.670  22.221  -1.677
 1578POPC   C4B30872   7.694  22.076  -1.541
 1579POPC   NC330873  10.684  -8.030   9.551
 1579POPC   PO430874  10.678  -7.830   9.553
 1579POPC   GL130875  10.672  -7.630   9.555
 1579POPC   GL230876  10.755  -7.627   9.498
 1579POPC   C1A30877  10.667  -7.430   9.557
 1579POPC   D2A30878  10.661  -7.230   9.559
 1579POPC   C3A30879  10.656  -7.030   9.561
 1579POPC   C4A30880  10.650  -6.830   9.563
 1579POPC   C1B30881  10.553  -7.432   9.393
 1579POPC   C2B30882  10.547  -7.232   9.395
 1579POPC   C3B30883  10.542  -7.032   9.397
 1579POPC   C4B30884  10.536  -6.832   9.399
 1580POPC   NC330885  24.290  18.143   2.725
 1580POPC   PO430886  24.130  18.051   2.802
 1580POPC   GL130887  23.970  17.959   2.879
 1580POPC   GL230888  23.910  18.020   2.828
 1580POPC   C1A30889  23.810  17.867   2.956
 1580POPC   D2A30890  23.651  17.774   3.033
 1580POPC   C3A30891  23.491  17.682   3.110
 1580POPC   C4A30892  23.331  17.590   3.187
 1580POPC   C1B30893  23.810  17.738   2.802
 1580POPC   C2B30894  23.650  17.646   2.879
 1580POPC   C3B30895  23.491  17.554   2.956
 1580POPC   C4B30896  23.331  17.462   3.033
 1581POPC   NC330897  18.444  16.208  -4.680
 1581POPC   PO430898  18.346  16.138  -4.520
 1581POPC   GL130899  18.248  16.068  -4.360
 1581POPC   GL230900  18.224  15.985  -4.411
 1581POPC   C1A30901  18.149  15.998  -4.201
 1581POPC   D2A30902  18.051  15.929  -4.041
 1581POPC   C3A30903  17.952  15.859  -3.882
 1581POPC   C4A30904  17.854  15.789  -3.722
 1581POPC   C1B30905  18.317  15.911  -4.135
 1581POPC   C2B30906  18.219  15.842  -3.976
 1581POPC   C3B30907  18.120  15.772  -3.816
 1581POPC   C4B30908  18.022  15.702  -3.657
 1582POPC   NC330909  16.110   0.003  -3.804
 1582POPC   PO430910  16.043   0.119  -3.655
 1582POPC   GL130911  15.976   0.235  -3.506
 1582POPC   GL230912  15.960   0.309  -3.571
 1582POPC   C1A30913  15.909   0.350  -3.357
 1582POPC   D2A30914  15.842   0.466  -3.209
 1582POPC   C3A30915  15.775   0.581  -3.060
 1582POPC   C4A30916  15.708   0.697  -2.911
 1582POPC   C1B30917  15.723   0.283  -3.389
 1582POPC   C2B30918  15.656   0.398  -3.240
 1582POPC   C3B30919  15.589   0.514  -3.091
 1582POPC   C4B30920  15.522   0.630  -2.942
 1583POPC   NC330921  10.201  -5.817   1.203
 1583POPC   PO430922  10.199  -5.642   1.300
 1583POPC   GL130923  10.197  -5.467   1.397
 1583POPC   GL230924  10.240  -5.511   1.476
 1583POPC   C1A30925  10.195  -5.292   1.494
 1583POPC   D2A30926  10.193  -5.118   1.592
 1583POPC   C3A30927  10.191  -4.943   1.689
 1583POPC   C4A30928  10.189  -4.768   1.786
 1583POPC   C1B30929  10.376  -5.249   1.420
 1583POPC   C2B30930  10.374  -5.074   1.518
 1583POPC   C3B30931  10.372  -4.899   1.615
 1583POPC   C4B30932  10.370  -4.725   1.712
 1584POPC   NC330933  26.352  16.794   7.558
 1584POPC   PO430934  26.170  16.715   7.583
 1584POPC   GL130935  25.988  16.636   7.608
 1584POPC   GL230936  26.024  16.546   7.586
 1584POPC   C1A30937  25.806  16.557   7.634
 1584POPC   D2A30938  25.624  16.479   7.659
 1584POPC   C3A30939  25.442  16.400   7.685
 1584POPC   C4A30940  25.260  16.321   7.710
 1584POPC   C1B30941  25.847  16.526   7.827
 1584POPC   C2B30942  25.665  16.447   7.852
 1584POPC   C3B30943  25.483  16.368   7.878
 1584POPC   C4B30944  25.301  16.289   7.903
 1585POPC   NC330945  11.848  -7.919  11.074
 1585POPC   PO430946  11.831  -7.720  11.060
 1585POPC   GL130947  11.814  -7.521  11.046
 1585POPC   GL230948  11.858  -7.524  10.956
 1585POPC   C1A30949  11.798  -7.322  11.032
 1585POPC   D2A30950  11.781  -7.124  11.018
 1585POPC   C3A30951  11.765  -6.925  11.004
 1585POPC   C4A30952  11.748  -6.726  10.990
 1585POPC   C1B30953  11.619  -7.343  10.946
 1585POPC   C2B30954  11.602  -7.145  10.932
 1585POPC   C3B30955  11.585  -6.946  10.918
 1585POPC   C4B30956  11.569  -6.747  10.904
 1586POPC   NC330957  13.408  -4.333  -0.476
 1586POPC   PO430958  13.367  -4.176  -0.360
 1586POPC   GL130959  13.326  -4.019  -0.244
 1586POPC   GL230960  13.387  -4.055  -0.173
 1586POPC   C1A30961  13.284  -3.862  -0.127
 1586POPC   D2A30962  13.243  -3.704  -0.011
 1586POPC   C3A30963  13.201  -3.547   0.106
 1586POPC   C4A30964  13.160  -3.390   0.222
 1586POPC   C1B30965  13.436  -3.761  -0.209
 1586POPC   C2B30966  13.395  -3.604  -0.092
 1586POPC   C3B30967  13.354  -3.447   0.024
 1586POPC   C4B30968  13.312  -3.289   0.140
 1587POPC   NC330969  23.832   4.241   0.013
 1587POPC   PO430970  23.681   4.308   0.125
 1587POPC   GL130971  23.530   4.375   0.237
 1587POPC   GL230972  23.496   4.429   0.160
 1587POPC   C1A30973  23.378   4.442   0.349
 1587POPC   D2A30974  23.227   4.509   0.462
 1587POPC   C3A30975  23.075   4.576   0.574
 1587POPC   C4A30976  22.924   4.643   0.686
 1587POPC   C1B30977  23.266   4.287   0.290
 1587POPC   C2B30978  23.115   4.354   0.402
 1587POPC   C3B30979  22.963   4.421   0.515
 1587POPC   C4B30980  22.812   4.488   0.627
 1588POPC   NC330981  26.936  11.300  15.619
 1588POPC   PO430982  26.746  11.280  15.559
 1588POPC   GL130983  26.556  11.260  15.499
 1588POPC   GL230984  26.566  11.160  15.502
 1588POPC   C1A30985  26.366  11.240  15.440
 1588POPC   D2A30986  26.177  11.219  15.380
 1588POPC   C3A30987  25.987  11.199  15.321
 1588POPC   C4A30988  25.797  11.179  15.261
 1588POPC   C1B30989  26.307  11.239  15.631
 1588POPC   C2B30990  26.117  11.218  15.571
 1588POPC   C3B30991  25.927  11.198  15.511
 1588POPC   C4B30992  25.737  11.178  15.452
 1589POPC   NC330993  12.076   3.655  -6.816
 1589POPC   PO430994  12.054   3.724  -6.629
 1589POPC   GL130995  12.032   3.793  -6.442
 1589POPC   GL230996  12.106   3.858  -6.458
 1589POPC   C1A30997  12.010   3.861  -6.256
 1589POPC   D2A30998  11.989   3.930  -6.069
 1589POPC   C3A30999  11.967   3.998  -5.883
 1589POPC   C4A31000  11.945   4.067  -5.696
 1589POPC   C1B31001  11.878   3.996  -6.321
 1589POPC   C2B31002  11.856   4.065  -6.134
 1589POPC   C3B31003  11.835   4.134  -5.948
 1589POPC   C4B31004  11.813   4.202  -5.761
 1590POPC   NC331005  12.819   9.243  -7.912
 1590POPC   PO431006  12.788   9.252  -7.715
 1590POPC   GL131007  12.757   9.261  -7.518
 1590POPC   GL231008  12.709   9.348  -7.529
 1590POPC   C1A31009  12.726   9.270  -7.320
 1590POPC   D2A31010  12.696   9.280  -7.123
 1590POPC   C3A31011  12.665   9.289  -6.925
 1590POPC   C4A31012  12.634   9.298  -6.728
 1590POPC   C1B31013  12.553   9.172  -7.343
 1590POPC   C2B31014  12.523   9.182  -7.145
 1590POPC   C3B31015  12.492   9.191  -6.948
 1590POPC   C4B31016  12.461   9.200  -6.751
 1591POPC   NC331017  20.449  20.422  -0.242
 1591POPC   PO431018  20.331  20.301  -0.135
 1591POPC   GL131019  20.213  20.180  -0.028
 1591POPC   GL231020  20.294  20.128   0.002
 1591POPC   C1A31021  20.096  20.059   0.080
 1591POPC   D2A31022  19.978  19.939   0.187
 1591POPC   C3A31023  19.861  19.818   0.295
 1591POPC   C4A31024  19.743  19.697   0.402
 1591POPC   C1B31025  20.117  20.180   0.238
 1591POPC   C2B31026  19.999  20.059   0.346
 1591POPC   C3B31027  19.881  19.938   0.453
 1591POPC   C4B31028  19.764  19.817   0.560
 1592POPC   NC331029  26.168  17.311   7.873
 1592POPC   PO431030  25.987  17.230   7.897
 1592POPC   GL131031  25.806  17.149   7.921
 1592POPC   GL231032  25.825  17.084   7.847
 1592POPC   C1A31033  25.625  17.068   7.945
 1592POPC   D2A31034  25.443  16.986   7.968
 1592POPC   C3A31035  25.262  16.905   7.992
 1592POPC   C4A31036  25.081  16.824   8.016
 1592POPC   C1B31037  25.700  16.938   8.077
 1592POPC   C2B31038  25.519  16.857   8.101
 1592POPC   C3B31039  25.337  16.776   8.125
 1592POPC   C4B31040  25.156  16.695   8.149
 1593POPC   NC331041   4.057  26.220  15.279
 1593POPC   PO431042   4.121  26.040  15.219
 1593POPC   GL131043   4.185  25.860  15.159
 1593POPC   GL231044   4.224  25.901  15.077
 1593POPC   C1A31045   4.248  25.680  15.100
 1593POPC   D2A31046   4.312  25.500  15.040
 1593POPC   C3A31047   4.375  25.320  14.981
 1593POPC   C4A31048   4.439  25.140  14.921
 1593POPC   C1B31049   4.421  25.709  15.196
 1593POPC   C2B31050   4.485  25.529  15.137
 1593POPC   C3B31051   4.548  25.349  15.077
 1593POPC   C4B31052   4.612  25.169  15.017
 1594POPC   NC331053  10.146  11.108  -8.100
 1594POPC   PO431054  10.147  11.097  -7.900
 1594POPC   GL131055  10.148  11.086  -7.700
 1594POPC   GL231056  10.248  11.090  -7.701
 1594POPC   C1A31057  10.149  11.075  -7.501
 1594POPC   D2A31058  10.151  11.063  -7.301
 1594POPC   C3A31059  10.152  11.052  -7.102
 1594POPC   C4A31060  10.153  11.041  -6.902
 1594POPC   C1B31061  10.140  11.274  -7.490
 1594POPC   C2B31062  10.141  11.263  -7.290
 1594POPC   C3B31063  10.142  11.252  -7.090
 1594POPC   C4B31064  10.144  11.240  -6.891
 1595POPC   NC331065  -0.694  14.525  23.771
 1595POPC   PO431066  -0.577  14.474  23.617
 1595POPC   GL131067  -0.460  14.423  23.463
 1595POPC   GL231068  -0.380  14.428  23.523
 1595POPC   C1A31069  -0.343  14.372  23.309
 1595POPC   D2A31070  -0.226  14.320  23.156
 1595POPC   C3A31071  -0.109  14.269  23.002
 1595POPC   C4A31072   0.008  14.218  22.848
 1595POPC   C1B31073  -0.365  14.179  23.357
 1595POPC   C2B31074  -0.248  14.127  23.203
 1595POPC   C3B31075  -0.131  14.076  23.049
 1595POPC   C4B31076  -0.014  14.025  22.895
 1596POPC   NC331077  -5.595  19.387   9.075
 1596POPC   PO431078  -5.424  19.284   9.083
 1596POPC   GL131079  -5.253  19.181   9.091
 1596POPC   GL231080  -5.276  19.150   9.183
 1596POPC   C1A31081  -5.082  19.078   9.099
 1596POPC   D2A31082  -4.911  18.974   9.107
 1596POPC   C3A31083  -4.740  18.871   9.115
 1596POPC   C4A31084  -4.569  18.768   9.123
 1596POPC   C1B31085  -5.175  18.918   9.023
 1596POPC   C2B31086  -5.004  18.815   9.031
 1596POPC   C3B31087  -4.833  18.711   9.039
 1596POPC   C4B31088  -4.662  18.608   9.047
 1597POPC   NC331089   1.350  24.959  15.217
 1597POPC   PO431090   1.445  24.793  15.157
 1597POPC   GL131091   1.540  24.627  15.097
 1597POPC   GL231092   1.621  24.655  15.148
 1597POPC   C1A31093   1.635  24.461  15.038
 1597POPC   D2A31094   1.729  24.296  14.978
 1597POPC   C3A31095   1.824  24.130  14.919
 1597POPC   C4A31096   1.919  23.964  14.859
 1597POPC   C1B31097   1.567  24.365  15.199
 1597POPC   C2B31098   1.661  24.199  15.139
 1597POPC   C3B31099   1.756  24.033  15.080
 1597POPC   C4B31100   1.851  23.867  15.020
 1598POPC   NC331101  22.808  20.424   2.941
 1598POPC   PO431102  22.666  20.306   3.018
 1598POPC   GL131103  22.524  20.188   3.095
 1598POPC   GL231104  22.561  20.110   3.043
 1598POPC   C1A31105  22.382  20.070   3.172
 1598POPC   D2A31106  22.240  19.952   3.248
 1598POPC   C3A31107  22.098  19.834   3.325
 1598POPC   C4A31108  21.956  19.716   3.402
 1598POPC   C1B31109  22.502  20.025   3.325
 1598POPC   C2B31110  22.360  19.907   3.402
 1598POPC   C3B31111  22.218  19.789   3.478
 1598POPC   C4B31112  22.076  19.671   3.555
 1599POPC   NC331113  23.090  14.135  21.434
 1599POPC   PO431114  22.949  14.087  21.300
 1599POPC   GL131115  22.808  14.039  21.166
 1599POPC   GL231116  22.839  14.114  21.107
 1599POPC   C1A31117  22.668  13.991  21.032
 1599POPC   D2A31118  22.527  13.943  20.898
 1599POPC   C3A31119  22.387  13.895  20.764
 1599POPC   C4A31120  22.246  13.847  20.630
 1599POPC   C1B31121  22.796  13.867  20.942
 1599POPC   C2B31122  22.656  13.819  20.808
 1599POPC   C3B31123  22.515  13.771  20.674
 1599POPC   C4B31124  22.374  13.723  20.540
 1600POPC   NC331125   8.597  10.031  27.931
 1600POPC   PO431126   8.617  10.029  27.732
 1600POPC   GL131127   8.637  10.027  27.533
 1600POPC   GL231128   8.720  10.082  27.541
 1600POPC   C1A31129   8.657  10.024  27.334
 1600POPC   D2A31130   8.678  10.022  27.135
 1600POPC   C3A31131   8.698  10.019  26.936
 1600POPC   C4A31132   8.718  10.017  26.737
 1600POPC   C1B31133   8.768   9.858  27.347
 1600POPC   C2B31134   8.788   9.856  27.148
 1600POPC   C3B31135   8.808   9.853  26.949
 1600POPC   C4B31136   8.828   9.851  26.750
 1601POPC   NC331137  -4.340  18.102   2.363
 1601POPC   PO431138  -4.179  18.016   2.446
 1601POPC   GL131139  -4.018  17.930   2.529
 1601POPC   GL231140  -3.998  18.015   2.577
 1601POPC   C1A31141  -3.857  17.845   2.611
 1601POPC   D2A31142  -3.697  17.759   2.694
 1601POPC   C3A31143  -3.536  17.674   2.776
 1601POPC   C4A31144  -3.375  17.588   2.859
 1601POPC   C1B31145  -3.969  17.784   2.765
 1601POPC   C2B31146  -3.808  17.698   2.848
 1601POPC   C3B31147  -3.648  17.613   2.931
 1601POPC   C4B31148  -3.487  17.527   3.013
 1602POPC   NC331149  23.104   6.585  -1.901
 1602POPC   PO431150  22.957   6.623  -1.770
 1602POPC   GL131151  22.810   6.661  -1.639
 1602POPC   GL231152  22.762   6.715  -1.708
 1602POPC   C1A31153  22.664   6.698  -1.508
 1602POPC   D2A31154  22.517   6.736  -1.378
 1602POPC   C3A31155  22.371   6.773  -1.247
 1602POPC   C4A31156  22.224   6.811  -1.116
 1602POPC   C1B31157  22.567   6.534  -1.569
 1602POPC   C2B31158  22.421   6.572  -1.439
 1602POPC   C3B31159  22.274   6.609  -1.308
 1602POPC   C4B31160  22.127   6.647  -1.177
 1603POPC   NC331161  26.737  14.701   5.444
 1603POPC   PO431162  26.551  14.646   5.492
 1603POPC   GL131163  26.365  14.591   5.540
 1603POPC   GL231164  26.329  14.648   5.465
 1603POPC   C1A31165  26.178  14.537   5.587
 1603POPC   D2A31166  25.992  14.482   5.635
 1603POPC   C3A31167  25.805  14.428   5.682
 1603POPC   C4A31168  25.619  14.373   5.730
 1603POPC   C1B31169  26.192  14.380   5.463
 1603POPC   C2B31170  26.006  14.326   5.511
 1603POPC   C3B31171  25.819  14.271   5.558
 1603POPC   C4B31172  25.633  14.217   5.606
 1604POPC   NC331173   8.849   2.686  -6.519
 1604POPC   PO431174   8.857   2.764  -6.335
 1604POPC   GL131175   8.865   2.842  -6.151
 1604POPC   GL231176   8.964   2.828  -6.149
 1604POPC   C1A31177   8.873   2.919  -5.967
 1604POPC   D2A31178   8.882   2.997  -5.782
 1604POPC   C3A31179   8.890   3.074  -5.598
 1604POPC   C4A31180   8.898   3.152  -5.414
 1604POPC   C1B31181   8.899   3.102  -6.045
 1604POPC   C2B31182   8.908   3.179  -5.860
 1604POPC   C3B31183   8.916   3.257  -5.676
 1604POPC   C4B31184   8.924   3.334  -5.492
 1605POPC   NC331185   9.080  -3.013  22.426
 1605POPC   PO431186   9.084  -2.868  22.288
 1605POPC   GL131187   9.088  -2.723  22.150
 1605POPC   GL231188   9.089  -2.654  22.223
 1605POPC   C1A31189   9.092  -2.578  22.012
 1605POPC   D2A31190   9.095  -2.434  21.875
 1605POPC   C3A31191   9.099  -2.289  21.737
 1605POPC   C4A31192   9.103  -2.144  21.599
 1605POPC   C1B31193   9.292  -2.583  22.014
 1605POPC   C2B31194   9.295  -2.438  21.876
 1605POPC   C3B31195   9.299  -2.293  21.738
 1605POPC   C4B31196   9.303  -2.148  21.600
 1606POPC   NC331197   2.180  18.104  -4.259
 1606POPC   PO431198   2.266  18.019  -4.099
 1606POPC   GL131199   2.352  17.934  -3.939
 1606POPC   GL231200   2.369  18.025  -3.900
 1606POPC   C1A31201   2.438  17.849  -3.780
 1606POPC   D2A31202   2.523  17.765  -3.620
 1606POPC   C3A31203   2.609  17.680  -3.461
 1606POPC   C4A31204   2.695  17.595  -3.301
 1606POPC   C1B31205   2.260  17.843  -3.688
 1606POPC   C2B31206   2.346  17.758  -3.528
 1606POPC   C3B31207   2.432  17.673  -3.369
 1606POPC   C4B31208   2.517  17.588  -3.209
 1607POPC   NC331209  -4.752  16.427  18.449
 1607POPC   PO431210  -4.590  16.355  18.357
 1607POPC   GL131211  -4.428  16.283  18.265
 1607POPC   GL231212  -4.409  16.224  18.343
 1607POPC   C1A31213  -4.266  16.211  18.173
 1607POPC   D2A31214  -4.103  16.139  18.080
 1607POPC   C3A31215  -3.941  16.067  17.988
 1607POPC   C4A31216  -3.779  15.995  17.896
 1607POPC   C1B31217  -4.377  16.066  18.090
 1607POPC   C2B31218  -4.214  15.994  17.998
 1607POPC   C3B31219  -4.052  15.922  17.906
 1607POPC   C4B31220  -3.890  15.850  17.814
 1608POPC   NC331221  15.782   9.650  -7.111
 1608POPC   PO431222  15.712   9.657  -6.924
 1608POPC   GL131223  15.642   9.664  -6.737
 1608POPC   GL231224  15.549   9.649  -6.771
 1608POPC   C1A31225  15.572   9.670  -6.550
 1608POPC   D2A31226  15.501   9.677  -6.362
 1608POPC   C3A31227  15.431   9.683  -6.175
 1608POPC   C4A31228  15.361   9.690  -5.988
 1608POPC   C1B31229  15.596   9.472  -6.533
 1608POPC   C2B31230  15.526   9.479  -6.346
 1608POPC   C3B31231  15.456   9.486  -6.159
 1608POPC   C4B31232  15.386   9.492  -5.972
 1609POPC   NC331233  27.748   8.768  11.460
 1609POPC   PO431234  27.549   8.779  11.447
 1609POPC   GL131235  27.350   8.790  11.434
 1609POPC   GL231236  27.358   8.854  11.357
 1609POPC   C1A31237  27.151   8.801  11.420
 1609POPC   D2A31238  26.951   8.812  11.407
 1609POPC   C3A31239  26.752   8.823  11.393
 1609POPC   C4A31240  26.553   8.834  11.380
 1609POPC   C1B31241  27.151   8.648  11.292
 1609POPC   C2B31242  26.952   8.659  11.278
 1609POPC   C3B31243  26.752   8.670  11.265
 1609POPC   C4B31244  26.553   8.681  11.252
 1610POPC   NC331245  10.979  14.668  -7.452
 1610POPC   PO431246  10.965  14.615  -7.260
 1610POPC   GL131247  10.951  14.562  -7.068
 1610POPC   GL231248  10.952  14.465  -7.094
 1610POPC   C1A31249  10.937  14.508  -6.876
 1610POPC   D2A31250  10.923  14.455  -6.683
 1610POPC   C3A31251  10.909  14.401  -6.491
 1610POPC   C4A31252  10.895  14.348  -6.299
 1610POPC   C1B31253  11.136  14.507  -6.861
 1610POPC   C2B31254  11.122  14.454  -6.669
 1610POPC   C3B31255  11.108  14.400  -6.477
 1610POPC   C4B31256  11.094  14.347  -6.285
 1611POPC   NC331257  -7.634   7.907   5.962
 1611POPC   PO431258  -7.440   7.923   6.010
 1611POPC   GL131259  -7.246   7.939   6.058
 1611POPC   GL231260  -7.271   7.987   6.142
 1611POPC   C1A31261  -7.053   7.955   6.105
 1611POPC   D2A31262  -6.859   7.970   6.153
 1611POPC   C3A31263  -6.666   7.986   6.200
 1611POPC   C4A31264  -6.472   8.002   6.248
 1611POPC   C1B31265  -7.062   7.780   6.201
 1611POPC   C2B31266  -6.868   7.795   6.249
 1611POPC   C3B31267  -6.675   7.811   6.297
 1611POPC   C4B31268  -6.481   7.827   6.344
 1612POPC   NC331269  19.443   9.865  -5.336
 1612POPC   PO431270  19.339   9.865  -5.165
 1612POPC   GL131271  19.235   9.865  -4.994
 1612POPC   GL231272  19.150   9.865  -5.046
 1612POPC   C1A31273  19.131   9.865  -4.823
 1612POPC   D2A31274  19.027   9.866  -4.653
 1612POPC   C3A31275  18.923   9.866  -4.482
 1612POPC   C4A31276  18.819   9.866  -4.311
 1612POPC   C1B31277  19.132   9.665  -4.823
 1612POPC   C2B31278  19.028   9.666  -4.652
 1612POPC   C3B31279  18.924   9.666  -4.481
 1612POPC   C4B31280  18.820   9.666  -4.310
 1613POPC   NC331281   4.515   6.265  -6.934
 1613POPC   PO431282   4.573   6.304  -6.747
 1613POPC   GL131283   4.631   6.343  -6.560
 1613POPC   GL231284   4.663   6.249  -6.550
 1613POPC   C1A31285   4.688   6.382  -6.372
 1613POPC   D2A31286   4.746   6.422  -6.185
 1613POPC   C3A31287   4.803   6.461  -5.997
 1613POPC   C4A31288   4.861   6.500  -5.810
 1613POPC   C1B31289   4.868   6.438  -6.439
 1613POPC   C2B31290   4.926   6.477  -6.252
 1613POPC   C3B31291   4.983   6.517  -6.064
 1613POPC   C4B31292   5.041   6.556  -5.877
 1614POPC   NC331293  21.999  -3.122   7.250
 1614POPC   PO431294  21.864  -2.977   7.280
 1614POPC   GL131295  21.729  -2.832   7.310
 1614POPC   GL231296  21.742  -2.801   7.216
 1614POPC   C1A31297  21.595  -2.688   7.341
 1614POPC   D2A31298  21.460  -2.543   7.371
 1614POPC   C3A31299  21.326  -2.399   7.402
 1614POPC   C4A31300  21.191  -2.254   7.432
 1614POPC   C1B31301  21.449  -2.811   7.281
 1614POPC   C2B31302  21.314  -2.666   7.312
 1614POPC   C3B31303  21.180  -2.522   7.342
 1614POPC   C4B31304  21.045  -2.377   7.373
 1615POPC   NC331305  -2.586  -1.198  16.763
 1615POPC   PO431306  -2.446  -1.076  16.688
 1615POPC   GL131307  -2.306  -0.954  16.613
 1615POPC   GL231308  -2.271  -1.029  16.557
 1615POPC   C1A31309  -2.166  -0.833  16.538
 1615POPC   D2A31310  -2.027  -0.711  16.462
 1615POPC   C3A31311  -1.887  -0.590  16.387
 1615POPC   C4A31312  -1.747  -0.468  16.312
 1615POPC   C1B31313  -2.291  -0.782  16.390
 1615POPC   C2B31314  -2.151  -0.660  16.314
 1615POPC   C3B31315  -2.011  -0.538  16.239
 1615POPC   C4B31316  -1.871  -0.417  16.164
 1616POPC   NC331317   6.315  -5.155  19.134
 1616POPC   PO431318   6.353  -4.987  19.032
 1616POPC   GL131319   6.391  -4.819  18.930
 1616POPC   GL231320   6.451  -4.870  18.868
 1616POPC   C1A31321   6.428  -4.651  18.828
 1616POPC   D2A31322   6.466  -4.484  18.725
 1616POPC   C3A31323   6.503  -4.316  18.623
 1616POPC   C4A31324   6.541  -4.148  18.521
 1616POPC   C1B31325   6.273  -4.690  18.708
 1616POPC   C2B31326   6.310  -4.522  18.606
 1616POPC   C3B31327   6.348  -4.354  18.503
 1616POPC   C4B31328   6.385  -4.186  18.401
 1617POPC   NC331329  -1.168  -3.044   3.904
 1617POPC   PO431330  -1.045  -2.899   3.968
 1617POPC   GL131331  -0.922  -2.754   4.032
 1617POPC   GL231332  -0.869  -2.822   4.082
 1617POPC   C1A31333  -0.800  -2.610   4.095
 1617POPC   D2A31334  -0.677  -2.465   4.159
 1617POPC   C3A31335  -0.555  -2.321   4.222
 1617POPC   C4A31336  -0.432  -2.176   4.286
 1617POPC   C1B31337  -0.684  -2.638   3.935
 1617POPC   C2B31338  -0.561  -2.493   3.998
 1617POPC   C3B31339  -0.439  -2.348   4.062
 1617POPC   C4B31340  -0.316  -2.204   4.126
 1618POPC   NC331341  -4.374   7.794  -0.901
 1618POPC   PO431342  -4.219   7.816  -0.777
 1618POPC   GL131343  -4.064   7.838  -0.653
 1618POPC   GL231344  -4.115   7.906  -0.600
 1618POPC   C1A31345  -3.909   7.860  -0.529
 1618POPC   D2A31346  -3.753   7.883  -0.404
 1618POPC   C3A31347  -3.598   7.905  -0.280
 1618POPC   C4A31348  -3.443   7.927  -0.156
 1618POPC   C1B31349  -3.981   7.715  -0.412
 1618POPC   C2B31350  -3.826   7.737  -0.288
 1618POPC   C3B31351  -3.671   7.760  -0.163
 1618POPC   C4B31352  -3.516   7.782  -0.039
 1619POPC   NC331353  12.690  17.940  25.833
 1619POPC   PO431354  12.656  17.857  25.654
 1619POPC   GL131355  12.622  17.774  25.475
 1619POPC   GL231356  12.708  17.723  25.483
 1619POPC   C1A31357  12.588  17.691  25.297
 1619POPC   D2A31358  12.554  17.607  25.118
 1619POPC   C3A31359  12.520  17.524  24.940
 1619POPC   C4A31360  12.486  17.441  24.761
 1619POPC   C1B31361  12.491  17.540  25.386
 1619POPC   C2B31362  12.457  17.457  25.207
 1619POPC   C3B31363  12.423  17.373  25.028
 1619POPC   C4B31364  12.389  17.290  24.850
 1620POPC   NC331365  16.926  16.737  -5.260
 1620POPC   PO431366  16.849  16.660  -5.092
 1620POPC   GL131367  16.772  16.583  -4.924
 1620POPC   GL231368  16.778  16.491  -4.964
 1620POPC   C1A31369  16.695  16.506  -4.757
 1620POPC   D2A31370  16.617  16.428  -4.589
 1620POPC   C3A31371  16.540  16.351  -4.422
 1620POPC   C4A31372  16.463  16.274  -4.254
 1620POPC   C1B31373  16.879  16.486  -4.681
 1620POPC   C2B31374  16.801  16.409  -4.513
 1620POPC   C3B31375  16.724  16.332  -4.346
 1620POPC   C4B31376  16.647  16.254  -4.178
 1621POPC   NC331377  16.855  21.915  21.592
 1621POPC   PO431378  16.780  21.781  21.464
 1621POPC   GL131379  16.705  21.647  21.336
 1621POPC   GL231380  16.797  21.622  21.308
 1621POPC   C1A31381  16.629  21.513  21.208
 1621POPC   D2A31382  16.554  21.380  21.080
 1621POPC   C3A31383  16.478  21.246  20.952
 1621POPC   C4A31384  16.403  21.112  20.824
 1621POPC   C1B31385  16.634  21.374  21.351
 1621POPC   C2B31386  16.559  21.240  21.223
 1621POPC   C3B31387  16.483  21.106  21.095
 1621POPC   C4B31388  16.408  20.972  20.967
 1622POPC   NC331389  23.616   1.399  17.995
 1622POPC   PO431390  23.463   1.491  17.906
 1622POPC   GL131391  23.310   1.583  17.817
 1622POPC   GL231392  23.374   1.645  17.770
 1622POPC   C1A31393  23.156   1.676  17.728
 1622POPC   D2A31394  23.003   1.768  17.638
 1622POPC   C3A31395  22.849   1.861  17.549
 1622POPC   C4A31396  22.696   1.953  17.460
 1622POPC   C1B31397  23.168   1.547  17.575
 1622POPC   C2B31398  23.014   1.640  17.485
 1622POPC   C3B31399  22.861   1.732  17.396
 1622POPC   C4B31400  22.708   1.825  17.307
 1623POPC   NC331401  23.360  -1.817   7.840
 1623POPC   PO431402  23.210  -1.687   7.864
 1623POPC   GL131403  23.060  -1.557   7.888
 1623POPC   GL231404  23.031  -1.574   7.794
 1623POPC   C1A31405  22.910  -1.427   7.912
 1623POPC   D2A31406  22.759  -1.298   7.936
 1623POPC   C3A31407  22.609  -1.168   7.960
 1623POPC   C4A31408  22.459  -1.038   7.984
 1623POPC   C1B31409  22.791  -1.576   7.975
 1623POPC   C2B31410  22.641  -1.446   7.999
 1623POPC   C3B31411  22.491  -1.316   8.023
 1623POPC   C4B31412  22.341  -1.187   8.047
 1624POPC   NC331413  16.449  26.663   8.360
 1624POPC   PO431414  16.372  26.479   8.376
 1624POPC   GL131415  16.295  26.295   8.392
 1624POPC   GL231416  16.375  26.257   8.347
 1624POPC   C1A31417  16.217  26.112   8.409
 1624POPC   D2A31418  16.140  25.928   8.425
 1624POPC   C3A31419  16.062  25.745   8.442
 1624POPC   C4A31420  15.985  25.561   8.458
 1624POPC   C1B31421  16.308  26.090   8.586
 1624POPC   C2B31422  16.230  25.906   8.602
 1624POPC   C3B31423  16.153  25.722   8.619
 1624POPC   C4B31424  16.075  25.539   8.635
 1625POPC   NC331425  23.803   0.290  16.125
 1625POPC   PO431426  23.649   0.400  16.061
 1625POPC   GL131427  23.495   0.510  15.997
 1625POPC   GL231428  23.548   0.538  15.917
 1625POPC   C1A31429  23.341   0.620  15.933
 1625POPC   D2A31430  23.186   0.731  15.869
 1625POPC   C3A31431  23.032   0.841  15.805
 1625POPC   C4A31432  22.878   0.951  15.741
 1625POPC   C1B31433  23.270   0.463  15.831
 1625POPC   C2B31434  23.116   0.573  15.767
 1625POPC   C3B31435  22.962   0.683  15.703
 1625POPC   C4B31436  22.808   0.794  15.639
 1626POPC   NC331437  21.071  14.873  -3.354
 1626POPC   PO431438  20.950  14.819  -3.205
 1626POPC   GL131439  20.829  14.765  -3.056
 1626POPC   GL231440  20.825  14.672  -3.092
 1626POPC   C1A31441  20.707  14.710  -2.906
 1626POPC   D2A31442  20.586  14.656  -2.757
 1626POPC   C3A31443  20.464  14.601  -2.607
 1626POPC   C4A31444  20.343  14.547  -2.458
 1626POPC   C1B31445  20.866  14.660  -2.795
 1626POPC   C2B31446  20.745  14.606  -2.646
 1626POPC   C3B31447  20.623  14.551  -2.497
 1626POPC   C4B31448  20.502  14.497  -2.347
 1627POPC   NC331449  17.770  -0.292  -2.668
 1627POPC   PO431450  17.682  -0.178  -2.530
 1627POPC   GL131451  17.594  -0.064  -2.392
 1627POPC   GL231452  17.558  -0.004  -2.464
 1627POPC   C1A31453  17.506   0.051  -2.254
 1627POPC   D2A31454  17.417   0.165  -2.115
 1627POPC   C3A31455  17.329   0.280  -1.977
 1627POPC   C4A31456  17.241   0.394  -1.839
 1627POPC   C1B31457  17.341  -0.062  -2.266
 1627POPC   C2B31458  17.252   0.053  -2.128
 1627POPC   C3B31459  17.164   0.167  -1.989
 1627POPC   C4B31460  17.076   0.282  -1.851
 1628POPC   NC331461   6.669   2.143  25.799
 1628POPC   PO431462   6.703   2.225  25.620
 1628POPC   GL131463   6.737   2.307  25.441
 1628POPC   GL231464   6.835   2.310  25.460
 1628POPC   C1A31465   6.770   2.389  25.262
 1628POPC   D2A31466   6.804   2.472  25.082
 1628POPC   C3A31467   6.837   2.554  24.903
 1628POPC   C4A31468   6.871   2.636  24.724
 1628POPC   C1B31469   6.791   2.207  25.182
 1628POPC   C2B31470   6.824   2.289  25.003
 1628POPC   C3B31471   6.858   2.372  24.823
 1628POPC   C4B31472   6.891   2.454  24.644
 1629POPC   NC331473  24.404  19.688  14.388
 1629POPC   PO431474  24.244  19.579  14.339
 1629POPC   GL131475  24.084  19.470  14.290
 1629POPC   GL231476  24.087  19.507  14.197
 1629POPC   C1A31477  23.924  19.361  14.240
 1629POPC   D2A31478  23.763  19.251  14.191
 1629POPC   C3A31479  23.603  19.142  14.141
 1629POPC   C4A31480  23.443  19.033  14.092
 1629POPC   C1B31481  24.043  19.211  14.184
 1629POPC   C2B31482  23.883  19.101  14.134
 1629POPC   C3B31483  23.723  18.992  14.085
 1629POPC   C4B31484  23.563  18.883  14.035
 1630POPC   NC331485   4.707  23.451  -0.880
 1630POPC   PO431486   4.761  23.299  -0.761
 1630POPC   GL131487   4.815  23.147  -0.642
 1630POPC   GL231488   4.847  23.213  -0.574
 1630POPC   C1A31489   4.869  22.996  -0.524
 1630POPC   D2A31490   4.924  22.844  -0.405
 1630POPC   C3A31491   4.978  22.693  -0.287
 1630POPC   C4A31492   5.032  22.541  -0.168
 1630POPC   C1B31493   4.688  22.996  -0.440
 1630POPC   C2B31494   4.742  22.845  -0.322
 1630POPC   C3B31495   4.796  22.693  -0.203
 1630POPC   C4B31496   4.850  22.541  -0.084
 1631POPC   NC331497  23.561   1.502   1.764
 1631POPC   PO431498  23.412   1.596   1.858
 1631POPC   GL131499  23.263   1.690   1.952
 1631POPC   GL231500  23.315   1.775   1.951
 1631POPC   C1A31501  23.113   1.784   2.046
 1631POPC   D2A31502  22.964   1.878   2.140
 1631POPC   C3A31503  22.814   1.972   2.234
 1631POPC   C4A31504  22.665   2.066   2.328
 1631POPC   C1B31505  23.032   1.831   1.870
 1631POPC   C2B31506  22.883   1.925   1.964
 1631POPC   C3B31507  22.733   2.019   2.058
 1631POPC   C4B31508  22.584   2.113   2.152
 1632POPC   NC331509   7.949  27.940  10.005
 1632POPC   PO431510   7.965  27.741  10.006
 1632POPC   GL131511   7.981  27.542  10.007
 1632POPC   GL231512   8.071  27.549   9.964
 1632POPC   C1A31513   7.998  27.342  10.008
 1632POPC   D2A31514   8.014  27.143  10.008
 1632POPC   C3A31515   8.031  26.943  10.009
 1632POPC   C4A31516   8.047  26.744  10.010
 1632POPC   C1B31517   8.083  27.350  10.188
 1632POPC   C2B31518   8.100  27.151  10.189
 1632POPC   C3B31519   8.116  26.951  10.190
 1632POPC   C4B31520   8.133  26.752  10.191
 1633POPC   NC331521  25.176  18.746  13.731
 1633POPC   PO431522  25.006  18.648  13.689
 1633POPC   GL131523  24.836  18.550  13.647
 1633POPC   GL231524  24.830  18.599  13.560
 1633POPC   C1A31525  24.667  18.453  13.606
 1633POPC   D2A31526  24.497  18.355  13.564
 1633POPC   C3A31527  24.328  18.258  13.523
 1633POPC   C4A31528  24.158  18.160  13.481
 1633POPC   C1B31529  24.772  18.308  13.516
 1633POPC   C2B31530  24.602  18.210  13.475
 1633POPC   C3B31531  24.433  18.113  13.433
 1633POPC   C4B31532  24.263  18.015  13.392
 1634POPC   NC331533  17.350  17.178  -4.841
 1634POPC   PO431534  17.267  17.097  -4.678
 1634POPC   GL131535  17.184  17.016  -4.515
 1634POPC   GL231536  17.181  16.927  -4.561
 1634POPC   C1A31537  17.101  16.934  -4.353
 1634POPC   D2A31538  17.017  16.853  -4.190
 1634POPC   C3A31539  16.934  16.771  -4.028
 1634POPC   C4A31540  16.851  16.690  -3.865
 1634POPC   C1B31541  17.282  16.891  -4.282
 1634POPC   C2B31542  17.199  16.809  -4.119
 1634POPC   C3B31543  17.116  16.728  -3.956
 1634POPC   C4B31544  17.033  16.646  -3.794
 1635POPC   NC331545  27.297  10.242  14.613
 1635POPC   PO431546  27.103  10.234  14.566
 1635POPC   GL131547  26.909  10.226  14.519
 1635POPC   GL231548  26.924  10.291  14.444
 1635POPC   C1A31549  26.715  10.217  14.472
 1635POPC   D2A31550  26.520  10.209  14.424
 1635POPC   C3A31551  26.326  10.200  14.377
 1635POPC   C4A31552  26.132  10.192  14.330
 1635POPC   C1B31553  26.752  10.065  14.347
 1635POPC   C2B31554  26.557  10.057  14.299
 1635POPC   C3B31555  26.363  10.049  14.252
 1635POPC   C4B31556  26.169  10.040  14.205
 1636POPC   NC331557  21.628  19.318  -0.068
 1636POPC   PO431558  21.499  19.209   0.039
 1636POPC   GL131559  21.370  19.100   0.146
 1636POPC   GL231560  21.446  19.055   0.192
 1636POPC   C1A31561  21.240  18.991   0.253
 1636POPC   D2A31562  21.111  18.883   0.359
 1636POPC   C3A31563  20.981  18.774   0.466
 1636POPC   C4A31564  20.852  18.665   0.573
 1636POPC   C1B31565  21.238  19.133   0.394
 1636POPC   C2B31566  21.108  19.024   0.501
 1636POPC   C3B31567  20.979  18.915   0.607
 1636POPC   C4B31568  20.850  18.807   0.714
 1637POPC   NC331569  -1.394  24.064   9.765
 1637POPC   PO431570  -1.272  23.906   9.773
 1637POPC   GL131571  -1.150  23.748   9.781
 1637POPC   GL231572  -1.106  23.786   9.862
 1637POPC   C1A31573  -1.028  23.590   9.790
 1637POPC   D2A31574  -0.905  23.431   9.798
 1637POPC   C3A31575  -0.783  23.273   9.807
 1637POPC   C4A31576  -0.661  23.115   9.815
 1637POPC   C1B31577  -1.159  23.494   9.907
 1637POPC   C2B31578  -1.037  23.336   9.915
 1637POPC   C3B31579  -0.915  23.178   9.923
 1637POPC   C4B31580  -0.792  23.020   9.932
 1638POPC   NC331581   7.019  19.487  25.041
 1638POPC   PO431582   7.051  19.379  24.876
 1638POPC   GL131583   7.083  19.271  24.711
 1638POPC   GL231584   7.174  19.311  24.702
 1638POPC   C1A31585   7.115  19.163  24.545
 1638POPC   D2A31586   7.147  19.055  24.380
 1638POPC   C3A31587   7.179  18.947  24.214
 1638POPC   C4A31588   7.211  18.839  24.049
 1638POPC   C1B31589   7.190  19.015  24.657
 1638POPC   C2B31590   7.222  18.907  24.491
 1638POPC   C3B31591   7.254  18.799  24.326
 1638POPC   C4B31592   7.286  18.691  24.160
 1639POPC   NC331593   7.396  26.562  16.673
 1639POPC   PO431594   7.424  26.379  16.598
 1639POPC   GL131595   7.452  26.196  16.523
 1639POPC   GL231596   7.496  26.236  16.442
 1639POPC   C1A31597   7.481  26.013  16.448
 1639POPC   D2A31598   7.509  25.829  16.373
 1639POPC   C3A31599   7.538  25.646  16.298
 1639POPC   C4A31600   7.566  25.463  16.223
 1639POPC   C1B31601   7.659  26.003  16.538
 1639POPC   C2B31602   7.687  25.820  16.463
 1639POPC   C3B31603   7.716  25.637  16.388
 1639POPC   C4B31604   7.744  25.454  16.313
 1640POPC   NC331605  -6.588   2.628   9.469
 1640POPC   PO431606  -6.405   2.708   9.478
 1640POPC   GL131607  -6.222   2.788   9.487
 1640POPC   GL231608  -6.258   2.864   9.540
 1640POPC   C1A31609  -6.039   2.868   9.496
 1640POPC   D2A31610  -5.855   2.948   9.504
 1640POPC   C3A31611  -5.672   3.028   9.513
 1640POPC   C4A31612  -5.489   3.108   9.522
 1640POPC   C1B31613  -6.003   2.767   9.664
 1640POPC   C2B31614  -5.819   2.847   9.673
 1640POPC   C3B31615  -5.636   2.927   9.682
 1640POPC   C4B31616  -5.453   3.007   9.691
 1641POPC   NC331617   0.378  -3.428  17.470
 1641POPC   PO431618   0.482  -3.281  17.383
 1641POPC   GL131619   0.586  -3.134  17.296
 1641POPC   GL231620   0.656  -3.141  17.367
 1641POPC   C1A31621   0.689  -2.986  17.209
 1641POPC   D2A31622   0.793  -2.839  17.123
 1641POPC   C3A31623   0.896  -2.691  17.036
 1641POPC   C4A31624   1.000  -2.544  16.949
 1641POPC   C1B31625   0.786  -3.120  17.097
 1641POPC   C2B31626   0.890  -2.973  17.011
 1641POPC   C3B31627   0.994  -2.826  16.924
 1641POPC   C4B31628   1.097  -2.678  16.837
 1642POPC   NC331629  27.018   4.337   9.492
 1642POPC   PO431630  26.828   4.399   9.497
 1642POPC   GL131631  26.638   4.461   9.502
 1642POPC   GL231632  26.652   4.512   9.417
 1642POPC   C1A31633  26.448   4.523   9.507
 1642POPC   D2A31634  26.258   4.586   9.513
 1642POPC   C3A31635  26.068   4.648   9.518
 1642POPC   C4A31636  25.878   4.710   9.523
 1642POPC   C1B31637  26.392   4.363   9.402
 1642POPC   C2B31638  26.202   4.425   9.407
 1642POPC   C3B31639  26.012   4.487   9.413
 1642POPC   C4B31640  25.822   4.549   9.418
 1643POPC   NC331641  -2.859   0.362  18.419
 1643POPC   PO431642  -2.718   0.468  18.325
 1643POPC   GL131643  -2.577   0.574  18.231
 1643POPC   GL231644  -2.516   0.495  18.233
 1643POPC   C1A31645  -2.437   0.681  18.136
 1643POPC   D2A31646  -2.296   0.787  18.042
 1643POPC   C3A31647  -2.156   0.894  17.947
 1643POPC   C4A31648  -2.015   1.000  17.853
 1643POPC   C1B31649  -2.509   0.620  17.960
 1643POPC   C2B31650  -2.368   0.726  17.866
 1643POPC   C3B31651  -2.228   0.833  17.771
 1643POPC   C4B31652  -2.087   0.939  17.677
 1644POPC   NC331653  17.270  -1.156  -2.217
 1644POPC   PO431654  17.190  -1.031  -2.083
 1644POPC   GL131655  17.110  -0.906  -1.949
 1644POPC   GL231656  17.043  -0.875  -2.018
 1644POPC   C1A31657  17.030  -0.780  -1.816
 1644POPC   D2A31658  16.949  -0.655  -1.682
 1644POPC   C3A31659  16.869  -0.529  -1.549
 1644POPC   C4A31660  16.789  -0.404  -1.415
 1644POPC   C1B31661  16.904  -0.924  -1.756
 1644POPC   C2B31662  16.824  -0.799  -1.623
 1644POPC   C3B31663  16.743  -0.673  -1.489
 1644POPC   C4B31664  16.663  -0.548  -1.356
 1645POPC   NC331665  13.811  -5.932  17.518
 1645POPC   PO431666  13.762  -5.755  17.438
 1645POPC   GL131667  13.713  -5.578  17.358
 1645POPC   GL231668  13.803  -5.542  17.383
 1645POPC   C1A31669  13.664  -5.401  17.279
 1645POPC   D2A31670  13.615  -5.225  17.199
 1645POPC   C3A31671  13.566  -5.048  17.120
 1645POPC   C4A31672  13.517  -4.871  17.040
 1645POPC   C1B31673  13.737  -5.461  17.102
 1645POPC   C2B31674  13.688  -5.284  17.023
 1645POPC   C3B31675  13.639  -5.107  16.943
 1645POPC   C4B31676  13.590  -4.930  16.863
 1646POPC   NC331677   7.039  10.937  -7.869
 1646POPC   PO431678   7.070  10.928  -7.672
 1646POPC   GL131679   7.101  10.919  -7.475
 1646POPC   GL231680   7.050  11.004  -7.463
 1646POPC   C1A31681   7.132  10.910  -7.277
 1646POPC   D2A31682   7.163  10.901  -7.080
 1646POPC   C3A31683   7.194  10.892  -6.882
 1646POPC   C4A31684   7.225  10.883  -6.685
 1646POPC   C1B31685   6.963  10.805  -7.255
 1646POPC   C2B31686   6.994  10.796  -7.058
 1646POPC   C3B31687   7.025  10.787  -6.861
 1646POPC   C4B31688   7.056  10.778  -6.663
 1647POPC   NC331689  17.079  -5.595   4.499
 1647POPC   PO431690  16.999  -5.422   4.560
 1647POPC   GL131691  16.919  -5.249   4.621
 1647POPC   GL231692  16.952  -5.204   4.538
 1647POPC   C1A31693  16.839  -5.076   4.681
 1647POPC   D2A31694  16.758  -4.903   4.742
 1647POPC   C3A31695  16.678  -4.730   4.802
 1647POPC   C4A31696  16.598  -4.557   4.863
 1647POPC   C1B31697  16.668  -5.122   4.588
 1647POPC   C2B31698  16.588  -4.949   4.648
 1647POPC   C3B31699  16.508  -4.776   4.709
 1647POPC   C4B31700  16.427  -4.603   4.769
 1648POPC   NC331701   0.060   6.677  -4.885
 1648POPC   PO431702   0.170   6.711  -4.722
 1648POPC   GL131703   0.280   6.745  -4.559
 1648POPC   GL231704   0.198   6.739  -4.502
 1648POPC   C1A31705   0.391   6.779  -4.396
 1648POPC   D2A31706   0.501   6.813  -4.232
 1648POPC   C3A31707   0.612   6.847  -4.069
 1648POPC   C4A31708   0.722   6.881  -3.906
 1648POPC   C1B31709   0.421   6.582  -4.375
 1648POPC   C2B31710   0.531   6.616  -4.211
 1648POPC   C3B31711   0.641   6.650  -4.048
 1648POPC   C4B31712   0.752   6.684  -3.885
 1649POPC   NC331713  20.173  -4.259   5.814
 1649POPC   PO431714  20.060  -4.101   5.861
 1649POPC   GL131715  19.947  -3.943   5.908
 1649POPC   GL231716  19.953  -3.911   5.813
 1649POPC   C1A31717  19.833  -3.785   5.954
 1649POPC   D2A31718  19.720  -3.627   6.001
 1649POPC   C3A31719  19.606  -3.469   6.047
 1649POPC   C4A31720  19.493  -3.311   6.094
 1649POPC   C1B31721  19.669  -3.889   5.908
 1649POPC   C2B31722  19.556  -3.731   5.954
 1649POPC   C3B31723  19.442  -3.573   6.001
 1649POPC   C4B31724  19.329  -3.415   6.048
 1650POPC   NC331725   4.317  23.132  20.959
 1650POPC   PO431726   4.376  22.987  20.834
 1650POPC   GL131727   4.435  22.842  20.709
 1650POPC   GL231728   4.506  22.902  20.673
 1650POPC   C1A31729   4.494  22.697  20.585
 1650POPC   D2A31730   4.552  22.552  20.460
 1650POPC   C3A31731   4.611  22.407  20.336
 1650POPC   C4A31732   4.670  22.262  20.211
 1650POPC   C1B31733   4.621  22.629  20.724
 1650POPC   C2B31734   4.679  22.484  20.599
 1650POPC   C3B31735   4.738  22.339  20.474
 1650POPC   C4B31736   4.797  22.194  20.350
 1651POPC   NC331737  25.060   0.602   7.530
 1651POPC   PO431738  24.891   0.705   7.556
 1651POPC   GL131739  24.722   0.808   7.582
 1651POPC   GL231740  24.713   0.819   7.483
 1651POPC   C1A31741  24.552   0.911   7.608
 1651POPC   D2A31742  24.383   1.015   7.635
 1651POPC   C3A31743  24.213   1.118   7.661
 1651POPC   C4A31744  24.044   1.221   7.687
 1651POPC   C1B31745  24.447   0.741   7.598
 1651POPC   C2B31746  24.278   0.845   7.625
 1651POPC   C3B31747  24.108   0.948   7.651
 1651POPC   C4B31748  23.939   1.051   7.677
 1652POPC   NC331749  17.046  23.538   0.450
 1652POPC   PO431750  16.963  23.389   0.554
 1652POPC   GL131751  16.880  23.240   0.658
 1652POPC   GL231752  16.953  23.247   0.726
 1652POPC   C1A31753  16.797  23.091   0.762
 1652POPC   D2A31754  16.714  22.941   0.867
 1652POPC   C3A31755  16.631  22.792   0.971
 1652POPC   C4A31756  16.548  22.643   1.075
 1652POPC   C1B31757  16.688  23.223   0.865
 1652POPC   C2B31758  16.605  23.074   0.970
 1652POPC   C3B31759  16.522  22.925   1.074
 1652POPC   C4B31760  16.439  22.775   1.178
 1653POPC   NC331761  -1.287   5.069  23.157
 1653POPC   PO431762  -1.165   5.129  23.010
 1653POPC   GL131763  -1.043   5.189  22.863
 1653POPC   GL231764  -0.967   5.194  22.928
 1653POPC   C1A31765  -0.921   5.249  22.716
 1653POPC   D2A31766  -0.800   5.309  22.569
 1653POPC   C3A31767  -0.678   5.369  22.422
 1653POPC   C4A31768  -0.556   5.429  22.275
 1653POPC   C1B31769  -0.875   5.059  22.677
 1653POPC   C2B31770  -0.753   5.119  22.530
 1653POPC   C3B31771  -0.631   5.179  22.383
 1653POPC   C4B31772  -0.509   5.239  22.236
 1654POPC   NC331773  11.874  23.151  22.077
 1654POPC   PO431774  11.847  23.004  21.944
 1654POPC   GL131775  11.820  22.857  21.811
 1654POPC   GL231776  11.918  22.838  21.813
 1654POPC   C1A31777  11.793  22.711  21.677
 1654POPC   D2A31778  11.766  22.564  21.544
 1654POPC   C3A31779  11.739  22.418  21.410
 1654POPC   C4A31780  11.712  22.271  21.277
 1654POPC   C1B31781  11.764  22.581  21.826
 1654POPC   C2B31782  11.737  22.434  21.693
 1654POPC   C3B31783  11.710  22.287  21.559
 1654POPC   C4B31784  11.683  22.141  21.426
 1655POPC   NC331785  27.515   7.375  12.579
 1655POPC   PO431786  27.319   7.402  12.553
 1655POPC   GL131787  27.123   7.429  12.527
 1655POPC   GL231788  27.125   7.369  12.447
 1655POPC   C1A31789  26.926   7.456  12.501
 1655POPC   D2A31790  26.730   7.484  12.475
 1655POPC   C3A31791  26.533   7.511  12.449
 1655POPC   C4A31792  26.337   7.538  12.423
 1655POPC   C1B31793  26.889   7.299  12.618
 1655POPC   C2B31794  26.693   7.326  12.592
 1655POPC   C3B31795  26.496   7.353  12.566
 1655POPC   C4B31796  26.300   7.380  12.540
 1656POPC   NC331797  25.121   9.340  19.532
 1656POPC   PO431798  24.952   9.352  19.426
 1656POPC   GL131799  24.783   9.364  19.320
 1656POPC   GL231800  24.835   9.354  19.235
 1656POPC   C1A31801  24.614   9.377  19.214
 1656POPC   D2A31802  24.445   9.389  19.107
 1656POPC   C3A31803  24.276   9.402  19.001
 1656POPC   C4A31804  24.107   9.414  18.895
 1656POPC   C1B31805  24.593   9.178  19.224
 1656POPC   C2B31806  24.424   9.191  19.118
 1656POPC   C3B31807  24.255   9.203  19.012
 1656POPC   C4B31808  24.086   9.215  18.906
 1657POPC   NC331809  14.148  20.804  23.754
 1657POPC   PO431810  14.102  20.685  23.600
 1657POPC   GL131811  14.056  20.566  23.446
 1657POPC   GL231812  14.152  20.562  23.420
 1657POPC   C1A31813  14.009  20.447  23.292
 1657POPC   D2A31814  13.963  20.329  23.138
 1657POPC   C3A31815  13.916  20.210  22.984
 1657POPC   C4A31816  13.870  20.091  22.830
 1657POPC   C1B31817  14.034  20.287  23.408
 1657POPC   C2B31818  13.988  20.168  23.254
 1657POPC   C3B31819  13.941  20.049  23.100
 1657POPC   C4B31820  13.895  19.930  22.946
 1658POPC   NC331821  -0.878  23.685  14.765
 1658POPC   PO431822  -0.765  23.532  14.704
 1658POPC   GL131823  -0.652  23.379  14.643
 1658POPC   GL231824  -0.617  23.367  14.736
 1658POPC   C1A31825  -0.539  23.225  14.582
 1658POPC   D2A31826  -0.426  23.072  14.521
 1658POPC   C3A31827  -0.313  22.918  14.460
 1658POPC   C4A31828  -0.200  22.765  14.399
 1658POPC   C1B31829  -0.689  23.099  14.622
 1658POPC   C2B31830  -0.576  22.946  14.561
 1658POPC   C3B31831  -0.463  22.792  14.500
 1658POPC   C4B31832  -0.350  22.639  14.439
 1659POPC   NC331833  16.138   0.921  24.265
 1659POPC   PO431834  16.068   1.023  24.108
 1659POPC   GL131835  15.998   1.125  23.951
 1659POPC   GL231836  16.041   1.060  23.889
 1659POPC   C1A31837  15.928   1.227  23.794
 1659POPC   D2A31838  15.858   1.330  23.637
 1659POPC   C3A31839  15.788   1.432  23.480
 1659POPC   C4A31840  15.718   1.534  23.323
 1659POPC   C1B31841  15.762   1.116  23.796
 1659POPC   C2B31842  15.692   1.218  23.639
 1659POPC   C3B31843  15.622   1.320  23.482
 1659POPC   C4B31844  15.552   1.423  23.325
 1660POPC   NC331845  -2.619  22.359   5.825
 1660POPC   PO431846  -2.488  22.215   5.871
 1660POPC   GL131847  -2.357  22.071   5.917
 1660POPC   GL231848  -2.286  22.119   5.866
 1660POPC   C1A31849  -2.226  21.927   5.964
 1660POPC   D2A31850  -2.095  21.784   6.010
 1660POPC   C3A31851  -1.964  21.640   6.057
 1660POPC   C4A31852  -1.833  21.496   6.103
 1660POPC   C1B31853  -2.174  22.028   6.128
 1660POPC   C2B31854  -2.043  21.884   6.175
 1660POPC   C3B31855  -1.912  21.741   6.221
 1660POPC   C4B31856  -1.781  21.597   6.268
 1661POPC   NC331857   6.734  24.346  20.434
 1661POPC   PO431858   6.770  24.190  20.314
 1661POPC   GL131859   6.806  24.034  20.194
 1661POPC   GL231860   6.897  24.024  20.234
 1661POPC   C1A31861   6.842  23.878  20.075
 1661POPC   D2A31862   6.879  23.721  19.955
 1661POPC   C3A31863   6.915  23.565  19.836
 1661POPC   C4A31864   6.951  23.409  19.716
 1661POPC   C1B31865   6.769  23.754  20.214
 1661POPC   C2B31866   6.805  23.598  20.094
 1661POPC   C3B31867   6.841  23.442  19.975
 1661POPC   C4B31868   6.877  23.285  19.855
 1662POPC   NC331869   2.695  -0.499  22.830
 1662POPC   PO431870   2.777  -0.383  22.690
 1662POPC   GL131871   2.859  -0.267  22.550
 1662POPC   GL231872   2.920  -0.227  22.618
 1662POPC   C1A31873   2.941  -0.150  22.409
 1662POPC   D2A31874   3.023  -0.034  22.269
 1662POPC   C3A31875   3.105   0.083  22.128
 1662POPC   C4A31876   3.187   0.199  21.988
 1662POPC   C1B31877   3.076  -0.292  22.370
 1662POPC   C2B31878   3.158  -0.176  22.230
 1662POPC   C3B31879   3.240  -0.060  22.089
 1662POPC   C4B31880   3.322   0.057  21.949
 1663POPC   NC331881  18.780   0.349  -2.482
 1663POPC   PO431882  18.678   0.454  -2.346
 1663POPC   GL131883  18.576   0.559  -2.210
 1663POPC   GL231884  18.535   0.614  -2.283
 1663POPC   C1A31885  18.474   0.665  -2.074
 1663POPC   D2A31886  18.371   0.770  -1.939
 1663POPC   C3A31887  18.269   0.876  -1.803
 1663POPC   C4A31888  18.167   0.981  -1.667
 1663POPC   C1B31889  18.322   0.535  -2.087
 1663POPC   C2B31890  18.220   0.640  -1.952
 1663POPC   C3B31891  18.118   0.746  -1.816
 1663POPC   C4B31892  18.016   0.851  -1.680
 1664POPC   NC331893  -2.995  22.662  10.543
 1664POPC   PO431894  -2.853  22.521  10.538
 1664POPC   GL131895  -2.711  22.380  10.533
 1664POPC   GL231896  -2.678  22.411  10.622
 1664POPC   C1A31897  -2.570  22.239  10.528
 1664POPC   D2A31898  -2.428  22.097  10.523
 1664POPC   C3A31899  -2.287  21.956  10.518
 1664POPC   C4A31900  -2.145  21.815  10.513
 1664POPC   C1B31901  -2.694  22.111  10.619
 1664POPC   C2B31902  -2.552  21.970  10.614
 1664POPC   C3B31903  -2.411  21.828  10.609
 1664POPC   C4B31904  -2.269  21.687  10.604
 1665POPC   NC331905  14.261   0.640  -4.885
 1665POPC   PO431906  14.218   0.746  -4.721
 1665POPC   GL131907  14.175   0.852  -4.557
 1665POPC   GL231908  14.272   0.875  -4.546
 1665POPC   C1A31909  14.132   0.958  -4.393
 1665POPC   D2A31910  14.089   1.065  -4.229
 1665POPC   C3A31911  14.046   1.171  -4.065
 1665POPC   C4A31912  14.003   1.277  -3.901
 1665POPC   C1B31913  14.107   1.122  -4.505
 1665POPC   C2B31914  14.064   1.228  -4.341
 1665POPC   C3B31915  14.021   1.334  -4.177
 1665POPC   C4B31916  13.978   1.440  -4.013
 1666POPC   NC331917  15.642  13.393  26.747
 1666POPC   PO431918  15.581  13.355  26.561
 1666POPC   GL131919  15.520  13.317  26.375
 1666POPC   GL231920  15.608  13.347  26.339
 1666POPC   C1A31921  15.458  13.279  26.188
 1666POPC   D2A31922  15.397  13.240  26.002
 1666POPC   C3A31923  15.335  13.202  25.815
 1666POPC   C4A31924  15.274  13.164  25.629
 1666POPC   C1B31925  15.528  13.092  26.204
 1666POPC   C2B31926  15.466  13.054  26.017
 1666POPC   C3B31927  15.405  13.015  25.831
 1666POPC   C4B31928  15.344  12.977  25.644
 1667POPC   NC331929   2.835  26.581   8.657
 1667POPC   PO431930   2.919  26.400   8.672
 1667POPC   GL131931   3.003  26.219   8.687
 1667POPC   GL231932   2.963  26.208   8.778
 1667POPC   C1A31933   3.087  26.038   8.701
 1667POPC   D2A31934   3.171  25.857   8.716
 1667POPC   C3A31935   3.255  25.676   8.730
 1667POPC   C4A31936   3.339  25.495   8.745
 1667POPC   C1B31937   2.924  25.956   8.620
 1667POPC   C2B31938   3.008  25.775   8.635
 1667POPC   C3B31939   3.092  25.594   8.649
 1667POPC   C4B31940   3.176  25.413   8.664
 1668POPC   NC331941  -0.189  15.167  -4.118
 1668POPC   PO431942  -0.078  15.112  -3.961
 1668POPC   GL131943   0.033  15.057  -3.804
 1668POPC   GL231944  -0.047  15.061  -3.745
 1668POPC   C1A31945   0.145  15.002  -3.647
 1668POPC   D2A31946   0.256  14.946  -3.491
 1668POPC   C3A31947   0.368  14.891  -3.334
 1668POPC   C4A31948   0.479  14.836  -3.177
 1668POPC   C1B31949   0.105  14.810  -3.687
 1668POPC   C2B31950   0.216  14.754  -3.530
 1668POPC   C3B31951   0.328  14.699  -3.373
 1668POPC   C4B31952   0.439  14.644  -3.216
 1669POPC   NC331953  13.878  26.867   5.180
 1669POPC   PO431954  13.833  26.680   5.237
 1669POPC   GL131955  13.788  26.493   5.294
 1669POPC   GL231956  13.881  26.482   5.329
 1669POPC   C1A31957  13.744  26.307   5.351
 1669POPC   D2A31958  13.699  26.120   5.407
 1669POPC   C3A31959  13.655  25.934   5.464
 1669POPC   C4A31960  13.610  25.747   5.521
 1669POPC   C1B31961  13.684  26.375   5.529
 1669POPC   C2B31962  13.640  26.189   5.586
 1669POPC   C3B31963  13.595  26.002   5.642
 1669POPC   C4B31964  13.551  25.815   5.699
 1670POPC   NC331965  23.530   3.362   0.185
 1670POPC   PO431966  23.383   3.440   0.296
 1670POPC   GL131967  23.236   3.518   0.407
 1670POPC   GL231968  23.296   3.595   0.432
 1670POPC   C1A31969  23.090   3.596   0.519
 1670POPC   D2A31970  22.943   3.675   0.630
 1670POPC   C3A31971  22.797   3.753   0.742
 1670POPC   C4A31972  22.650   3.831   0.853
 1670POPC   C1B31973  23.024   3.699   0.360
 1670POPC   C2B31974  22.877   3.777   0.472
 1670POPC   C3B31975  22.731   3.855   0.583
 1670POPC   C4B31976  22.584   3.934   0.694
 1671POPC   NC331977  23.509  19.673   3.177
 1671POPC   PO431978  23.357  19.563   3.248
 1671POPC   GL131979  23.205  19.453   3.319
 1671POPC   GL231980  23.248  19.371   3.282
 1671POPC   C1A31981  23.054  19.343   3.389
 1671POPC   D2A31982  22.902  19.234   3.460
 1671POPC   C3A31983  22.751  19.124   3.530
 1671POPC   C4A31984  22.599  19.014   3.601
 1671POPC   C1B31985  23.152  19.318   3.562
 1671POPC   C2B31986  23.001  19.209   3.632
 1671POPC   C3B31987  22.849  19.099   3.703
 1671POPC   C4B31988  22.697  18.989   3.773
 1672POPC   NC331989   8.359  -0.855  24.319
 1672POPC   PO431990   8.374  -0.737  24.158
 1672POPC   GL131991   8.389  -0.619  23.997
 1672POPC   GL231992   8.488  -0.610  24.013
 1672POPC   C1A31993   8.405  -0.501  23.837
 1672POPC   D2A31994   8.420  -0.382  23.676
 1672POPC   C3A31995   8.436  -0.264  23.516
 1672POPC   C4A31996   8.451  -0.146  23.355
 1672POPC   C1B31997   8.438  -0.661  23.722
 1672POPC   C2B31998   8.454  -0.543  23.561
 1672POPC   C3B31999   8.469  -0.424  23.401
 1672POPC   C4B32000   8.485  -0.306  23.240
 1673POPC   NC332001  23.314  20.367   3.920
 1673POPC   PO432002  23.163  20.251   3.981
 1673POPC   GL132003  23.012  20.135   4.042
 1673POPC   GL232004  23.059  20.054   4.006
 1673POPC   C1A32005  22.861  20.019   4.104
 1673POPC   D2A32006  22.711  19.902   4.165
 1673POPC   C3A32007  22.560  19.786   4.227
 1673POPC   C4A32008  22.409  19.670   4.288
 1673POPC   C1B32009  22.953  19.992   4.280
 1673POPC   C2B32010  22.802  19.876   4.341
 1673POPC   C3B32011  22.652  19.760   4.402
 1673POPC   C4B32012  22.501  19.644   4.464
 1674POPC   NC332013  23.503  10.932  21.720
 1674POPC   PO432014  23.354  10.921  21.587
 1674POPC   GL132015  23.205  10.910  21.454
 1674POPC   GL232016  23.249  10.979  21.398
 1674POPC   C1A32017  23.055  10.899  21.322
 1674POPC   D2A32018  22.906  10.888  21.189
 1674POPC   C3A32019  22.756  10.877  21.057
 1674POPC   C4A32020  22.607  10.866  20.924
 1674POPC   C1B32021  23.153  10.755  21.223
 1674POPC   C2B32022  23.004  10.744  21.091
 1674POPC   C3B32023  22.854  10.733  20.958
 1674POPC   C4B32024  22.705  10.722  20.825
 1675POPC   NC332025  13.229  15.567  -6.873
 1675POPC   PO432026  13.192  15.504  -6.687
 1675POPC   GL132027  13.155  15.441  -6.501
 1675POPC   GL232028  13.253  15.429  -6.486
 1675POPC   C1A32029  13.118  15.377  -6.315
 1675POPC   D2A32030  13.082  15.314  -6.129
 1675POPC   C3A32031  13.045  15.250  -5.943
 1675POPC   C4A32032  13.008  15.187  -5.757
 1675POPC   C1B32033  13.131  15.565  -6.248
 1675POPC   C2B32034  13.094  15.502  -6.062
 1675POPC   C3B32035  13.057  15.439  -5.876
 1675POPC   C4B32036  13.020  15.375  -5.690
 1676POPC   NC332037  -7.008   9.354  16.324
 1676POPC   PO432038  -6.822   9.360  16.251
 1676POPC   GL132039  -6.636   9.366  16.178
 1676POPC   GL232040  -6.617   9.448  16.232
 1676POPC   C1A32041  -6.450   9.372  16.105
 1676POPC   D2A32042  -6.263   9.377  16.033
 1676POPC   C3A32043  -6.077   9.383  15.960
 1676POPC   C4A32044  -5.891   9.389  15.887
 1676POPC   C1B32045  -6.387   9.258  16.257
 1676POPC   C2B32046  -6.200   9.263  16.184
 1676POPC   C3B32047  -6.014   9.269  16.112
 1676POPC   C4B32048  -5.828   9.275  16.039
 1677POPC   NC332049  -5.829   6.726  18.354
 1677POPC   PO432050  -5.654   6.756  18.262
 1677POPC   GL132051  -5.479   6.786  18.170
 1677POPC   GL232052  -5.459   6.861  18.233
 1677POPC   C1A32053  -5.304   6.816  18.077
 1677POPC   D2A32054  -5.130   6.846  17.985
 1677POPC   C3A32055  -4.955   6.876  17.892
 1677POPC   C4A32056  -4.780   6.906  17.800
 1677POPC   C1B32057  -5.216   6.687  18.202
 1677POPC   C2B32058  -5.041   6.717  18.110
 1677POPC   C3B32059  -4.867   6.747  18.017
 1677POPC   C4B32060  -4.692   6.777  17.925
 1678POPC   NC332061  24.379  18.536   3.447
 1678POPC   PO432062  24.218  18.438   3.513
 1678POPC   GL132063  24.057  18.340   3.579
 1678POPC   GL232064  24.111  18.256   3.587
 1678POPC   C1A32065  23.896  18.242   3.645
 1678POPC   D2A32066  23.734  18.143   3.712
 1678POPC   C3A32067  23.573  18.045   3.778
 1678POPC   C4A32068  23.412  17.947   3.844
 1678POPC   C1B32069  23.943  18.291   3.833
 1678POPC   C2B32070  23.782  18.193   3.900
 1678POPC   C3B32071  23.621  18.094   3.966
 1678POPC   C4B32072  23.459  17.996   4.032
 1679POPC   NC332073  14.209  -2.071  -2.756
 1679POPC   PO432074  14.159  -1.937  -2.616
 1679POPC   GL132075  14.109  -1.803  -2.476
 1679POPC   GL232076  14.168  -1.735  -2.521
 1679POPC   C1A32077  14.059  -1.668  -2.337
 1679POPC   D2A32078  14.009  -1.534  -2.197
 1679POPC   C3A32079  13.959  -1.399  -2.058
 1679POPC   C4A32080  13.909  -1.265  -1.918
 1679POPC   C1B32081  13.905  -1.609  -2.449
 1679POPC   C2B32082  13.855  -1.474  -2.310
 1679POPC   C3B32083  13.805  -1.340  -2.170
 1679POPC   C4B32084  13.755  -1.205  -2.031
 1680POPC   NC332085  18.530  15.929  24.555
 1680POPC   PO432086  18.424  15.865  24.398
 1680POPC   GL132087  18.318  15.801  24.241
 1680POPC   GL232088  18.327  15.891  24.198
 1680POPC   C1A32089  18.212  15.737  24.084
 1680POPC   D2A32090  18.106  15.672  23.927
 1680POPC   C3A32091  18.000  15.608  23.770
 1680POPC   C4A32092  17.894  15.544  23.613
 1680POPC   C1B32093  18.381  15.677  23.995
 1680POPC   C2B32094  18.275  15.613  23.838
 1680POPC   C3B32095  18.169  15.548  23.681
 1680POPC   C4B32096  18.063  15.484  23.524
 1681POPC   NC332097  -2.617  22.669  13.205
 1681POPC   PO432098  -2.476  22.533  13.167
 1681POPC   GL132099  -2.335  22.397  13.129
 1681POPC   GL232100  -2.265  22.458  13.166
 1681POPC   C1A32101  -2.194  22.260  13.090
 1681POPC   D2A32102  -2.052  22.124  13.052
 1681POPC   C3A32103  -1.911  21.987  13.013
 1681POPC   C4A32104  -1.770  21.851  12.975
 1681POPC   C1B32105  -2.221  22.181  13.272
 1681POPC   C2B32106  -2.080  22.044  13.233
 1681POPC   C3B32107  -1.939  21.908  13.195
 1681POPC   C4B32108  -1.798  21.771  13.156
 1682POPC   NC332109  16.689  17.827  24.692
 1682POPC   PO432110  16.616  17.740  24.528
 1682POPC   GL132111  16.543  17.653  24.364
 1682POPC   GL232112  16.542  17.741  24.317
 1682POPC   C1A32113  16.470  17.566  24.199
 1682POPC   D2A32114  16.396  17.478  24.035
 1682POPC   C3A32115  16.323  17.391  23.870
 1682POPC   C4A32116  16.250  17.304  23.706
 1682POPC   C1B32117  16.656  17.533  24.134
 1682POPC   C2B32118  16.582  17.446  23.969
 1682POPC   C3B32119  16.509  17.358  23.805
 1682POPC   C4B32120  16.436  17.271  23.640
 1683POPC   NC332121   7.807  19.138  -5.531
 1683POPC   PO432122   7.828  19.037  -5.360
 1683POPC   GL132123   7.849  18.936  -5.189
 1683POPC   GL232124   7.936  18.899  -5.221
 1683POPC   C1A32125   7.870  18.835  -5.017
 1683POPC   D2A32126   7.892  18.735  -4.846
 1683POPC   C3A32127   7.913  18.634  -4.674
 1683POPC   C4A32128   7.934  18.533  -4.503
 1683POPC   C1B32129   7.967  18.991  -4.937
 1683POPC   C2B32130   7.988  18.891  -4.766
 1683POPC   C3B32131   8.009  18.790  -4.595
 1683POPC   C4B32132   8.030  18.689  -4.423
 1684POPC   NC332133  -2.604  23.030  10.897
 1684POPC   PO432134  -2.466  22.885  10.891
 1684POPC   GL132135  -2.328  22.740  10.885
 1684POPC   GL232136  -2.286  22.777  10.968
 1684POPC   C1A32137  -2.190  22.595  10.879
 1684POPC   D2A32138  -2.053  22.451  10.874
 1684POPC   C3A32139  -1.915  22.306  10.868
 1684POPC   C4A32140  -1.777  22.161  10.862
 1684POPC   C1B32141  -2.308  22.479  10.992
 1684POPC   C2B32142  -2.170  22.334  10.986
 1684POPC   C3B32143  -2.032  22.190  10.981
 1684POPC   C4B32144  -1.894  22.045  10.975
 1685POPC   NC332145  18.451  -2.754   0.430
 1685POPC   PO432146  18.355  -2.613   0.535
 1685POPC   GL132147  18.259  -2.472   0.640
 1685POPC   GL232148  18.346  -2.443   0.680
 1685POPC   C1A32149  18.163  -2.332   0.745
 1685POPC   D2A32150  18.068  -2.191   0.851
 1685POPC   C3A32151  17.972  -2.051   0.956
 1685POPC   C4A32152  17.876  -1.910   1.061
 1685POPC   C1B32153  18.188  -2.202   0.595
 1685POPC   C2B32154  18.093  -2.062   0.700
 1685POPC   C3B32155  17.997  -1.921   0.806
 1685POPC   C4B32156  17.901  -1.780   0.911
 1686POPC   NC332157  27.137   9.534   4.802
 1686POPC   PO432158  26.944   9.539   4.856
 1686POPC   GL132159  26.751   9.544   4.910
 1686POPC   GL232160  26.737   9.455   4.867
 1686POPC   C1A32161  26.559   9.549   4.964
 1686POPC   D2A32162  26.366   9.553   5.018
 1686POPC   C3A32163  26.174   9.558   5.072
 1686POPC   C4A32164  25.981   9.563   5.126
 1686POPC   C1B32165  26.605   9.458   5.136
 1686POPC   C2B32166  26.412   9.462   5.190
 1686POPC   C3B32167  26.220   9.467   5.244
 1686POPC   C4B32168  26.027   9.472   5.298
 1687POPC   NC332169  -0.321   9.598  24.917
 1687POPC   PO432170  -0.205   9.600  24.754
 1687POPC   GL132171  -0.089   9.602  24.591
 1687POPC   GL232172  -0.016   9.646  24.644
 1687POPC   C1A32173   0.027   9.604  24.428
 1687POPC   D2A32174   0.144   9.605  24.266
 1687POPC   C3A32175   0.260   9.607  24.103
 1687POPC   C4A32176   0.376   9.609  23.940
 1687POPC   C1B32177   0.101   9.425  24.479
 1687POPC   C2B32178   0.217   9.427  24.316
 1687POPC   C3B32179   0.333   9.428  24.154
 1687POPC   C4B32180   0.450   9.430  23.991
 1688POPC   NC332181   3.631   8.121  -6.927
 1688POPC   PO432182   3.700   8.140  -6.740
 1688POPC   GL132183   3.769   8.159  -6.553
 1688POPC   GL232184   3.737   8.067  -6.532
 1688POPC   C1A32185   3.837   8.178  -6.366
 1688POPC   D2A32186   3.906   8.198  -6.179
 1688POPC   C3A32187   3.974   8.217  -5.992
 1688POPC   C4A32188   4.043   8.236  -5.805
 1688POPC   C1B32189   4.014   8.105  -6.423
 1688POPC   C2B32190   4.083   8.124  -6.236
 1688POPC   C3B32191   4.151   8.143  -6.049
 1688POPC   C4B32192   4.220   8.163  -5.862
 1689POPC   NC332193  -3.233  22.424   9.453
 1689POPC   PO432194  -3.091  22.283   9.458
 1689POPC   GL132195  -2.949  22.142   9.463
 1689POPC   GL232196  -2.910  22.184   9.545
 1689POPC   C1A32197  -2.807  22.002   9.468
 1689POPC   D2A32198  -2.664  21.861   9.472
 1689POPC   C3A32199  -2.522  21.721   9.477
 1689POPC   C4A32200  -2.380  21.580   9.482
 1689POPC   C1B32201  -2.924  21.887   9.581
 1689POPC   C2B32202  -2.782  21.746   9.586
 1689POPC   C3B32203  -2.640  21.605   9.591
 1689POPC   C4B32204  -2.498  21.465   9.595
 1690POPC   NC332205   9.947  27.610   6.046
 1690POPC   PO432206   9.944  27.414   6.088
 1690POPC   GL132207   9.941  27.218   6.130
 1690POPC   GL232208   9.946  27.239   6.227
 1690POPC   C1A32209   9.938  27.023   6.172
 1690POPC   D2A32210   9.934  26.827   6.213
 1690POPC   C3A32211   9.931  26.632   6.255
 1690POPC   C4A32212   9.928  26.436   6.297
 1690POPC   C1B32213   9.738  27.028   6.181
 1690POPC   C2B32214   9.735  26.832   6.222
 1690POPC   C3B32215   9.731  26.637   6.264
 1690POPC   C4B32216   9.728  26.441   6.306
 1691POPC   NC332217   2.339  20.465  22.573
 1691POPC   PO432218   2.422  20.349  22.433
 1691POPC   GL132219   2.505  20.233  22.293
 1691POPC   GL232220   2.544  20.175  22.364
 1691POPC   C1A32221   2.588  20.117  22.153
 1691POPC   D2A32222   2.670  20.000  22.012
 1691POPC   C3A32223   2.753  19.884  21.872
 1691POPC   C4A32224   2.836  19.768  21.732
 1691POPC   C1B32225   2.423  20.003  22.150
 1691POPC   C2B32226   2.506  19.887  22.010
 1691POPC   C3B32227   2.589  19.770  21.869
 1691POPC   C4B32228   2.672  19.654  21.729
 1692POPC   NC332229  14.148  14.597  -6.973
 1692POPC   PO432230  14.102  14.544  -6.786
 1692POPC   GL132231  14.056  14.491  -6.599
 1692POPC   GL232232  13.968  14.455  -6.630
 1692POPC   C1A32233  14.010  14.439  -6.411
 1692POPC   D2A32234  13.965  14.386  -6.224
 1692POPC   C3A32235  13.919  14.334  -6.036
 1692POPC   C4A32236  13.873  14.281  -5.849
 1692POPC   C1B32237  14.095  14.260  -6.441
 1692POPC   C2B32238  14.049  14.207  -6.254
 1692POPC   C3B32239  14.003  14.155  -6.066
 1692POPC   C4B32240  13.957  14.102  -5.879
 1693POPC   NC332241   6.081  -6.617  16.004
 1693POPC   PO432242   6.121  -6.433  15.936
 1693POPC   GL132243   6.161  -6.249  15.868
 1693POPC   GL232244   6.247  -6.282  15.830
 1693POPC   C1A32245   6.201  -6.065  15.800
 1693POPC   D2A32246   6.241  -5.882  15.732
 1693POPC   C3A32247   6.281  -5.698  15.664
 1693POPC   C4A32248   6.321  -5.514  15.596
 1693POPC   C1B32249   6.108  -6.109  15.628
 1693POPC   C2B32250   6.148  -5.925  15.560
 1693POPC   C3B32251   6.188  -5.741  15.492
 1693POPC   C4B32252   6.228  -5.557  15.424
 1694POPC   NC332253  20.110  -3.351   3.330
 1694POPC   PO432254  19.998  -3.202   3.402
 1694POPC   GL132255  19.886  -3.053   3.474
 1694POPC   GL232256  19.950  -2.986   3.435
 1694POPC   C1A32257  19.775  -2.903   3.546
 1694POPC   D2A32258  19.663  -2.754   3.619
 1694POPC   C3A32259  19.552  -2.604   3.691
 1694POPC   C4A32260  19.440  -2.455   3.763
 1694POPC   C1B32261  19.668  -2.901   3.377
 1694POPC   C2B32262  19.557  -2.752   3.449
 1694POPC   C3B32263  19.445  -2.602   3.521
 1694POPC   C4B32264  19.334  -2.453   3.594
 1695POPC   NC332265  27.122  11.292   4.839
 1695POPC   PO432266  26.930  11.282   4.894
 1695POPC   GL132267  26.738  11.272   4.949
 1695POPC   GL232268  26.734  11.178   4.916
 1695POPC   C1A32269  26.546  11.262   5.005
 1695POPC   D2A32270  26.354  11.251   5.060
 1695POPC   C3A32271  26.162  11.241   5.116
 1695POPC   C4A32272  25.970  11.231   5.171
 1695POPC   C1B32273  26.602  11.196   5.185
 1695POPC   C2B32274  26.410  11.186   5.241
 1695POPC   C3B32275  26.218  11.175   5.296
 1695POPC   C4B32276  26.026  11.165   5.352
 1696POPC   NC332277  21.125  -2.921  15.606
 1696POPC   PO432278  21.002  -2.777  15.543
 1696POPC   GL132279  20.879  -2.633  15.480
 1696POPC   GL232280  20.845  -2.693  15.408
 1696POPC   C1A32281  20.756  -2.488  15.417
 1696POPC   D2A32282  20.632  -2.344  15.354
 1696POPC   C3A32283  20.509  -2.199  15.291
 1696POPC   C4A32284  20.386  -2.055  15.228
 1696POPC   C1B32285  20.613  -2.556  15.540
 1696POPC   C2B32286  20.490  -2.412  15.477
 1696POPC   C3B32287  20.367  -2.268  15.414
 1696POPC   C4B32288  20.243  -2.123  15.351
 1697POPC   NC332289  13.429  21.944  22.976
 1697POPC   PO432290  13.393  21.808  22.834
 1697POPC   GL132291  13.357  21.672  22.692
 1697POPC   GL232292  13.437  21.620  22.721
 1697POPC   C1A32293  13.321  21.536  22.550
 1697POPC   D2A32294  13.285  21.401  22.407
 1697POPC   C3A32295  13.249  21.265  22.265
 1697POPC   C4A32296  13.213  21.129  22.123
 1697POPC   C1B32297  13.207  21.433  22.677
 1697POPC   C2B32298  13.171  21.297  22.535
 1697POPC   C3B32299  13.135  21.161  22.393
 1697POPC   C4B32300  13.099  21.025  22.251
 1698POPC   NC332301  23.110  -1.663   6.098
 1698POPC   PO432302  22.962  -1.535   6.139
 1698POPC   GL132303  22.814  -1.407   6.180
 1698POPC   GL232304  22.795  -1.397   6.083
 1698POPC   C1A32305  22.666  -1.279   6.222
 1698POPC   D2A32306  22.517  -1.152   6.263
 1698POPC   C3A32307  22.369  -1.024   6.305
 1698POPC   C4A32308  22.221  -0.896   6.346
 1698POPC   C1B32309  22.536  -1.432   6.230
 1698POPC   C2B32310  22.388  -1.304   6.271
 1698POPC   C3B32311  22.240  -1.176   6.313
 1698POPC   C4B32312  22.092  -1.048   6.354
 1699POPC   NC332313  -2.936  12.433  22.417
 1699POPC   PO432314  -2.793  12.406  22.279
 1699POPC   GL132315  -2.650  12.379  22.141
 1699POPC   GL232316  -2.641  12.284  22.169
 1699POPC   C1A32317  -2.507  12.353  22.004
 1699POPC   D2A32318  -2.365  12.326  21.866
 1699POPC   C3A32319  -2.222  12.300  21.729
 1699POPC   C4A32320  -2.079  12.273  21.591
 1699POPC   C1B32321  -2.646  12.301  21.870
 1699POPC   C2B32322  -2.504  12.274  21.732
 1699POPC   C3B32323  -2.361  12.248  21.594
 1699POPC   C4B32324  -2.218  12.221  21.457
 1700POPC   NC332325  17.394  14.704  -5.826
 1700POPC   PO432326  17.310  14.651  -5.652
 1700POPC   GL132327  17.226  14.598  -5.478
 1700POPC   GL232328  17.300  14.532  -5.463
 1700POPC   C1A32329  17.142  14.545  -5.304
 1700POPC   D2A32330  17.059  14.492  -5.131
 1700POPC   C3A32331  16.975  14.439  -4.957
 1700POPC   C4A32332  16.891  14.386  -4.783
 1700POPC   C1B32333  17.249  14.686  -5.210
 1700POPC   C2B32334  17.165  14.633  -5.036
 1700POPC   C3B32335  17.081  14.580  -4.862
 1700POPC   C4B32336  16.998  14.527  -4.689
 1701POPC   NC332337  15.878  22.359  21.650
 1701POPC   PO432338  15.814  22.219  21.522
 1701POPC   GL132339  15.750  22.079  21.394
 1701POPC   GL232340  15.839  22.080  21.349
 1701POPC   C1A32341  15.686  21.939  21.266
 1701POPC   D2A32342  15.623  21.800  21.138
 1701POPC   C3A32343  15.559  21.660  21.010
 1701POPC   C4A32344  15.495  21.520  20.882
 1701POPC   C1B32345  15.750  21.796  21.391
 1701POPC   C2B32346  15.686  21.657  21.263
 1701POPC   C3B32347  15.622  21.517  21.135
 1701POPC   C4B32348  15.558  21.377  21.007
 1702POPC   NC332349   0.376  21.405  -0.375
 1702POPC   PO432350   0.481  21.275  -0.266
 1702POPC   GL132351   0.586  21.145  -0.157
 1702POPC   GL232352   0.669  21.168  -0.208
 1702POPC   C1A32353   0.691  21.014  -0.048
 1702POPC   D2A32354   0.797  20.884   0.062
 1702POPC   C3A32355   0.902  20.753   0.171
 1702POPC   C4A32356   1.007  20.623   0.280
 1702POPC   C1B32357   0.733  21.158   0.084
 1702POPC   C2B32358   0.838  21.028   0.194
 1702POPC   C3B32359   0.943  20.898   0.303
 1702POPC   C4B32360   1.049  20.767   0.412
 1703POPC   NC332361  11.535  20.041  -4.955
 1703POPC   PO432362  11.516  19.928  -4.791
 1703POPC   GL132363  11.497  19.815  -4.627
 1703POPC   GL232364  11.585  19.849  -4.593
 1703POPC   C1A32365  11.478  19.702  -4.463
 1703POPC   D2A32366  11.459  19.590  -4.299
 1703POPC   C3A32367  11.440  19.477  -4.135
 1703POPC   C4A32368  11.421  19.364  -3.971
 1703POPC   C1B32369  11.384  19.853  -4.371
 1703POPC   C2B32370  11.365  19.740  -4.207
 1703POPC   C3B32371  11.346  19.627  -4.043
 1703POPC   C4B32372  11.327  19.514  -3.879
 1704POPC   NC332373  18.611  12.094  25.611
 1704POPC   PO432374  18.510  12.066  25.441
 1704POPC   GL132375  18.409  12.038  25.271
 1704POPC   GL232376  18.453  11.949  25.259
 1704POPC   C1A32377  18.308  12.009  25.100
 1704POPC   D2A32378  18.207  11.981  24.930
 1704POPC   C3A32379  18.106  11.952  24.759
 1704POPC   C4A32380  18.005  11.924  24.589
 1704POPC   C1B32381  18.160  11.922  25.202
 1704POPC   C2B32382  18.059  11.893  25.032
 1704POPC   C3B32383  17.958  11.865  24.862
 1704POPC   C4B32384  17.857  11.837  24.691
 1705POPC   NC332385  -5.786  12.890   1.343
 1705POPC   PO432386  -5.609  12.856   1.431
 1705POPC   GL132387  -5.432  12.822   1.519
 1705POPC   GL232388  -5.478  12.767   1.588
 1705POPC   C1A32389  -5.256  12.788   1.607
 1705POPC   D2A32390  -5.079  12.755   1.694
 1705POPC   C3A32391  -4.903  12.721   1.782
 1705POPC   C4A32392  -4.726  12.687   1.870
 1705POPC   C1B32393  -5.231  12.626   1.493
 1705POPC   C2B32394  -5.054  12.592   1.581
 1705POPC   C3B32395  -4.877  12.558   1.669
 1705POPC   C4B32396  -4.701  12.524   1.756
 1706POPC   NC332397  18.942   5.605  -5.000
 1706POPC   PO432398  18.844   5.650  -4.832
 1706POPC   GL132399  18.746   5.695  -4.664
 1706POPC   GL232400  18.672   5.632  -4.690
 1706POPC   C1A32401  18.648   5.741  -4.496
 1706POPC   D2A32402  18.549   5.786  -4.327
 1706POPC   C3A32403  18.451   5.832  -4.159
 1706POPC   C4A32404  18.353   5.877  -3.991
 1706POPC   C1B32405  18.742   5.592  -4.401
 1706POPC   C2B32406  18.644   5.638  -4.232
 1706POPC   C3B32407  18.545   5.683  -4.064
 1706POPC   C4B32408  18.447   5.728  -3.896
 1707POPC   NC332409  27.180  11.736  14.594
 1707POPC   PO432410  26.988  11.714  14.542
 1707POPC   GL132411  26.796  11.692  14.490
 1707POPC   GL232412  26.813  11.742  14.406
 1707POPC   C1A32413  26.604  11.669  14.438
 1707POPC   D2A32414  26.413  11.647  14.387
 1707POPC   C3A32415  26.221  11.624  14.335
 1707POPC   C4A32416  26.029  11.602  14.283
 1707POPC   C1B32417  26.649  11.498  14.345
 1707POPC   C2B32418  26.458  11.476  14.293
 1707POPC   C3B32419  26.266  11.453  14.241
 1707POPC   C4B32420  26.074  11.431  14.190
 1708POPC   NC332421  18.268  -5.751  12.575
 1708POPC   PO432422  18.174  -5.577  12.546
 1708POPC   GL132423  18.080  -5.403  12.517
 1708POPC   GL232424  18.168  -5.359  12.496
 1708POPC   C1A32425  17.986  -5.229  12.488
 1708POPC   D2A32426  17.893  -5.054  12.458
 1708POPC   C3A32427  17.799  -4.880  12.429
 1708POPC   C4A32428  17.705  -4.706  12.400
 1708POPC   C1B32429  17.963  -5.274  12.294
 1708POPC   C2B32430  17.869  -5.099  12.265
 1708POPC   C3B32431  17.775  -4.925  12.236
 1708POPC   C4B32432  17.682  -4.751  12.207
 1709POPC   NC332433  23.480  16.227  -0.177
 1709POPC   PO432434  23.327  16.159  -0.067
 1709POPC   GL132435  23.174  16.091   0.043
 1709POPC   GL232436  23.110  16.125  -0.026
 1709POPC   C1A32437  23.021  16.023   0.152
 1709POPC   D2A32438  22.868  15.956   0.262
 1709POPC   C3A32439  22.715  15.888   0.371
 1709POPC   C4A32440  22.562  15.820   0.481
 1709POPC   C1B32441  23.031  15.847   0.058
 1709POPC   C2B32442  22.878  15.780   0.167
 1709POPC   C3B32443  22.725  15.712   0.277
 1709POPC   C4B32444  22.572  15.644   0.386
 1710POPC   NC332445  -1.465  -0.376   0.386
 1710POPC   PO432446  -1.344  -0.262   0.498
 1710POPC   GL132447  -1.223  -0.148   0.610
 1710POPC   GL232448  -1.175  -0.230   0.641
 1710POPC   C1A32449  -1.102  -0.035   0.722
 1710POPC   D2A32450  -0.982   0.079   0.833
 1710POPC   C3A32451  -0.861   0.192   0.945
 1710POPC   C4A32452  -0.740   0.306   1.057
 1710POPC   C1B32453  -0.976  -0.018   0.568
 1710POPC   C2B32454  -0.855   0.095   0.680
 1710POPC   C3B32455  -0.734   0.209   0.791
 1710POPC   C4B32456  -0.613   0.323   0.903
 1711POPC   NC332457  18.690  -2.834   0.765
 1711POPC   PO432458  18.591  -2.692   0.865
 1711POPC   GL132459  18.492  -2.550   0.965
 1711POPC   GL232460  18.578  -2.499   0.978
 1711POPC   C1A32461  18.394  -2.408   1.065
 1711POPC   D2A32462  18.295  -2.265   1.166
 1711POPC   C3A32463  18.197  -2.123   1.266
 1711POPC   C4A32464  18.098  -1.981   1.366
 1711POPC   C1B32465  18.361  -2.310   0.894
 1711POPC   C2B32466  18.262  -2.168   0.994
 1711POPC   C3B32467  18.164  -2.025   1.095
 1711POPC   C4B32468  18.065  -1.883   1.195
 1712POPC   NC332469  23.048  13.733  21.615
 1712POPC   PO432470  22.907  13.689  21.480
 1712POPC   GL132471  22.766  13.645  21.345
 1712POPC   GL232472  22.813  13.702  21.277
 1712POPC   C1A32473  22.626  13.601  21.210
 1712POPC   D2A32474  22.485  13.556  21.074
 1712POPC   C3A32475  22.345  13.512  20.939
 1712POPC   C4A32476  22.204  13.468  20.804
 1712POPC   C1B32477  22.733  13.442  21.150
 1712POPC   C2B32478  22.592  13.398  21.015
 1712POPC   C3B32479  22.452  13.354  20.880
 1712POPC   C4B32480  22.311  13.310  20.745
 1713POPC   NC332481  21.882  -3.243  12.492
 1713POPC   PO432482  21.749  -3.096  12.463
 1713POPC   GL132483  21.616  -2.949  12.434
 1713POPC   GL232484  21.620  -2.966  12.336
 1713POPC   C1A32485  21.483  -2.802  12.405
 1713POPC   D2A32486  21.351  -2.656  12.377
 1713POPC   C3A32487  21.218  -2.509  12.348
 1713POPC   C4A32488  21.085  -2.362  12.319
 1713POPC   C1B32489  21.334  -2.934  12.422
 1713POPC   C2B32490  21.201  -2.787  12.393
 1713POPC   C3B32491  21.068  -2.641  12.365
 1713POPC   C4B32492  20.936  -2.494  12.336
 1714POPC   NC332493   5.479  24.259  20.095
 1714POPC   PO432494   5.528  24.105  19.978
 1714POPC   GL132495   5.577  23.951  19.861
 1714POPC   GL232496   5.664  23.940  19.910
 1714POPC   C1A32497   5.627  23.797  19.743
 1714POPC   D2A32498   5.676  23.642  19.626
 1714POPC   C3A32499   5.726  23.488  19.508
 1714POPC   C4A32500   5.775  23.334  19.391
 1714POPC   C1B32501   5.538  23.671  19.871
 1714POPC   C2B32502   5.587  23.517  19.753
 1714POPC   C3B32503   5.636  23.362  19.636
 1714POPC   C4B32504   5.686  23.208  19.518
 1715POPC   NC332505  17.386  24.613   2.509
 1715POPC   PO432506  17.305  24.451   2.593
 1715POPC   GL132507  17.224  24.289   2.677
 1715POPC   GL232508  17.309  24.272   2.727
 1715POPC   C1A32509  17.142  24.127   2.761
 1715POPC   D2A32510  17.061  23.964   2.846
 1715POPC   C3A32511  16.979  23.802   2.930
 1715POPC   C4A32512  16.898  23.640   3.014
 1715POPC   C1B32513  17.075  24.239   2.913
 1715POPC   C2B32514  16.994  24.077   2.997
 1715POPC   C3B32515  16.912  23.914   3.081
 1715POPC   C4B32516  16.831  23.752   3.165
 1716POPC   NC332517  13.694  -3.715  20.940
 1716POPC   PO432518  13.656  -3.565  20.813
 1716POPC   GL132519  13.618  -3.415  20.686
 1716POPC   GL232520  13.694  -3.363  20.725
 1716POPC   C1A32521  13.581  -3.266  20.559
 1716POPC   D2A32522  13.543  -3.116  20.431
 1716POPC   C3A32523  13.506  -2.967  20.304
 1716POPC   C4A32524  13.468  -2.817  20.177
 1716POPC   C1B32525  13.707  -3.346  20.426
 1716POPC   C2B32526  13.670  -3.197  20.299
 1716POPC   C3B32527  13.632  -3.047  20.172
 1716POPC   C4B32528  13.594  -2.898  20.045
 1717POPC   NC332529   1.985  -2.901  19.854
 1717POPC   PO432530   2.072  -2.758  19.745
 1717POPC   GL132531   2.159  -2.615  19.636
 1717POPC   GL232532   2.221  -2.683  19.597
 1717POPC   C1A32533   2.246  -2.472  19.527
 1717POPC   D2A32534   2.334  -2.328  19.418
 1717POPC   C3A32535   2.421  -2.185  19.309
 1717POPC   C4A32536   2.508  -2.042  19.200
 1717POPC   C1B32537   2.116  -2.505  19.379
 1717POPC   C2B32538   2.203  -2.362  19.270
 1717POPC   C3B32539   2.290  -2.218  19.161
 1717POPC   C4B32540   2.378  -2.075  19.052
 1718POPC   NC332541  12.409  -7.872  10.932
 1718POPC   PO432542  12.385  -7.674  10.919
 1718POPC   GL132543  12.361  -7.476  10.906
 1718POPC   GL232544  12.384  -7.479  10.809
 1718POPC   C1A32545  12.338  -7.278  10.893
 1718POPC   D2A32546  12.314  -7.079  10.880
 1718POPC   C3A32547  12.291  -6.881  10.867
 1718POPC   C4A32548  12.267  -6.683  10.854
 1718POPC   C1B32549  12.144  -7.303  10.849
 1718POPC   C2B32550  12.121  -7.105  10.836
 1718POPC   C3B32551  12.097  -6.907  10.823
 1718POPC   C4B32552  12.074  -6.709  10.810
 1719POPC   NC332553  24.604   6.710   0.003
 1719POPC   PO432554  24.441   6.743   0.114
 1719POPC   GL132555  24.278   6.776   0.225
 1719POPC   GL232556  24.220   6.749   0.148
 1719POPC   C1A32557  24.114   6.809   0.335
 1719POPC   D2A32558  23.951   6.841   0.446
 1719POPC   C3A32559  23.787   6.874   0.556
 1719POPC   C4A32560  23.624   6.907   0.667
 1719POPC   C1B32561  24.119   6.619   0.399
 1719POPC   C2B32562  23.955   6.652   0.509
 1719POPC   C3B32563  23.792   6.685   0.620
 1719POPC   C4B32564  23.629   6.717   0.730
 1720POPC   NC332565  14.631  19.537  24.490
 1720POPC   PO432566  14.579  19.434  24.327
 1720POPC   GL132567  14.527  19.331  24.164
 1720POPC   GL232568  14.618  19.288  24.162
 1720POPC   C1A32569  14.475  19.228  24.000
 1720POPC   D2A32570  14.424  19.124  23.837
 1720POPC   C3A32571  14.372  19.021  23.673
 1720POPC   C4A32572  14.320  18.918  23.510
 1720POPC   C1B32573  14.407  19.079  24.116
 1720POPC   C2B32574  14.355  18.976  23.952
 1720POPC   C3B32575  14.303  18.873  23.789
 1720POPC   C4B32576  14.252  18.770  23.625
 1721POPC   NC332577  -0.183  23.509   3.665
 1721POPC   PO432578  -0.073  23.357   3.734
 1721POPC   GL132579   0.037  23.205   3.803
 1721POPC   GL232580   0.121  23.256   3.781
 1721POPC   C1A32581   0.148  23.053   3.872
 1721POPC   D2A32582   0.258  22.902   3.942
 1721POPC   C3A32583   0.369  22.750   4.011
 1721POPC   C4A32584   0.479  22.598   4.080
 1721POPC   C1B32585   0.146  23.135   4.055
 1721POPC   C2B32586   0.257  22.984   4.124
 1721POPC   C3B32587   0.367  22.832   4.193
 1721POPC   C4B32588   0.477  22.680   4.262
 1722POPC   NC332589  17.389  23.548   0.744
 1722POPC   PO432590  17.303  23.399   0.846
 1722POPC   GL132591  17.217  23.250   0.948
 1722POPC   GL232592  17.159  23.230   0.870
 1722POPC   C1A32593  17.131  23.101   1.050
 1722POPC   D2A32594  17.046  22.952   1.153
 1722POPC   C3A32595  16.960  22.803   1.255
 1722POPC   C4A32596  16.874  22.654   1.357
 1722POPC   C1B32597  17.269  22.974   0.980
 1722POPC   C2B32598  17.183  22.825   1.083
 1722POPC   C3B32599  17.097  22.676   1.185
 1722POPC   C4B32600  17.012  22.527   1.287
 1723POPC   NC332601   3.900  26.874  12.321
 1723POPC   PO432602   3.970  26.689  12.292
 1723POPC   GL132603   4.040  26.504  12.263
 1723POPC   GL232604   4.019  26.481  12.359
 1723POPC   C1A32605   4.109  26.318  12.234
 1723POPC   D2A32606   4.179  26.133  12.206
 1723POPC   C3A32607   4.248  25.947  12.177
 1723POPC   C4A32608   4.318  25.762  12.148
 1723POPC   C1B32609   3.926  26.258  12.182
 1723POPC   C2B32610   3.996  26.072  12.153
 1723POPC   C3B32611   4.065  25.887  12.124
 1723POPC   C4B32612   4.135  25.701  12.095
 1724POPC   NC332613   4.982  18.270  -5.365
 1724POPC   PO432614   5.037  18.183  -5.194
 1724POPC   GL132615   5.092  18.096  -5.023
 1724POPC   GL232616   5.092  18.185  -4.977
 1724POPC   C1A32617   5.147  18.009  -4.851
 1724POPC   D2A32618   5.203  17.923  -4.680
 1724POPC   C3A32619   5.258  17.836  -4.508
 1724POPC   C4A32620   5.313  17.749  -4.337
 1724POPC   C1B32621   4.955  17.985  -4.802
 1724POPC   C2B32622   5.010  17.898  -4.630
 1724POPC   C3B32623   5.066  17.811  -4.459
 1724POPC   C4B32624   5.121  17.725  -4.287
 1725POPC   NC332625  23.428  21.590  12.415
 1725POPC   PO432626  23.279  21.461  12.383
 1725POPC   GL132627  23.130  21.332  12.351
 1725POPC   GL232628  23.177  21.264  12.407
 1725POPC   C1A32629  22.980  21.203  12.319
 1725POPC   D2A32630  22.831  21.074  12.287
 1725POPC   C3A32631  22.681  20.945  12.255
 1725POPC   C4A32632  22.532  20.816  12.223
 1725POPC   C1B32633  22.886  21.272  12.482
 1725POPC   C2B32634  22.737  21.143  12.450
 1725POPC   C3B32635  22.587  21.014  12.418
 1725POPC   C4B32636  22.438  20.885  12.386
 1726POPC   NC332637  14.976  -4.258  19.788
 1726POPC   PO432638  14.921  -4.102  19.675
 1726POPC   GL132639  14.866  -3.946  19.562
 1726POPC   GL232640  14.944  -3.894  19.597
 1726POPC   C1A32641  14.812  -3.790  19.450
 1726POPC   D2A32642  14.757  -3.634  19.337
 1726POPC   C3A32643  14.703  -3.478  19.225
 1726POPC   C4A32644  14.648  -3.322  19.112
 1726POPC   C1B32645  14.925  -3.859  19.300
 1726POPC   C2B32646  14.871  -3.703  19.187
 1726POPC   C3B32647  14.816  -3.547  19.075
 1726POPC   C4B32648  14.761  -3.391  18.962
 1727POPC   NC332649   7.344  -3.308  21.904
 1727POPC   PO432650   7.373  -3.162  21.771
 1727POPC   GL132651   7.402  -3.016  21.638
 1727POPC   GL232652   7.442  -2.958  21.709
 1727POPC   C1A32653   7.431  -2.869  21.505
 1727POPC   D2A32654   7.459  -2.723  21.371
 1727POPC   C3A32655   7.488  -2.576  21.238
 1727POPC   C4A32656   7.517  -2.430  21.105
 1727POPC   C1B32657   7.611  -2.943  21.462
 1727POPC   C2B32658   7.640  -2.797  21.329
 1727POPC   C3B32659   7.669  -2.651  21.195
 1727POPC   C4B32660   7.698  -2.504  21.062
 1728POPC   NC332661   3.059   2.175  24.771
 1728POPC   PO432662   3.138   2.260  24.608
 1728POPC   GL132663   3.217   2.345  24.445
 1728POPC   GL232664   3.217   2.434  24.491
 1728POPC   C1A32665   3.295   2.430  24.282
 1728POPC   D2A32666   3.374   2.514  24.118
 1728POPC   C3A32667   3.452   2.599  23.955
 1728POPC   C4A32668   3.531   2.684  23.792
 1728POPC   C1B32669   3.479   2.393  24.351
 1728POPC   C2B32670   3.558   2.478  24.188
 1728POPC   C3B32671   3.636   2.563  24.025
 1728POPC   C4B32672   3.715   2.648  23.862
 1729POPC   NC332673   0.915  24.277   3.700
 1729POPC   PO432674   1.017  24.119   3.769
 1729POPC   GL132675   1.119  23.961   3.838
 1729POPC   GL232676   1.203  24.015   3.836
 1729POPC   C1A32677   1.221  23.803   3.907
 1729POPC   D2A32678   1.322  23.645   3.975
 1729POPC   C3A32679   1.424  23.487   4.044
 1729POPC   C4A32680   1.526  23.329   4.113
 1729POPC   C1B32681   1.187  23.863   4.094
 1729POPC   C2B32682   1.289  23.705   4.163
 1729POPC   C3B32683   1.390  23.547   4.232
 1729POPC   C4B32684   1.492  23.389   4.301
 1730POPC   NC332685   7.665   7.808  27.702
 1730POPC   PO432686   7.690   7.831  27.505
 1730POPC   GL132687   7.715   7.854  27.308
 1730POPC   GL232688   7.813   7.840  27.319
 1730POPC   C1A32689   7.740   7.877  27.111
 1730POPC   D2A32690   7.764   7.900  26.913
 1730POPC   C3A32691   7.789   7.923  26.716
 1730POPC   C4A32692   7.814   7.946  26.519
 1730POPC   C1B32693   7.715   7.680  27.085
 1730POPC   C2B32694   7.740   7.703  26.887
 1730POPC   C3B32695   7.765   7.726  26.690
 1730POPC   C4B32696   7.790   7.749  26.493
 1731POPC   NC332697  14.732  -7.255   7.632
 1731POPC   PO432698  14.672  -7.066   7.659
 1731POPC   GL132699  14.612  -6.877   7.686
 1731POPC   GL232700  14.658  -6.875   7.775
 1731POPC   C1A32701  14.551  -6.688   7.713
 1731POPC   D2A32702  14.491  -6.500   7.741
 1731POPC   C3A32703  14.430  -6.311   7.768
 1731POPC   C4A32704  14.370  -6.122   7.795
 1731POPC   C1B32705  14.718  -6.622   7.626
 1731POPC   C2B32706  14.658  -6.433   7.653
 1731POPC   C3B32707  14.597  -6.245   7.680
 1731POPC   C4B32708  14.537  -6.056   7.707
 1732POPC   NC332709   0.700   3.338  -4.109
 1732POPC   PO432710   0.805   3.416  -3.957
 1732POPC   GL132711   0.910   3.494  -3.805
 1732POPC   GL232712   0.827   3.495  -3.749
 1732POPC   C1A32713   1.014   3.571  -3.653
 1732POPC   D2A32714   1.119   3.649  -3.502
 1732POPC   C3A32715   1.223   3.726  -3.350
 1732POPC   C4A32716   1.328   3.804  -3.198
 1732POPC   C1B32717   1.055   3.387  -3.587
 1732POPC   C2B32718   1.159   3.464  -3.435
 1732POPC   C3B32719   1.264   3.542  -3.284
 1732POPC   C4B32720   1.369   3.620  -3.132
 1733POPC   NC332721   6.142  26.528  16.127
 1733POPC   PO432722   6.185  26.345  16.058
 1733POPC   GL132723   6.228  26.162  15.989
 1733POPC   GL232724   6.229  26.127  16.083
 1733POPC   C1A32725   6.272  25.979  15.920
 1733POPC   D2A32726   6.315  25.797  15.852
 1733POPC   C3A32727   6.359  25.614  15.783
 1733POPC   C4A32728   6.402  25.431  15.714
 1733POPC   C1B32729   6.077  25.939  15.906
 1733POPC   C2B32730   6.120  25.756  15.837
 1733POPC   C3B32731   6.163  25.573  15.768
 1733POPC   C4B32732   6.207  25.390  15.699
 1734POPC   NC332733   3.594  24.067  19.353
 1734POPC   PO432734   3.664  23.913  19.246
 1734POPC   GL132735   3.734  23.759  19.139
 1734POPC   GL232736   3.806  23.818  19.102
 1734POPC   C1A32737   3.804  23.606  19.031
 1734POPC   D2A32738   3.874  23.452  18.924
 1734POPC   C3A32739   3.944  23.299  18.816
 1734POPC   C4A32740   4.014  23.145  18.709
 1734POPC   C1B32741   3.923  23.554  19.183
 1734POPC   C2B32742   3.993  23.400  19.076
 1734POPC   C3B32743   4.063  23.246  18.969
 1734POPC   C4B32744   4.133  23.093  18.861
 1735POPC   NC332745  -3.182   4.597  21.183
 1735POPC   PO432746  -3.044   4.661  21.053
 1735POPC   GL132747  -2.906   4.725  20.923
 1735POPC   GL232748  -2.881   4.798  20.986
 1735POPC   C1A32749  -2.769   4.789  20.793
 1735POPC   D2A32750  -2.631   4.854  20.662
 1735POPC   C3A32751  -2.494   4.918  20.532
 1735POPC   C4A32752  -2.356   4.982  20.402
 1735POPC   C1B32753  -2.633   4.669  20.876
 1735POPC   C2B32754  -2.496   4.733  20.746
 1735POPC   C3B32755  -2.358   4.797  20.616
 1735POPC   C4B32756  -2.220   4.861  20.486
 1736POPC   NC332757   1.426  18.032  23.688
 1736POPC   PO432758   1.526  17.946  23.538
 1736POPC   GL132759   1.626  17.860  23.388
 1736POPC   GL232760   1.686  17.814  23.453
 1736POPC   C1A32761   1.725  17.774  23.237
 1736POPC   D2A32762   1.825  17.687  23.087
 1736POPC   C3A32763   1.924  17.601  22.936
 1736POPC   C4A32764   2.024  17.515  22.786
 1736POPC   C1B32765   1.600  17.618  23.244
 1736POPC   C2B32766   1.700  17.531  23.093
 1736POPC   C3B32767   1.799  17.445  22.943
 1736POPC   C4B32768   1.899  17.359  22.793
 1737POPC   NC332769   9.551   0.416  -5.372
 1737POPC   PO432770   9.550   0.520  -5.201
 1737POPC   GL132771   9.549   0.624  -5.030
 1737POPC   GL232772   9.641   0.659  -5.051
 1737POPC   C1A32773   9.548   0.728  -4.860
 1737POPC   D2A32774   9.547   0.833  -4.689
 1737POPC   C3A32775   9.546   0.937  -4.519
 1737POPC   C4A32776   9.545   1.041  -4.348
 1737POPC   C1B32777   9.468   0.885  -4.956
 1737POPC   C2B32778   9.467   0.989  -4.785
 1737POPC   C3B32779   9.466   1.093  -4.614
 1737POPC   C4B32780   9.465   1.197  -4.444
 1738POPC   NC332781  21.673  -3.261  13.242
 1738POPC   PO432782  21.543  -3.114  13.205
 1738POPC   GL132783  21.413  -2.967  13.168
 1738POPC   GL232784  21.387  -3.011  13.082
 1738POPC   C1A32785  21.283  -2.819  13.131
 1738POPC   D2A32786  21.153  -2.672  13.094
 1738POPC   C3A32787  21.023  -2.524  13.057
 1738POPC   C4A32788  20.893  -2.377  13.020
 1738POPC   C1B32789  21.140  -2.921  13.227
 1738POPC   C2B32790  21.010  -2.774  13.190
 1738POPC   C3B32791  20.880  -2.626  13.153
 1738POPC   C4B32792  20.750  -2.479  13.116
 1739POPC   NC332793  26.783   4.387   7.013
 1739POPC   PO432794  26.597   4.451   7.047
 1739POPC   GL132795  26.411   4.515   7.081
 1739POPC   GL232796  26.400   4.535   6.984
 1739POPC   C1A32797  26.224   4.579   7.115
 1739POPC   D2A32798  26.038   4.642   7.149
 1739POPC   C3A32799  25.851   4.706   7.183
 1739POPC   C4A32800  25.665   4.770   7.217
 1739POPC   C1B32801  26.155   4.393   7.084
 1739POPC   C2B32802  25.969   4.457   7.118
 1739POPC   C3B32803  25.782   4.521   7.152
 1739POPC   C4B32804  25.596   4.585   7.186
 1740POPC   NC332805  -8.085  12.196  10.699
 1740POPC   PO432806  -7.887  12.172  10.691
 1740POPC   GL132807  -7.689  12.148  10.683
 1740POPC   GL232808  -7.676  12.233  10.735
 1740POPC   C1A32809  -7.490  12.125  10.676
 1740POPC   D2A32810  -7.292  12.101  10.668
 1740POPC   C3A32811  -7.093  12.078  10.661
 1740POPC   C4A32812  -6.895  12.054  10.653
 1740POPC   C1B32813  -7.496  12.021  10.847
 1740POPC   C2B32814  -7.298  11.998  10.839
 1740POPC   C3B32815  -7.099  11.974  10.832
 1740POPC   C4B32816  -6.901  11.951  10.824
 1741POPC   NC332817  19.632  23.284   2.635
 1741POPC   PO432818  19.522  23.142   2.723
 1741POPC   GL132819  19.412  23.000   2.811
 1741POPC   GL232820  19.369  22.979   2.723
 1741POPC   C1A32821  19.302  22.858   2.899
 1741POPC   D2A32822  19.192  22.716   2.987
 1741POPC   C3A32823  19.082  22.574   3.075
 1741POPC   C4A32824  18.972  22.432   3.163
 1741POPC   C1B32825  19.445  22.724   2.862
 1741POPC   C2B32826  19.335  22.582   2.950
 1741POPC   C3B32827  19.225  22.440   3.038
 1741POPC   C4B32828  19.115  22.298   3.126
 1742POPC   NC332829   6.696  26.887   4.314
 1742POPC   PO432830   6.729  26.700   4.376
 1742POPC   GL132831   6.762  26.513   4.438
 1742POPC   GL232832   6.859  26.522   4.414
 1742POPC   C1A32833   6.795  26.326   4.500
 1742POPC   D2A32834   6.828  26.138   4.562
 1742POPC   C3A32835   6.861  25.951   4.624
 1742POPC   C4A32836   6.894  25.764   4.686
 1742POPC   C1B32837   6.833  26.393   4.684
 1742POPC   C2B32838   6.866  26.206   4.746
 1742POPC   C3B32839   6.899  26.019   4.808
 1742POPC   C4B32840   6.932  25.832   4.870
 1743POPC   NC332841   9.997  22.390  23.055
 1743POPC   PO432842   9.998  22.252  22.911
 1743POPC   GL132843   9.999  22.114  22.767
 1743POPC   GL232844  10.008  22.042  22.836
 1743POPC   C1A32845  10.001  21.975  22.622
 1743POPC   D2A32846  10.002  21.837  22.478
 1743POPC   C3A32847  10.004  21.698  22.333
 1743POPC   C4A32848  10.005  21.560  22.189
 1743POPC   C1B32849   9.801  21.962  22.633
 1743POPC   C2B32850   9.803  21.824  22.488
 1743POPC   C3B32851   9.804  21.685  22.344
 1743POPC   C4B32852   9.806  21.547  22.199
 1744POPC   NC332853  22.697  18.854   0.854
 1744POPC   PO432854  22.558  18.752   0.955
 1744POPC   GL132855  22.419  18.650   1.056
 1744POPC   GL232856  22.370  18.632   0.970
 1744POPC   C1A32857  22.279  18.548   1.157
 1744POPC   D2A32858  22.140  18.446   1.257
 1744POPC   C3A32859  22.000  18.344   1.358
 1744POPC   C4A32860  21.861  18.242   1.459
 1744POPC   C1B32861  22.385  18.380   1.132
 1744POPC   C2B32862  22.245  18.278   1.233
 1744POPC   C3B32863  22.106  18.176   1.334
 1744POPC   C4B32864  21.966  18.074   1.434
 1745POPC   NC332865  24.137  14.248  20.173
 1745POPC   PO432866  23.981  14.200  20.057
 1745POPC   GL132867  23.825  14.152  19.941
 1745POPC   GL232868  23.842  14.055  19.959
 1745POPC   C1A32869  23.670  14.105  19.825
 1745POPC   D2A32870  23.514  14.057  19.708
 1745POPC   C3A32871  23.359  14.010  19.592
 1745POPC   C4A32872  23.203  13.962  19.476
 1745POPC   C1B32873  23.549  14.113  19.983
 1745POPC   C2B32874  23.393  14.066  19.867
 1745POPC   C3B32875  23.237  14.018  19.751
 1745POPC   C4B32876  23.082  13.971  19.635
 1746POPC   NC332877  10.725  -6.410   2.379
 1746POPC   PO432878  10.719  -6.230   2.466
 1746POPC   GL132879  10.713  -6.050   2.553
 1746POPC   GL232880  10.785  -6.078   2.616
 1746POPC   C1A32881  10.707  -5.870   2.639
 1746POPC   D2A32882  10.700  -5.689   2.726
 1746POPC   C3A32883  10.694  -5.509   2.812
 1746POPC   C4A32884  10.688  -5.329   2.899
 1746POPC   C1B32885  10.845  -5.803   2.511
 1746POPC   C2B32886  10.838  -5.623   2.597
 1746POPC   C3B32887  10.832  -5.443   2.684
 1746POPC   C4B32888  10.826  -5.262   2.770
 1747POPC   NC332889  10.289  17.590  -6.424
 1747POPC   PO432890  10.282  17.507  -6.242
 1747POPC   GL132891  10.275  17.424  -6.060
 1747POPC   GL232892  10.311  17.339  -6.098
 1747POPC   C1A32893  10.267  17.341  -5.878
 1747POPC   D2A32894  10.260  17.258  -5.697
 1747POPC   C3A32895  10.252  17.175  -5.515
 1747POPC   C4A32896  10.245  17.092  -5.333
 1747POPC   C1B32897  10.454  17.403  -5.842
 1747POPC   C2B32898  10.446  17.320  -5.661
 1747POPC   C3B32899  10.439  17.237  -5.479
 1747POPC   C4B32900  10.432  17.154  -5.297
 1748POPC   NC332901  22.846   9.191  -2.556
 1748POPC   PO432902  22.699   9.196  -2.420
 1748POPC   GL132903  22.552   9.201  -2.284
 1748POPC   GL232904  22.534   9.296  -2.307
 1748POPC   C1A32905  22.406   9.206  -2.148
 1748POPC   D2A32906  22.259   9.211  -2.012
 1748POPC   C3A32907  22.113   9.216  -1.876
 1748POPC   C4A32908  21.966   9.221  -1.740
 1748POPC   C1B32909  22.275   9.147  -2.287
 1748POPC   C2B32910  22.128   9.152  -2.151
 1748POPC   C3B32911  21.982   9.157  -2.015
 1748POPC   C4B32912  21.835   9.162  -1.879
 1749POPC   NC332913  11.991   7.119  -7.791
 1749POPC   PO432914  11.971   7.154  -7.595
 1749POPC   GL132915  11.951   7.189  -7.399
 1749POPC   GL232916  11.929   7.285  -7.418
 1749POPC   C1A32917  11.931   7.224  -7.203
 1749POPC   D2A32918  11.910   7.258  -7.007
 1749POPC   C3A32919  11.890   7.293  -6.811
 1749POPC   C4A32920  11.870   7.328  -6.615
 1749POPC   C1B32921  11.736   7.178  -7.215
 1749POPC   C2B32922  11.716   7.213  -7.019
 1749POPC   C3B32923  11.696   7.248  -6.823
 1749POPC   C4B32924  11.676   7.282  -6.627
 1750POPC   NC332925  -0.649   2.219  22.287
 1750POPC   PO432926  -0.532   2.301  22.147
 1750POPC   GL132927  -0.415   2.383  22.007
 1750POPC   GL232928  -0.334   2.353  22.057
 1750POPC   C1A32929  -0.298   2.465  21.867
 1750POPC   D2A32930  -0.180   2.547  21.728
 1750POPC   C3A32931  -0.063   2.629  21.588
 1750POPC   C4A32932   0.054   2.711  21.448
 1750POPC   C1B32933  -0.298   2.293  21.766
 1750POPC   C2B32934  -0.181   2.375  21.626
 1750POPC   C3B32935  -0.064   2.457  21.486
 1750POPC   C4B32936   0.053   2.539  21.346
 1751POPC   NC332937   2.892  21.061  -2.595
 1751POPC   PO432938   2.968  20.937  -2.458
 1751POPC   GL132939   3.044  20.813  -2.321
 1751POPC   GL232940   2.974  20.842  -2.256
 1751POPC   C1A32941   3.120  20.688  -2.184
 1751POPC   D2A32942   3.196  20.564  -2.048
 1751POPC   C3A32943   3.272  20.439  -1.911
 1751POPC   C4A32944   3.348  20.315  -1.774
 1751POPC   C1B32945   2.998  20.543  -2.248
 1751POPC   C2B32946   3.074  20.419  -2.112
 1751POPC   C3B32947   3.150  20.295  -1.975
 1751POPC   C4B32948   3.226  20.170  -1.838
 1752POPC   NC332949   5.512  13.580  26.998
 1752POPC   PO432950   5.559  13.548  26.806
 1752POPC   GL132951   5.606  13.516  26.614
 1752POPC   GL232952   5.688  13.466  26.643
 1752POPC   C1A32953   5.653  13.483  26.423
 1752POPC   D2A32954   5.700  13.451  26.231
 1752POPC   C3A32955   5.747  13.418  26.040
 1752POPC   C4A32956   5.794  13.386  25.848
 1752POPC   C1B32957   5.548  13.313  26.426
 1752POPC   C2B32958   5.595  13.281  26.234
 1752POPC   C3B32959   5.642  13.248  26.042
 1752POPC   C4B32960   5.689  13.216  25.851
 1753POPC   NC332961  20.714  24.181  12.574
 1753POPC   PO432962  20.592  24.025  12.543
 1753POPC   GL132963  20.470  23.869  12.512
 1753POPC   GL232964  20.540  23.826  12.456
 1753POPC   C1A32965  20.348  23.714  12.481
 1753POPC   D2A32966  20.227  23.558  12.451
 1753POPC   C3A32967  20.105  23.403  12.420
 1753POPC   C4A32968  19.983  23.247  12.389
 1753POPC   C1B32969  20.423  23.623  12.643
 1753POPC   C2B32970  20.301  23.468  12.612
 1753POPC   C3B32971  20.180  23.312  12.582
 1753POPC   C4B32972  20.058  23.157  12.551
 1754POPC   NC332973  25.806  10.453  18.406
 1754POPC   PO432974  25.630  10.449  18.312
 1754POPC   GL132975  25.454  10.445  18.218
 1754POPC   GL232976  25.497  10.400  18.139
 1754POPC   C1A32977  25.277  10.440  18.123
 1754POPC   D2A32978  25.101  10.436  18.029
 1754POPC   C3A32979  24.924  10.431  17.934
 1754POPC   C4A32980  24.748  10.427  17.840
 1754POPC   C1B32981  25.239  10.261  18.204
 1754POPC   C2B32982  25.062  10.257  18.110
 1754POPC   C3B32983  24.886  10.253  18.015
 1754POPC   C4B32984  24.709  10.248  17.921
 1755POPC   NC332985  -0.918  23.778   5.834
 1755POPC   PO432986  -0.801  23.622   5.878
 1755POPC   GL132987  -0.684  23.466   5.922
 1755POPC   GL232988  -0.603  23.523   5.907
 1755POPC   C1A32989  -0.566  23.310   5.967
 1755POPC   D2A32990  -0.449  23.155   6.011
 1755POPC   C3A32991  -0.331  22.999   6.056
 1755POPC   C4A32992  -0.214  22.843   6.100
 1755POPC   C1B32993  -0.568  23.364   6.159
 1755POPC   C2B32994  -0.451  23.208   6.204
 1755POPC   C3B32995  -0.333  23.052   6.248
 1755POPC   C4B32996  -0.216  22.897   6.293
 1756POPC   NC332997  -5.989   3.994   3.564
 1756POPC   PO432998  -5.813   4.062   3.631
 1756POPC   GL132999  -5.637   4.130   3.698
 1756POPC   GL233000  -5.683   4.175   3.774
 1756POPC   C1A33001  -5.461   4.197   3.764
 1756POPC   D2A33002  -5.285   4.265   3.831
 1756POPC   C3A33003  -5.109   4.332   3.897
 1756POPC   C4A33004  -4.933   4.400   3.964
 1756POPC   C1B33005  -5.440   4.033   3.876
 1756POPC   C2B33006  -5.264   4.100   3.942
 1756POPC   C3B33007  -5.088   4.168   4.009
 1756POPC   C4B33008  -4.912   4.235   4.075
 1757POPC   NC333009  16.441  26.599   7.732
 1757POPC   PO433010  16.364  26.416   7.755
 1757POPC   GL133011  16.287  26.233   7.778
 1757POPC   GL233012  16.355  26.196   7.714
 1757POPC   C1A33013  16.210  26.050   7.801
 1757POPC   D2A33014  16.133  25.866   7.823
 1757POPC   C3A33015  16.056  25.683   7.846
 1757POPC   C4A33016  15.979  25.500   7.869
 1757POPC   C1B33017  16.336  26.016   7.952
 1757POPC   C2B33018  16.259  25.833   7.975
 1757POPC   C3B33019  16.182  25.649   7.998
 1757POPC   C4B33020  16.105  25.466   8.021
 1758POPC   NC333021  13.709   5.911  27.081
 1758POPC   PO433022  13.663   5.953  26.891
 1758POPC   GL133023  13.617   5.995  26.701
 1758POPC   GL233024  13.632   5.900  26.676
 1758POPC   C1A33025  13.572   6.038  26.511
 1758POPC   D2A33026  13.526   6.080  26.321
 1758POPC   C3A33027  13.481   6.123  26.131
 1758POPC   C4A33028  13.435   6.165  25.941
 1758POPC   C1B33029  13.379   5.998  26.548
 1758POPC   C2B33030  13.334   6.040  26.358
 1758POPC   C3B33031  13.288   6.083  26.168
 1758POPC   C4B33032  13.243   6.125  25.978
 1759POPC   NC333033  14.055  27.349   7.416
 1759POPC   PO433034  14.008  27.157   7.447
 1759POPC   GL133035  13.961  26.965   7.478
 1759POPC   GL233036  14.031  26.937   7.412
 1759POPC   C1A33037  13.914  26.773   7.509
 1759POPC   D2A33038  13.868  26.581   7.540
 1759POPC   C3A33039  13.821  26.389   7.571
 1759POPC   C4A33040  13.774  26.197   7.602
 1759POPC   C1B33041  14.050  26.763   7.655
 1759POPC   C2B33042  14.004  26.571   7.686
 1759POPC   C3B33043  13.957  26.379   7.717
 1759POPC   C4B33044  13.910  26.187   7.748
 1760POPC   NC333045  22.884  -2.541  10.167
 1760POPC   PO433046  22.741  -2.402  10.166
 1760POPC   GL133047  22.598  -2.263  10.165
 1760POPC   GL233048  22.564  -2.298  10.078
 1760POPC   C1A33049  22.454  -2.123  10.165
 1760POPC   D2A33050  22.311  -1.984  10.164
 1760POPC   C3A33051  22.167  -1.844  10.164
 1760POPC   C4A33052  22.024  -1.705  10.163
 1760POPC   C1B33053  22.332  -2.248  10.262
 1760POPC   C2B33054  22.189  -2.109  10.262
 1760POPC   C3B33055  22.045  -1.969  10.261
 1760POPC   C4B33056  21.902  -1.830  10.260
 1761POPC   NC333057   7.859  10.606  27.806
 1761POPC   PO433058   7.889  10.593  27.609
 1761POPC   GL133059   7.919  10.580  27.412
 1761POPC   GL233060   7.953  10.674  27.411
 1761POPC   C1A33061   7.949  10.567  27.215
 1761POPC   D2A33062   7.980  10.555  27.017
 1761POPC   C3A33063   8.010  10.542  26.820
 1761POPC   C4A33064   8.040  10.529  26.623
 1761POPC   C1B33065   8.135  10.501  27.247
 1761POPC   C2B33066   8.165  10.488  27.050
 1761POPC   C3B33067   8.196  10.475  26.853
 1761POPC   C4B33068   8.226  10.462  26.656
 1762POPC   NC333069  -6.982  15.013  14.183
 1762POPC   PO433070  -6.796  14.955  14.139
 1762POPC   GL133071  -6.610  14.897  14.095
 1762POPC   GL233072  -6.583  14.911  14.191
 1762POPC   C1A33073  -6.423  14.839  14.052
 1762POPC   D2A33074  -6.237  14.781  14.008
 1762POPC   C3A33075  -6.050  14.723  13.965
 1762POPC   C4A33076  -5.864  14.665  13.921
 1762POPC   C1B33077  -6.472  14.650  14.093
 1762POPC   C2B33078  -6.286  14.592  14.050
 1762POPC   C3B33079  -6.100  14.534  14.006
 1762POPC   C4B33080  -5.913  14.476  13.962
 1763POPC   NC333081  18.229  -3.939   2.095
 1763POPC   PO433082  18.137  -3.783   2.180
 1763POPC   GL133083  18.045  -3.627   2.265
 1763POPC   GL233084  18.122  -3.616   2.328
 1763POPC   C1A33085  17.954  -3.471   2.350
 1763POPC   D2A33086  17.862  -3.314   2.435
 1763POPC   C3A33087  17.771  -3.158   2.520
 1763POPC   C4A33088  17.679  -3.002   2.605
 1763POPC   C1B33089  18.043  -3.348   2.220
 1763POPC   C2B33090  17.951  -3.191   2.305
 1763POPC   C3B33091  17.860  -3.035   2.390
 1763POPC   C4B33092  17.768  -2.879   2.475
 1764POPC   NC333093   2.894  22.694  20.703
 1764POPC   PO433094   2.968  22.553  20.582
 1764POPC   GL133095   3.042  22.412  20.461
 1764POPC   GL233096   3.050  22.350  20.539
 1764POPC   C1A33097   3.116  22.271  20.340
 1764POPC   D2A33098   3.190  22.129  20.220
 1764POPC   C3A33099   3.264  21.988  20.099
 1764POPC   C4A33100   3.338  21.847  19.978
 1764POPC   C1B33101   2.931  22.203  20.306
 1764POPC   C2B33102   3.005  22.062  20.185
 1764POPC   C3B33103   3.079  21.921  20.064
 1764POPC   C4B33104   3.153  21.779  19.944
 1765POPC   NC333105  20.240  24.015   5.072
 1765POPC   PO433106  20.126  23.859   5.124
 1765POPC   GL133107  20.012  23.703   5.176
 1765POPC   GL233108  20.079  23.677   5.245
 1765POPC   C1A33109  19.899  23.546   5.227
 1765POPC   D2A33110  19.785  23.390   5.279
 1765POPC   C3A33111  19.672  23.233   5.330
 1765POPC   C4A33112  19.558  23.077   5.382
 1765POPC   C1B33113  19.803  23.660   5.361
 1765POPC   C2B33114  19.690  23.503   5.413
 1765POPC   C3B33115  19.576  23.347   5.464
 1765POPC   C4B33116  19.462  23.191   5.516
 1766POPC   NC333117   9.684  13.752  27.591
 1766POPC   PO433118   9.687  13.709  27.396
 1766POPC   GL133119   9.690  13.666  27.201
 1766POPC   GL233120   9.769  13.606  27.215
 1766POPC   C1A33121   9.692  13.623  27.006
 1766POPC   D2A33122   9.695  13.580  26.810
 1766POPC   C3A33123   9.697  13.537  26.615
 1766POPC   C4A33124   9.700  13.494  26.420
 1766POPC   C1B33125   9.570  13.468  27.038
 1766POPC   C2B33126   9.572  13.425  26.843
 1766POPC   C3B33127   9.575  13.382  26.648
 1766POPC   C4B33128   9.578  13.339  26.453
 1767POPC   NC333129  -2.338  -2.962  13.051
 1767POPC   PO433130  -2.204  -2.818  13.018
 1767POPC   GL133131  -2.070  -2.674  12.985
 1767POPC   GL233132  -2.011  -2.711  13.057
 1767POPC   C1A33133  -1.935  -2.529  12.951
 1767POPC   D2A33134  -1.801  -2.385  12.918
 1767POPC   C3A33135  -1.666  -2.240  12.884
 1767POPC   C4A33136  -1.532  -2.096  12.851
 1767POPC   C1B33137  -1.844  -2.645  12.817
 1767POPC   C2B33138  -1.709  -2.501  12.783
 1767POPC   C3B33139  -1.575  -2.357  12.750
 1767POPC   C4B33140  -1.440  -2.212  12.717
 1768POPC   NC333141  10.092  22.891  -2.638
 1768POPC   PO433142  10.091  22.748  -2.498
 1768POPC   GL133143  10.090  22.605  -2.358
 1768POPC   GL233144  10.176  22.640  -2.322
 1768POPC   C1A33145  10.088  22.463  -2.218
 1768POPC   D2A33146  10.087  22.320  -2.077
 1768POPC   C3A33147  10.085  22.178  -1.937
 1768POPC   C4A33148  10.084  22.035  -1.797
 1768POPC   C1B33149   9.988  22.585  -2.094
 1768POPC   C2B33150   9.987  22.442  -1.954
 1768POPC   C3B33151   9.986  22.300  -1.814
 1768POPC   C4B33152   9.984  22.157  -1.674
 1769POPC   NC333153  -1.667   9.727  23.841
 1769POPC   PO433154  -1.538   9.729  23.688
 1769POPC   GL133155  -1.409   9.731  23.535
 1769POPC   GL233156  -1.365   9.649  23.571
 1769POPC   C1A33157  -1.281   9.733  23.382
 1769POPC   D2A33158  -1.152   9.736  23.228
 1769POPC   C3A33159  -1.024   9.738  23.075
 1769POPC   C4A33160  -0.895   9.740  22.922
 1769POPC   C1B33161  -1.405   9.618  23.275
 1769POPC   C2B33162  -1.277   9.621  23.122
 1769POPC   C3B33163  -1.148   9.623  22.969
 1769POPC   C4B33164  -1.019   9.625  22.816
 1770POPC   NC333165  10.891  22.286  23.111
 1770POPC   PO433166  10.877  22.149  22.966
 1770POPC   GL133167  10.863  22.012  22.821
 1770POPC   GL233168  10.883  21.940  22.887
 1770POPC   C1A33169  10.848  21.875  22.676
 1770POPC   D2A33170  10.834  21.737  22.532
 1770POPC   C3A33171  10.819  21.600  22.387
 1770POPC   C4A33172  10.805  21.463  22.242
 1770POPC   C1B33173  10.653  21.854  22.715
 1770POPC   C2B33174  10.639  21.717  22.570
 1770POPC   C3B33175  10.624  21.580  22.426
 1770POPC   C4B33176  10.610  21.442  22.281
 1771POPC   NC333177  27.194   7.612  14.462
 1771POPC   PO433178  27.002   7.639  14.415
 1771POPC   GL133179  26.810   7.666  14.368
 1771POPC   GL233180  26.819   7.601  14.293
 1771POPC   C1A33181  26.617   7.693  14.320
 1771POPC   D2A33182  26.425   7.720  14.273
 1771POPC   C3A33183  26.232   7.747  14.225
 1771POPC   C4A33184  26.040   7.774  14.178
 1771POPC   C1B33185  26.566   7.544  14.443
 1771POPC   C2B33186  26.374   7.571  14.396
 1771POPC   C3B33187  26.181   7.598  14.349
 1771POPC   C4B33188  25.989   7.625  14.301
 1772POPC   NC333189  10.644  26.758  16.645
 1772POPC   PO433190  10.634  26.572  16.572
 1772POPC   GL133191  10.624  26.386  16.499
 1772POPC   GL233192  10.675  26.352  16.577
 1772POPC   C1A33193  10.614  26.200  16.425
 1772POPC   D2A33194  10.603  26.015  16.352
 1772POPC   C3A33195  10.593  25.829  16.278
 1772POPC   C4A33196  10.583  25.643  16.205
 1772POPC   C1B33197  10.443  26.170  16.525
 1772POPC   C2B33198  10.432  25.985  16.451
 1772POPC   C3B33199  10.422  25.799  16.378
 1772POPC   C4B33200  10.412  25.613  16.304
 1773POPC   NC333201  -5.166   1.027  14.295
 1773POPC   PO433202  -4.999   1.125  14.245
 1773POPC   GL133203  -4.832   1.223  14.195
 1773POPC   GL233204  -4.846   1.286  14.271
 1773POPC   C1A33205  -4.665   1.321  14.145
 1773POPC   D2A33206  -4.497   1.418  14.096
 1773POPC   C3A33207  -4.330   1.516  14.046
 1773POPC   C4A33208  -4.163   1.614  13.996
 1773POPC   C1B33209  -4.559   1.201  14.265
 1773POPC   C2B33210  -4.392   1.298  14.216
 1773POPC   C3B33211  -4.224   1.396  14.166
 1773POPC   C4B33212  -4.057   1.494  14.116
 1774POPC   NC333213   5.356  21.463  23.059
 1774POPC   PO433214   5.403  21.334  22.914
 1774POPC   GL133215   5.450  21.205  22.769
 1774POPC   GL233216   5.469  21.134  22.837
 1774POPC   C1A33217   5.498  21.076  22.624
 1774POPC   D2A33218   5.545  20.946  22.478
 1774POPC   C3A33219   5.593  20.817  22.333
 1774POPC   C4A33220   5.640  20.688  22.188
 1774POPC   C1B33221   5.307  21.016  22.615
 1774POPC   C2B33222   5.355  20.886  22.469
 1774POPC   C3B33223   5.402  20.757  22.324
 1774POPC   C4B33224   5.449  20.628  22.179
 1775POPC   NC333225  12.109   9.580  -8.021
 1775POPC   PO433226  12.087   9.586  -7.822
 1775POPC   GL133227  12.065   9.592  -7.623
 1775POPC   GL233228  12.016   9.679  -7.632
 1775POPC   C1A33229  12.043   9.599  -7.425
 1775POPC   D2A33230  12.020   9.605  -7.226
 1775POPC   C3A33231  11.998   9.612  -7.028
 1775POPC   C4A33232  11.976   9.618  -6.829
 1775POPC   C1B33233  11.869   9.500  -7.441
 1775POPC   C2B33234  11.847   9.507  -7.242
 1775POPC   C3B33235  11.825   9.513  -7.044
 1775POPC   C4B33236  11.803   9.520  -6.845
 1776POPC   NC333237  21.335  14.167  -3.376
 1776POPC   PO433238  21.209  14.121  -3.227
 1776POPC   GL133239  21.083  14.075  -3.078
 1776POPC   GL233240  21.072  13.983  -3.117
 1776POPC   C1A33241  20.957  14.029  -2.930
 1776POPC   D2A33242  20.832  13.982  -2.781
 1776POPC   C3A33243  20.706  13.936  -2.633
 1776POPC   C4A33244  20.580  13.890  -2.484
 1776POPC   C1B33245  21.111  13.963  -2.820
 1776POPC   C2B33246  20.985  13.917  -2.671
 1776POPC   C3B33247  20.860  13.871  -2.523
 1776POPC   C4B33248  20.734  13.825  -2.374
 1777POPC   NC333249  -0.472  16.400  -3.411
 1777POPC   PO433250  -0.359  16.331  -3.261
 1777POPC   GL133251  -0.246  16.262  -3.111
 1777POPC   GL233252  -0.323  16.274  -3.048
 1777POPC   C1A33253  -0.134  16.193  -2.961
 1777POPC   D2A33254  -0.021  16.125  -2.810
 1777POPC   C3A33255   0.091  16.056  -2.660
 1777POPC   C4A33256   0.204  15.987  -2.510
 1777POPC   C1B33257  -0.194  16.007  -3.001
 1777POPC   C2B33258  -0.082  15.938  -2.850
 1777POPC   C3B33259   0.031  15.869  -2.700
 1777POPC   C4B33260   0.143  15.801  -2.550
 1778POPC   NC333261  27.144  10.415   4.816
 1778POPC   PO433262  26.952  10.412   4.871
 1778POPC   GL133263  26.760  10.409   4.926
 1778POPC   GL233264  26.752  10.315   4.894
 1778POPC   C1A33265  26.567  10.406   4.980
 1778POPC   D2A33266  26.375  10.404   5.035
 1778POPC   C3A33267  26.182  10.401   5.089
 1778POPC   C4A33268  25.990  10.398   5.144
 1778POPC   C1B33269  26.620  10.342   5.162
 1778POPC   C2B33270  26.427  10.340   5.217
 1778POPC   C3B33271  26.235  10.337   5.271
 1778POPC   C4B33272  26.043  10.334   5.326
 1779POPC   NC333273  21.859   0.491  19.531
 1779POPC   PO433274  21.730   0.596  19.420
 1779POPC   GL133275  21.601   0.701  19.309
 1779POPC   GL233276  21.671   0.711  19.238
 1779POPC   C1A33277  21.472   0.806  19.198
 1779POPC   D2A33278  21.344   0.911  19.086
 1779POPC   C3A33279  21.215   1.016  18.975
 1779POPC   C4A33280  21.086   1.121  18.864
 1779POPC   C1B33281  21.409   0.637  19.112
 1779POPC   C2B33282  21.280   0.742  19.000
 1779POPC   C3B33283  21.151   0.847  18.889
 1779POPC   C4B33284  21.022   0.952  18.778
 1780POPC   NC333285  13.253  -1.292  23.536
 1780POPC   PO433286  13.219  -1.162  23.388
 1780POPC   GL133287  13.185  -1.032  23.240
 1780POPC   GL233288  13.243  -1.086  23.179
 1780POPC   C1A33289  13.151  -0.902  23.092
 1780POPC   D2A33290  13.117  -0.771  22.944
 1780POPC   C3A33291  13.083  -0.641  22.796
 1780POPC   C4A33292  13.049  -0.511  22.648
 1780POPC   C1B33293  12.992  -1.008  23.035
 1780POPC   C2B33294  12.958  -0.878  22.887
 1780POPC   C3B33295  12.924  -0.748  22.739
 1780POPC   C4B33296  12.890  -0.618  22.591
 1781POPC   NC333297  19.556   4.097  -4.084
 1781POPC   PO433298  19.449   4.162  -3.928
 1781POPC   GL133299  19.342   4.227  -3.772
 1781POPC   GL233300  19.347   4.321  -3.808
 1781POPC   C1A33301  19.235   4.293  -3.617
 1781POPC   D2A33302  19.127   4.358  -3.461
 1781POPC   C3A33303  19.020   4.424  -3.306
 1781POPC   C4A33304  18.913   4.489  -3.150
 1781POPC   C1B33305  19.066   4.262  -3.720
 1781POPC   C2B33306  18.959   4.328  -3.564
 1781POPC   C3B33307  18.852   4.393  -3.409
 1781POPC   C4B33308  18.744   4.458  -3.253
 1782POPC   NC333309   7.504  13.731  -7.591
 1782POPC   PO433310   7.529  13.690  -7.397
 1782POPC   GL133311   7.554  13.649  -7.203
 1782POPC   GL233312   7.647  13.617  -7.221
 1782POPC   C1A33313   7.579  13.608  -7.009
 1782POPC   D2A33314   7.603  13.566  -6.814
 1782POPC   C3A33315   7.628  13.525  -6.620
 1782POPC   C4A33316   7.653  13.484  -6.426
 1782POPC   C1B33317   7.648  13.793  -6.978
 1782POPC   C2B33318   7.673  13.752  -6.784
 1782POPC   C3B33319   7.697  13.710  -6.590
 1782POPC   C4B33320   7.722  13.669  -6.396
 1783POPC   NC333321   5.720  27.225   6.276
 1783POPC   PO433322   5.763  27.034   6.316
 1783POPC   GL133323   5.806  26.843   6.356
 1783POPC   GL233324   5.826  26.867   6.451
 1783POPC   C1A33325   5.849  26.652   6.395
 1783POPC   D2A33326   5.893  26.460   6.435
 1783POPC   C3A33327   5.936  26.269   6.474
 1783POPC   C4A33328   5.979  26.078   6.514
 1783POPC   C1B33329   5.658  26.618   6.443
 1783POPC   C2B33330   5.701  26.427   6.483
 1783POPC   C3B33331   5.745  26.236   6.523
 1783POPC   C4B33332   5.788  26.045   6.562
 1784POPC   NC333333  -3.676   7.216  21.569
 1784POPC   PO433334  -3.525   7.245  21.441
 1784POPC   GL133335  -3.374   7.274  21.313
 1784POPC   GL233336  -3.336   7.344  21.374
 1784POPC   C1A33337  -3.223   7.304  21.185
 1784POPC   D2A33338  -3.073   7.333  21.057
 1784POPC   C3A33339  -2.922   7.363  20.929
 1784POPC   C4A33340  -2.771   7.392  20.801
 1784POPC   C1B33341  -3.117   7.162  21.278
 1784POPC   C2B33342  -2.966   7.192  21.150
 1784POPC   C3B33343  -2.815   7.221  21.022
 1784POPC   C4B33344  -2.665   7.250  20.894
 1785POPC   NC333345   6.385  22.211  22.671
 1785POPC   PO433346   6.424  22.075  22.530
 1785POPC   GL133347   6.463  21.939  22.389
 1785POPC   GL233348   6.556  21.973  22.382
 1785POPC   C1A33349   6.502  21.802  22.248
 1785POPC   D2A33350   6.540  21.666  22.107
 1785POPC   C3A33351   6.579  21.529  21.966
 1785POPC   C4A33352   6.618  21.393  21.825
 1785POPC   C1B33353   6.560  21.673  22.389
 1785POPC   C2B33354   6.599  21.537  22.248
 1785POPC   C3B33355   6.637  21.400  22.107
 1785POPC   C4B33356   6.676  21.264  21.966
 1786POPC   NC333357  -2.986  16.961  -0.736
 1786POPC   PO433358  -2.845  16.881  -0.619
 1786POPC   GL133359  -2.704  16.801  -0.502
 1786POPC   GL233360  -2.646  16.881  -0.516
 1786POPC   C1A33361  -2.563  16.721  -0.385
 1786POPC   D2A33362  -2.422  16.640  -0.268
 1786POPC   C3A33363  -2.281  16.560  -0.151
 1786POPC   C4A33364  -2.140  16.480  -0.034
 1786POPC   C1B33365  -2.646  16.808  -0.225
 1786POPC   C2B33366  -2.505  16.728  -0.108
 1786POPC   C3B33367  -2.364  16.648   0.009
 1786POPC   C4B33368  -2.223  16.567   0.126
 1787POPC   NC333369  19.582  -3.825   3.545
 1787POPC   PO433370  19.478  -3.669   3.615
 1787POPC   GL133371  19.374  -3.513   3.685
 1787POPC   GL233372  19.387  -3.465   3.598
 1787POPC   C1A33373  19.270  -3.357   3.755
 1787POPC   D2A33374  19.165  -3.202   3.825
 1787POPC   C3A33375  19.061  -3.046   3.895
 1787POPC   C4A33376  18.957  -2.890   3.965
 1787POPC   C1B33377  19.101  -3.439   3.685
 1787POPC   C2B33378  18.997  -3.283   3.755
 1787POPC   C3B33379  18.892  -3.127   3.825
 1787POPC   C4B33380  18.788  -2.971   3.895
 1788POPC   NC333381  12.563  27.583   7.020
 1788POPC   PO433382  12.532  27.388   7.055
 1788POPC   GL133383  12.501  27.193   7.090
 1788POPC   GL233384  12.576  27.193   7.156
 1788POPC   C1A33385  12.470  26.999   7.125
 1788POPC   D2A33386  12.440  26.804   7.159
 1788POPC   C3A33387  12.409  26.610   7.194
 1788POPC   C4A33388  12.378  26.415   7.229
 1788POPC   C1B33389  12.341  27.045   7.270
 1788POPC   C2B33390  12.310  26.851   7.305
 1788POPC   C3B33391  12.280  26.656   7.340
 1788POPC   C4B33392  12.249  26.462   7.374
 1789POPC   NC333393   7.670  -2.449  -2.966
 1789POPC   PO433394   7.695  -2.311  -2.824
 1789POPC   GL133395   7.720  -2.173  -2.682
 1789POPC   GL233396   7.714  -2.244  -2.612
 1789POPC   C1A33397   7.746  -2.034  -2.540
 1789POPC   D2A33398   7.771  -1.896  -2.397
 1789POPC   C3A33399   7.797  -1.757  -2.255
 1789POPC   C4A33400   7.822  -1.619  -2.113
 1789POPC   C1B33401   7.944  -2.061  -2.549
 1789POPC   C2B33402   7.969  -1.922  -2.407
 1789POPC   C3B33403   7.995  -1.784  -2.265
 1789POPC   C4B33404   8.020  -1.645  -2.123
 1790POPC   NC333405   5.791   2.363  25.726
 1790POPC   PO433406   5.827   2.443  25.546
 1790POPC   GL133407   5.863   2.523  25.366
 1790POPC   GL233408   5.958   2.537  25.391
 1790POPC   C1A33409   5.898   2.603  25.186
 1790POPC   D2A33410   5.934   2.683  25.007
 1790POPC   C3A33411   5.969   2.763  24.827
 1790POPC   C4A33412   6.005   2.843  24.647
 1790POPC   C1B33413   5.943   2.422  25.115
 1790POPC   C2B33414   5.979   2.502  24.935
 1790POPC   C3B33415   6.014   2.582  24.755
 1790POPC   C4B33416   6.050   2.662  24.575
 1791POPC   NC333417  -2.532  15.343  21.900
 1791POPC   PO433418  -2.401  15.282  21.762
 1791POPC   GL133419  -2.270  15.221  21.624
 1791POPC   GL233420  -2.194  15.249  21.684
 1791POPC   C1A33421  -2.138  15.160  21.486
 1791POPC   D2A33422  -2.007  15.099  21.349
 1791POPC   C3A33423  -1.875  15.038  21.211
 1791POPC   C4A33424  -1.744  14.977  21.073
 1791POPC   C1B33425  -2.137  14.978  21.569
 1791POPC   C2B33426  -2.005  14.917  21.431
 1791POPC   C3B33427  -1.874  14.856  21.293
 1791POPC   C4B33428  -1.742  14.795  21.155
 1792POPC   NC333429  21.831  -0.571  18.419
 1792POPC   PO433430  21.705  -0.451  18.321
 1792POPC   GL133431  21.579  -0.331  18.223
 1792POPC   GL233432  21.652  -0.264  18.210
 1792POPC   C1A33433  21.452  -0.211  18.125
 1792POPC   D2A33434  21.326  -0.090  18.027
 1792POPC   C3A33435  21.199   0.030  17.929
 1792POPC   C4A33436  21.073   0.150  17.831
 1792POPC   C1B33437  21.502  -0.299  17.953
 1792POPC   C2B33438  21.375  -0.179  17.855
 1792POPC   C3B33439  21.249  -0.059  17.757
 1792POPC   C4B33440  21.123   0.061  17.659
 1793POPC   NC333441  10.545  27.799  12.659
 1793POPC   PO433442  10.536  27.601  12.629
 1793POPC   GL133443  10.527  27.403  12.599
 1793POPC   GL233444  10.611  27.408  12.544
 1793POPC   C1A33445  10.518  27.206  12.570
 1793POPC   D2A33446  10.510  27.008  12.540
 1793POPC   C3A33447  10.501  26.811  12.511
 1793POPC   C4A33448  10.492  26.613  12.481
 1793POPC   C1B33449  10.628  27.176  12.734
 1793POPC   C2B33450  10.620  26.979  12.705
 1793POPC   C3B33451  10.611  26.781  12.675
 1793POPC   C4B33452  10.602  26.583  12.645
 1794POPC   NC333453   2.391  26.362  11.463
 1794POPC   PO433454   2.474  26.181  11.447
 1794POPC   GL133455   2.557  26.000  11.431
 1794POPC   GL233456   2.631  26.039  11.376
 1794POPC   C1A33457   2.640  25.819  11.415
 1794POPC   D2A33458   2.724  25.637  11.398
 1794POPC   C3A33459   2.807  25.456  11.382
 1794POPC   C4A33460   2.890  25.275  11.366
 1794POPC   C1B33461   2.747  25.853  11.581
 1794POPC   C2B33462   2.830  25.671  11.564
 1794POPC   C3B33463   2.913  25.490  11.548
 1794POPC   C4B33464   2.996  25.309  11.532
 1795POPC   NC333465  26.384  10.872  17.193
 1795POPC   PO433466  26.202  10.859  17.112
 1795POPC   GL133467  26.020  10.846  17.031
 1795POPC   GL233468  26.048  10.763  16.982
 1795POPC   C1A33469  25.837  10.832  16.950
 1795POPC   D2A33470  25.655  10.819  16.869
 1795POPC   C3A33471  25.472  10.805  16.788
 1795POPC   C4A33472  25.290  10.792  16.707
 1795POPC   C1B33473  25.777  10.719  17.104
 1795POPC   C2B33474  25.595  10.706  17.023
 1795POPC   C3B33475  25.412  10.692  16.942
 1795POPC   C4B33476  25.230  10.679  16.861
 1796POPC   NC333477  18.799  17.002  -4.080
 1796POPC   PO433478  18.697  16.924  -3.926
 1796POPC   GL133479  18.595  16.846  -3.772
 1796POPC   GL233480  18.541  16.792  -3.836
 1796POPC   C1A33481  18.494  16.768  -3.618
 1796POPC   D2A33482  18.392  16.691  -3.465
 1796POPC   C3A33483  18.291  16.613  -3.311
 1796POPC   C4A33484  18.189  16.535  -3.157
 1796POPC   C1B33485  18.627  16.620  -3.606
 1796POPC   C2B33486  18.525  16.542  -3.452
 1796POPC   C3B33487  18.424  16.464  -3.298
 1796POPC   C4B33488  18.322  16.386  -3.144
 1797POPC   NC333489  25.778   5.163  16.927
 1797POPC   PO433490  25.602   5.214  16.847
 1797POPC   GL133491  25.426   5.265  16.767
 1797POPC   GL233492  25.459   5.358  16.752
 1797POPC   C1A33493  25.249   5.315  16.688
 1797POPC   D2A33494  25.073   5.366  16.608
 1797POPC   C3A33495  24.896   5.416  16.529
 1797POPC   C4A33496  24.720   5.467  16.449
 1797POPC   C1B33497  25.315   5.261  16.507
 1797POPC   C2B33498  25.139   5.312  16.427
 1797POPC   C3B33499  24.962   5.362  16.348
 1797POPC   C4B33500  24.786   5.413  16.268
 1798POPC   NC333501  26.994   4.300   9.182
 1798POPC   PO433502  26.804   4.363   9.191
 1798POPC   GL133503  26.614   4.426   9.200
 1798POPC   GL233504  26.626   4.474   9.113
 1798POPC   C1A33505  26.425   4.489   9.209
 1798POPC   D2A33506  26.235   4.553   9.217
 1798POPC   C3A33507  26.046   4.616   9.226
 1798POPC   C4A33508  25.856   4.679   9.235
 1798POPC   C1B33509  26.366   4.325   9.110
 1798POPC   C2B33510  26.176   4.389   9.119
 1798POPC   C3B33511  25.986   4.452   9.128
 1798POPC   C4B33512  25.797   4.515   9.137
 1799POPC   NC333513  -6.454  17.692  10.952
 1799POPC   PO433514  -6.273  17.609  10.939
 1799POPC   GL133515  -6.092  17.526  10.926
 1799POPC   GL233516  -6.102  17.489  11.019
 1799POPC   C1A33517  -5.910  17.442  10.913
 1799POPC   D2A33518  -5.729  17.359  10.901
 1799POPC   C3A33519  -5.547  17.275  10.888
 1799POPC   C4A33520  -5.366  17.192  10.875
 1799POPC   C1B33521  -5.992  17.275  10.839
 1799POPC   C2B33522  -5.811  17.192  10.827
 1799POPC   C3B33523  -5.629  17.109  10.814
 1799POPC   C4B33524  -5.448  17.025  10.801
 1800POPC   NC333525  17.629  -3.155  19.600
 1800POPC   PO433526  17.542  -3.014  19.488
 1800POPC   GL133527  17.455  -2.873  19.376
 1800POPC   GL233528  17.518  -2.894  19.301
 1800POPC   C1A33529  17.367  -2.732  19.264
 1800POPC   D2A33530  17.280  -2.592  19.153
 1800POPC   C3A33531  17.192  -2.451  19.041
 1800POPC   C4A33532  17.105  -2.310  18.929
 1800POPC   C1B33533  17.239  -2.868  19.194
 1800POPC   C2B33534  17.151  -2.728  19.082
 1800POPC   C3B33535  17.064  -2.587  18.970
 1800POPC   C4B33536  16.976  -2.446  18.858
 1801POPC   NC333537   9.010   5.528  -7.485
 1801POPC   PO433538   9.018   5.579  -7.292
 1801POPC   GL133539   9.026   5.630  -7.099
 1801POPC   GL233540   9.114   5.675  -7.114
 1801POPC   C1A33541   9.035   5.681  -6.906
 1801POPC   D2A33542   9.043   5.731  -6.712
 1801POPC   C3A33543   9.052   5.782  -6.519
 1801POPC   C4A33544   9.060   5.833  -6.326
 1801POPC   C1B33545   8.939   5.852  -6.946
 1801POPC   C2B33546   8.948   5.902  -6.753
 1801POPC   C3B33547   8.956   5.953  -6.560
 1801POPC   C4B33548   8.965   6.004  -6.367
 1802POPC   NC333549  -5.108  13.116   0.209
 1802POPC   PO433550  -4.941  13.083   0.314
 1802POPC   GL133551  -4.774  13.050   0.419
 1802POPC   GL233552  -4.825  12.994   0.483
 1802POPC   C1A33553  -4.607  13.017   0.524
 1802POPC   D2A33554  -4.439  12.984   0.628
 1802POPC   C3A33555  -4.272  12.951   0.733
 1802POPC   C4A33556  -4.105  12.918   0.838
 1802POPC   C1B33557  -4.569  12.855   0.413
 1802POPC   C2B33558  -4.402  12.822   0.517
 1802POPC   C3B33559  -4.235  12.789   0.622
 1802POPC   C4B33560  -4.067  12.756   0.727
 1803POPC   NC333561   7.543  26.004   1.866
 1803POPC   PO433562   7.570  25.829   1.959
 1803POPC   GL133563   7.597  25.654   2.052
 1803POPC   GL233564   7.696  25.663   2.038
 1803POPC   C1A33565   7.625  25.480   2.146
 1803POPC   D2A33566   7.652  25.305   2.239
 1803POPC   C3A33567   7.680  25.131   2.333
 1803POPC   C4A33568   7.707  24.956   2.426
 1803POPC   C1B33569   7.642  25.576   2.320
 1803POPC   C2B33570   7.669  25.401   2.414
 1803POPC   C3B33571   7.696  25.227   2.507
 1803POPC   C4B33572   7.724  25.052   2.601
 1804POPC   NC333573  16.877  -6.510   7.981
 1804POPC   PO433574  16.799  -6.327   8.004
 1804POPC   GL133575  16.721  -6.144   8.027
 1804POPC   GL233576  16.809  -6.111   8.062
 1804POPC   C1A33577  16.643  -5.961   8.051
 1804POPC   D2A33578  16.565  -5.779   8.074
 1804POPC   C3A33579  16.487  -5.596   8.098
 1804POPC   C4A33580  16.409  -5.413   8.121
 1804POPC   C1B33581  16.699  -5.914   7.865
 1804POPC   C2B33582  16.621  -5.731   7.888
 1804POPC   C3B33583  16.543  -5.548   7.912
 1804POPC   C4B33584  16.465  -5.365   7.935
 1805POPC   NC333585  22.371  23.050  10.210
 1805POPC   PO433586  22.234  22.904  10.205
 1805POPC   GL133587  22.097  22.758  10.200
 1805POPC   GL233588  22.078  22.779  10.104
 1805POPC   C1A33589  21.960  22.612  10.195
 1805POPC   D2A33590  21.824  22.467  10.190
 1805POPC   C3A33591  21.687  22.321  10.185
 1805POPC   C4A33592  21.550  22.175  10.180
 1805POPC   C1B33593  22.101  22.482  10.138
 1805POPC   C2B33594  21.964  22.337  10.133
 1805POPC   C3B33595  21.828  22.191  10.128
 1805POPC   C4B33596  21.691  22.045  10.123
 1806POPC   NC333597   1.039   6.532  25.320
 1806POPC   PO433598   1.139   6.576  25.152
 1806POPC   GL133599   1.239   6.620  24.984
 1806POPC   GL233600   1.271   6.526  24.979
 1806POPC   C1A33601   1.339   6.664  24.817
 1806POPC   D2A33602   1.438   6.709  24.649
 1806POPC   C3A33603   1.538   6.753  24.482
 1806POPC   C4A33604   1.638   6.797  24.314
 1806POPC   C1B33605   1.178   6.616  24.708
 1806POPC   C2B33606   1.278   6.660  24.541
 1806POPC   C3B33607   1.378   6.704  24.373
 1806POPC   C4B33608   1.477   6.748  24.205
 1807POPC   NC333609  13.834  -7.459   7.252
 1807POPC   PO433610  13.784  -7.268   7.282
 1807POPC   GL133611  13.734  -7.077   7.312
 1807POPC   GL233612  13.710  -7.068   7.215
 1807POPC   C1A33613  13.685  -6.885   7.342
 1807POPC   D2A33614  13.635  -6.694   7.371
 1807POPC   C3A33615  13.586  -6.502   7.401
 1807POPC   C4A33616  13.536  -6.311   7.431
 1807POPC   C1B33617  13.497  -6.940   7.385
 1807POPC   C2B33618  13.448  -6.749   7.414
 1807POPC   C3B33619  13.398  -6.558   7.444
 1807POPC   C4B33620  13.349  -6.366   7.474
 1808POPC   NC333621  21.112   0.802  20.621
 1808POPC   PO433622  20.988   0.902  20.501
 1808POPC   GL133623  20.864   1.002  20.381
 1808POPC   GL233624  20.930   0.995  20.306
 1808POPC   C1A33625  20.740   1.103  20.261
 1808POPC   D2A33626  20.615   1.203  20.140
 1808POPC   C3A33627  20.491   1.304  20.020
 1808POPC   C4A33628  20.367   1.404  19.900
 1808POPC   C1B33629  20.656   0.931  20.203
 1808POPC   C2B33630  20.532   1.031  20.083
 1808POPC   C3B33631  20.407   1.131  19.963
 1808POPC   C4B33632  20.283   1.232  19.843
 1809POPC   NC333633  23.070  15.338  20.973
 1809POPC   PO433634  22.930  15.280  20.843
 1809POPC   GL133635  22.790  15.222  20.713
 1809POPC   GL233636  22.860  15.181  20.655
 1809POPC   C1A33637  22.650  15.164  20.582
 1809POPC   D2A33638  22.509  15.106  20.452
 1809POPC   C3A33639  22.369  15.048  20.321
 1809POPC   C4A33640  22.229  14.990  20.191
 1809POPC   C1B33641  22.630  14.991  20.681
 1809POPC   C2B33642  22.489  14.933  20.550
 1809POPC   C3B33643  22.349  14.875  20.420
 1809POPC   C4B33644  22.209  14.817  20.290
 1810POPC   NC333645  18.042  21.329  -1.496
 1810POPC   PO433646  17.948  21.201  -1.374
 1810POPC   GL133647  17.854  21.073  -1.252
 1810POPC   GL233648  17.942  21.033  -1.226
 1810POPC   C1A33649  17.760  20.946  -1.130
 1810POPC   D2A33650  17.665  20.818  -1.009
 1810POPC   C3A33651  17.571  20.691  -0.887
 1810POPC   C4A33652  17.477  20.563  -0.765
 1810POPC   C1B33653  17.776  21.077  -0.980
 1810POPC   C2B33654  17.681  20.950  -0.859
 1810POPC   C3B33655  17.587  20.822  -0.737
 1810POPC   C4B33656  17.493  20.694  -0.615
 1811POPC   NC333657  11.453   6.778  -7.772
 1811POPC   PO433658  11.441   6.818  -7.576
 1811POPC   GL133659  11.429   6.858  -7.380
 1811POPC   GL233660  11.506   6.797  -7.363
 1811POPC   C1A33661  11.417   6.898  -7.185
 1811POPC   D2A33662  11.405   6.939  -6.989
 1811POPC   C3A33663  11.393   6.979  -6.794
 1811POPC   C4A33664  11.381   7.019  -6.598
 1811POPC   C1B33665  11.544   7.051  -7.208
 1811POPC   C2B33666  11.532   7.092  -7.013
 1811POPC   C3B33667  11.520   7.132  -6.817
 1811POPC   C4B33668  11.508   7.172  -6.622
 1812POPC   NC333669  -0.421  21.962   1.222
 1812POPC   PO433670  -0.309  21.825   1.315
 1812POPC   GL133671  -0.197  21.688   1.408
 1812POPC   GL233672  -0.263  21.684   1.482
 1812POPC   C1A33673  -0.085  21.551   1.501
 1812POPC   D2A33674   0.028  21.413   1.593
 1812POPC   C3A33675   0.140  21.276   1.686
 1812POPC   C4A33676   0.252  21.139   1.779
 1812POPC   C1B33677  -0.184  21.405   1.405
 1812POPC   C2B33678  -0.071  21.268   1.498
 1812POPC   C3B33679   0.041  21.131   1.591
 1812POPC   C4B33680   0.153  20.994   1.684
 1813POPC   NC333681  17.125   9.792  -6.559
 1813POPC   PO433682  17.042   9.796  -6.377
 1813POPC   GL133683  16.959   9.800  -6.195
 1813POPC   GL233684  16.874   9.835  -6.234
 1813POPC   C1A33685  16.877   9.803  -6.013
 1813POPC   D2A33686  16.794   9.807  -5.831
 1813POPC   C3A33687  16.712   9.810  -5.649
 1813POPC   C4A33688  16.629   9.814  -5.467
 1813POPC   C1B33689  16.812   9.616  -6.039
 1813POPC   C2B33690  16.729   9.620  -5.857
 1813POPC   C3B33691  16.646   9.623  -5.675
 1813POPC   C4B33692  16.564   9.627  -5.493
 1814POPC   NC333693  17.107  -4.594  17.787
 1814POPC   PO433694  17.030  -4.430  17.703
 1814POPC   GL133695  16.953  -4.266  17.619
 1814POPC   GL233696  17.037  -4.254  17.565
 1814POPC   C1A33697  16.877  -4.102  17.534
 1814POPC   D2A33698  16.800  -3.937  17.450
 1814POPC   C3A33699  16.724  -3.773  17.365
 1814POPC   C4A33700  16.647  -3.609  17.281
 1814POPC   C1B33701  16.799  -4.213  17.387
 1814POPC   C2B33702  16.723  -4.049  17.303
 1814POPC   C3B33703  16.646  -3.885  17.219
 1814POPC   C4B33704  16.569  -3.721  17.134
 1815POPC   NC333705  -6.966   3.643   8.939
 1815POPC   PO433706  -6.779   3.714   8.953
 1815POPC   GL133707  -6.592   3.785   8.967
 1815POPC   GL233708  -6.559   3.693   8.989
 1815POPC   C1A33709  -6.406   3.856   8.981
 1815POPC   D2A33710  -6.219   3.926   8.996
 1815POPC   C3A33711  -6.033   3.997   9.010
 1815POPC   C4A33712  -5.846   4.068   9.024
 1815POPC   C1B33713  -6.377   3.820   8.787
 1815POPC   C2B33714  -6.191   3.891   8.801
 1815POPC   C3B33715  -6.004   3.962   8.815
 1815POPC   C4B33716  -5.818   4.032   8.829
 1816POPC   NC333717  20.700  22.647   3.062
 1816POPC   PO433718  20.578  22.512   3.145
 1816POPC   GL133719  20.456  22.377   3.228
 1816POPC   GL233720  20.499  22.305   3.175
 1816POPC   C1A33721  20.334  22.242   3.311
 1816POPC   D2A33722  20.211  22.108   3.394
 1816POPC   C3A33723  20.089  21.973   3.477
 1816POPC   C4A33724  19.967  21.838   3.560
 1816POPC   C1B33725  20.466  22.214   3.458
 1816POPC   C2B33726  20.343  22.079   3.541
 1816POPC   C3B33727  20.221  21.944   3.624
 1816POPC   C4B33728  20.099  21.809   3.707
 1817POPC   NC333729  -7.812   7.197  12.195
 1817POPC   PO433730  -7.617   7.230  12.168
 1817POPC   GL133731  -7.422   7.263  12.141
 1817POPC   GL233732  -7.402   7.216  12.227
 1817POPC   C1A33733  -7.226   7.296  12.113
 1817POPC   D2A33734  -7.031   7.330  12.086
 1817POPC   C3A33735  -6.835   7.363  12.058
 1817POPC   C4A33736  -6.640   7.396  12.031
 1817POPC   C1B33737  -7.211   7.123  12.015
 1817POPC   C2B33738  -7.015   7.156  11.987
 1817POPC   C3B33739  -6.820   7.190  11.960
 1817POPC   C4B33740  -6.624   7.223  11.932
 1818POPC   NC333741  23.278  -0.047  16.742
 1818POPC   PO433742  23.129   0.067  16.672
 1818POPC   GL133743  22.980   0.181  16.602
 1818POPC   GL233744  23.036   0.203  16.522
 1818POPC   C1A33745  22.832   0.295  16.532
 1818POPC   D2A33746  22.683   0.409  16.462
 1818POPC   C3A33747  22.535   0.523  16.392
 1818POPC   C4A33748  22.386   0.637  16.322
 1818POPC   C1B33749  22.756   0.137  16.436
 1818POPC   C2B33750  22.607   0.251  16.366
 1818POPC   C3B33751  22.459   0.365  16.296
 1818POPC   C4B33752  22.310   0.479  16.226
 1819POPC   NC333753   1.632  14.759  25.264
 1819POPC   PO433754   1.730  14.705  25.098
 1819POPC   GL133755   1.828  14.651  24.932
 1819POPC   GL233756   1.833  14.557  24.966
 1819POPC   C1A33757   1.926  14.596  24.767
 1819POPC   D2A33758   2.024  14.542  24.601
 1819POPC   C3A33759   2.122  14.487  24.436
 1819POPC   C4A33760   2.220  14.433  24.270
 1819POPC   C1B33761   1.752  14.555  24.677
 1819POPC   C2B33762   1.850  14.501  24.512
 1819POPC   C3B33763   1.948  14.447  24.346
 1819POPC   C4B33764   2.046  14.392  24.180
 1820POPC   NC333765  24.062   0.005  14.873
 1820POPC   PO433766  23.906   0.119  14.820
 1820POPC   GL133767  23.750   0.233  14.767
 1820POPC   GL233768  23.773   0.220  14.671
 1820POPC   C1A33769  23.595   0.347  14.715
 1820POPC   D2A33770  23.439   0.462  14.662
 1820POPC   C3A33771  23.284   0.576  14.610
 1820POPC   C4A33772  23.128   0.690  14.557
 1820POPC   C1B33773  23.478   0.185  14.710
 1820POPC   C2B33774  23.322   0.300  14.658
 1820POPC   C3B33775  23.166   0.414  14.605
 1820POPC   C4B33776  23.011   0.528  14.553
 1821POPC   NC333777  15.101  25.084   1.569
 1821POPC   PO433778  15.044  24.914   1.658
 1821POPC   GL133779  14.987  24.744   1.747
 1821POPC   GL233780  15.049  24.764   1.824
 1821POPC   C1A33781  14.931  24.574   1.837
 1821POPC   D2A33782  14.874  24.405   1.926
 1821POPC   C3A33783  14.818  24.235   2.016
 1821POPC   C4A33784  14.761  24.065   2.105
 1821POPC   C1B33785  14.783  24.673   1.930
 1821POPC   C2B33786  14.727  24.503   2.019
 1821POPC   C3B33787  14.670  24.333   2.108
 1821POPC   C4B33788  14.613  24.163   2.198
 1822POPC   NC333789  25.697   3.384  15.628
 1822POPC   PO433790  25.520   3.455  15.567
 1822POPC   GL133791  25.343   3.526  15.506
 1822POPC   GL233792  25.388   3.571  15.429
 1822POPC   C1A33793  25.166   3.597  15.445
 1822POPC   D2A33794  24.990   3.669  15.385
 1822POPC   C3A33795  24.813   3.740  15.324
 1822POPC   C4A33796  24.636   3.811  15.263
 1822POPC   C1B33797  25.138   3.433  15.335
 1822POPC   C2B33798  24.961   3.504  15.274
 1822POPC   C3B33799  24.785   3.575  15.213
 1822POPC   C4B33800  24.608   3.647  15.153
 1823POPC   NC333801  26.874   5.758  14.269
 1823POPC   PO433802  26.686   5.807  14.222
 1823POPC   GL133803  26.498   5.856  14.175
 1823POPC   GL233804  26.520   5.953  14.185
 1823POPC   C1A33805  26.310   5.905  14.128
 1823POPC   D2A33806  26.121   5.953  14.081
 1823POPC   C3A33807  25.933   6.002  14.034
 1823POPC   C4A33808  25.745   6.051  13.987
 1823POPC   C1B33809  26.360   5.913  13.935
 1823POPC   C2B33810  26.172   5.962  13.888
 1823POPC   C3B33811  25.984   6.011  13.841
 1823POPC   C4B33812  25.796   6.059  13.794
 1824POPC   NC333813  -8.074   8.801   7.930
 1824POPC   PO433814  -7.876   8.811   7.958
 1824POPC   GL133815  -7.678   8.821   7.986
 1824POPC   GL233816  -7.689   8.908   8.034
 1824POPC   C1A33817  -7.480   8.831   8.014
 1824POPC   D2A33818  -7.283   8.840   8.041
 1824POPC   C3A33819  -7.085   8.850   8.069
 1824POPC   C4A33820  -6.887   8.860   8.097
 1824POPC   C1B33821  -7.500   8.733   8.187
 1824POPC   C2B33822  -7.302   8.742   8.215
 1824POPC   C3B33823  -7.104   8.752   8.242
 1824POPC   C4B33824  -6.907   8.762   8.270
 1825POPC   NC333825   7.577  -4.199  20.886
 1825POPC   PO433826   7.602  -4.042  20.765
 1825POPC   GL133827   7.627  -3.885  20.644
 1825POPC   GL233828   7.724  -3.883  20.666
 1825POPC   C1A33829   7.651  -3.728  20.522
 1825POPC   D2A33830   7.676  -3.571  20.401
 1825POPC   C3A33831   7.700  -3.414  20.279
 1825POPC   C4A33832   7.725  -3.257  20.158
 1825POPC   C1B33833   7.690  -3.852  20.370
 1825POPC   C2B33834   7.714  -3.695  20.248
 1825POPC   C3B33835   7.739  -3.538  20.127
 1825POPC   C4B33836   7.764  -3.381  20.006
 1826POPC   NC333837  -3.393  12.500  21.909
 1826POPC   PO433838  -3.245  12.474  21.777
 1826POPC   GL133839  -3.097  12.448  21.645
 1826POPC   GL233840  -3.066  12.368  21.696
 1826POPC   C1A33841  -2.948  12.423  21.514
 1826POPC   D2A33842  -2.800  12.397  21.382
 1826POPC   C3A33843  -2.651  12.372  21.251
 1826POPC   C4A33844  -2.503  12.346  21.119
 1826POPC   C1B33845  -3.067  12.307  21.402
 1826POPC   C2B33846  -2.919  12.281  21.271
 1826POPC   C3B33847  -2.770  12.256  21.139
 1826POPC   C4B33848  -2.622  12.230  21.008
 1827POPC   NC333849   2.227  25.342  15.476
 1827POPC   PO433850   2.314  25.173  15.414
 1827POPC   GL133851   2.401  25.004  15.352
 1827POPC   GL233852   2.490  25.038  15.385
 1827POPC   C1A33853   2.488  24.835  15.291
 1827POPC   D2A33854   2.576  24.666  15.229
 1827POPC   C3A33855   2.663  24.497  15.168
 1827POPC   C4A33856   2.750  24.328  15.106
 1827POPC   C1B33857   2.455  24.752  15.470
 1827POPC   C2B33858   2.542  24.583  15.408
 1827POPC   C3B33859   2.629  24.414  15.347
 1827POPC   C4B33860   2.716  24.245  15.285
 1828POPC   NC333861   6.863  -0.716  -4.330
 1828POPC   PO433862   6.898  -0.594  -4.176
 1828POPC   GL133863   6.933  -0.472  -4.022
 1828POPC   GL233864   6.996  -0.538  -3.983
 1828POPC   C1A33865   6.967  -0.349  -3.867
 1828POPC   D2A33866   7.002  -0.227  -3.713
 1828POPC   C3A33867   7.036  -0.104  -3.558
 1828POPC   C4A33868   7.071   0.018  -3.404
 1828POPC   C1B33869   7.117  -0.264  -3.968
 1828POPC   C2B33870   7.152  -0.142  -3.814
 1828POPC   C3B33871   7.187  -0.019  -3.659
 1828POPC   C4B33872   7.221   0.103  -3.505
 1829POPC   NC333873  22.111   9.208  23.171
 1829POPC   PO433874  21.975   9.214  23.025
 1829POPC   GL133875  21.839   9.220  22.879
 1829POPC   GL233876  21.909   9.251  22.815
 1829POPC   C1A33877  21.703   9.226  22.732
 1829POPC   D2A33878  21.566   9.231  22.586
 1829POPC   C3A33879  21.430   9.237  22.439
 1829POPC   C4A33880  21.294   9.243  22.293
 1829POPC   C1B33881  21.745   9.036  22.685
 1829POPC   C2B33882  21.609   9.042  22.539
 1829POPC   C3B33883  21.472   9.047  22.393
 1829POPC   C4B33884  21.336   9.053  22.246
 1830POPC   NC333885  12.649  24.644  20.033
 1830POPC   PO433886  12.616  24.483  19.919
 1830POPC   GL133887  12.583  24.322  19.805
 1830POPC   GL233888  12.682  24.311  19.792
 1830POPC   C1A33889  12.550  24.161  19.691
 1830POPC   D2A33890  12.518  24.000  19.577
 1830POPC   C3A33891  12.485  23.839  19.463
 1830POPC   C4A33892  12.452  23.678  19.349
 1830POPC   C1B33893  12.560  24.044  19.853
 1830POPC   C2B33894  12.527  23.883  19.739
 1830POPC   C3B33895  12.494  23.722  19.625
 1830POPC   C4B33896  12.461  23.561  19.511
 1831POPC   NC333897  25.735  18.507   9.353
 1831POPC   PO433898  25.558  18.414   9.363
 1831POPC   GL133899  25.381  18.321   9.373
 1831POPC   GL233900  25.382  18.309   9.274
 1831POPC   C1A33901  25.204  18.228   9.384
 1831POPC   D2A33902  25.028  18.136   9.394
 1831POPC   C3A33903  24.851  18.043   9.405
 1831POPC   C4A33904  24.674  17.950   9.415
 1831POPC   C1B33905  25.298  18.053   9.406
 1831POPC   C2B33906  25.121  17.960   9.417
 1831POPC   C3B33907  24.944  17.867   9.427
 1831POPC   C4B33908  24.767  17.775   9.438
 1832POPC   NC333909  -6.475   4.618  15.430
 1832POPC   PO433910  -6.293   4.680  15.375
 1832POPC   GL133911  -6.111   4.742  15.320
 1832POPC   GL233912  -6.096   4.780  15.411
 1832POPC   C1A33913  -5.929   4.804  15.265
 1832POPC   D2A33914  -5.747   4.866  15.210
 1832POPC   C3A33915  -5.565   4.928  15.155
 1832POPC   C4A33916  -5.383   4.990  15.100
 1832POPC   C1B33917  -5.851   4.630  15.326
 1832POPC   C2B33918  -5.669   4.692  15.271
 1832POPC   C3B33919  -5.487   4.754  15.216
 1832POPC   C4B33920  -5.305   4.816  15.161
 1833POPC   NC333921  27.666  12.664   8.663
 1833POPC   PO433922  27.468  12.641   8.674
 1833POPC   GL133923  27.270  12.618   8.685
 1833POPC   GL233924  27.266  12.604   8.586
 1833POPC   C1A33925  27.071  12.595   8.696
 1833POPC   D2A33926  26.873  12.571   8.706
 1833POPC   C3A33927  26.674  12.548   8.717
 1833POPC   C4A33928  26.476  12.525   8.728
 1833POPC   C1B33929  27.096  12.398   8.723
 1833POPC   C2B33930  26.897  12.375   8.733
 1833POPC   C3B33931  26.699  12.352   8.744
 1833POPC   C4B33932  26.501  12.328   8.755
 1834POPC   NC333933   2.394  23.195  19.745
 1834POPC   PO433934   2.474  23.048  19.635
 1834POPC   GL133935   2.554  22.901  19.525
 1834POPC   GL233936   2.643  22.945  19.531
 1834POPC   C1A33937   2.634  22.754  19.415
 1834POPC   D2A33938   2.713  22.607  19.306
 1834POPC   C3A33939   2.793  22.460  19.196
 1834POPC   C4A33940   2.873  22.313  19.086
 1834POPC   C1B33941   2.674  22.651  19.582
 1834POPC   C2B33942   2.754  22.504  19.472
 1834POPC   C3B33943   2.834  22.357  19.363
 1834POPC   C4B33944   2.913  22.210  19.253
 1835POPC   NC333945  -0.219  22.793  17.747
 1835POPC   PO433946  -0.108  22.650  17.663
 1835POPC   GL133947   0.003  22.507  17.579
 1835POPC   GL233948   0.065  22.508  17.658
 1835POPC   C1A33949   0.115  22.364  17.495
 1835POPC   D2A33950   0.226  22.220  17.410
 1835POPC   C3A33951   0.338  22.077  17.326
 1835POPC   C4A33952   0.449  21.934  17.242
 1835POPC   C1B33953   0.002  22.224  17.583
 1835POPC   C2B33954   0.114  22.081  17.499
 1835POPC   C3B33955   0.225  21.938  17.415
 1835POPC   C4B33956   0.337  21.794  17.331
 1836POPC   NC333957   6.748  27.157  14.640
 1836POPC   PO433958   6.784  26.968  14.584
 1836POPC   GL133959   6.820  26.779  14.528
 1836POPC   GL233960   6.890  26.772  14.599
 1836POPC   C1A33961   6.856  26.591  14.472
 1836POPC   D2A33962   6.893  26.402  14.416
 1836POPC   C3A33963   6.929  26.214  14.360
 1836POPC   C4A33964   6.965  26.025  14.304
 1836POPC   C1B33965   6.719  26.526  14.602
 1836POPC   C2B33966   6.755  26.337  14.546
 1836POPC   C3B33967   6.791  26.149  14.490
 1836POPC   C4B33968   6.827  25.960  14.434
 1837POPC   NC333969  15.131  -7.279   9.176
 1837POPC   PO433970  15.067  -7.090   9.187
 1837POPC   GL133971  15.003  -6.901   9.198
 1837POPC   GL233972  15.037  -6.895   9.292
 1837POPC   C1A33973  14.939  -6.712   9.209
 1837POPC   D2A33974  14.876  -6.522   9.219
 1837POPC   C3A33975  14.812  -6.333   9.230
 1837POPC   C4A33976  14.748  -6.144   9.241
 1837POPC   C1B33977  15.117  -6.648   9.141
 1837POPC   C2B33978  15.053  -6.459   9.152
 1837POPC   C3B33979  14.989  -6.270   9.162
 1837POPC   C4B33980  14.925  -6.080   9.173
 1838POPC   NC333981  16.379  19.150  24.065
 1838POPC   PO433982  16.308  19.050  23.907
 1838POPC   GL133983  16.237  18.950  23.749
 1838POPC   GL233984  16.272  18.865  23.787
 1838POPC   C1A33985  16.165  18.850  23.591
 1838POPC   D2A33986  16.094  18.749  23.434
 1838POPC   C3A33987  16.022  18.649  23.276
 1838POPC   C4A33988  15.951  18.549  23.118
 1838POPC   C1B33989  15.993  18.820  23.688
 1838POPC   C2B33990  15.921  18.720  23.530
 1838POPC   C3B33991  15.850  18.620  23.372
 1838POPC   C4B33992  15.778  18.520  23.215
 1839POPC   NC333993   8.474  -7.871   7.886
 1839POPC   PO433994   8.490  -7.673   7.906
 1839POPC   GL133995   8.506  -7.475   7.926
 1839POPC   GL233996   8.600  -7.479   7.890
 1839POPC   C1A33997   8.523  -7.276   7.946
 1839POPC   D2A33998   8.539  -7.078   7.965
 1839POPC   C3A33999   8.556  -6.879   7.985
 1839POPC   C4A34000   8.572  -6.681   8.005
 1839POPC   C1B34001   8.453  -7.252   7.760
 1839POPC   C2B34002   8.470  -7.054   7.779
 1839POPC   C3B34003   8.486  -6.855   7.799
 1839POPC   C4B34004   8.503  -6.657   7.819
 1840POPC   NC334005  14.300  18.095  25.397
 1840POPC   PO434006  14.253  18.007  25.224
 1840POPC   GL134007  14.206  17.919  25.051
 1840POPC   GL234008  14.264  17.841  25.075
 1840POPC   C1A34009  14.160  17.831  24.877
 1840POPC   D2A34010  14.113  17.742  24.704
 1840POPC   C3A34011  14.067  17.654  24.530
 1840POPC   C4A34012  14.020  17.566  24.357
 1840POPC   C1B34013  14.003  17.742  24.964
 1840POPC   C2B34014  13.956  17.654  24.791
 1840POPC   C3B34015  13.910  17.566  24.618
 1840POPC   C4B34016  13.863  17.478  24.444
 1841POPC   NC334017   7.240  25.839  18.197
 1841POPC   PO434018   7.269  25.663  18.107
 1841POPC   GL134019   7.298  25.487  18.017
 1841POPC   GL234020   7.394  25.488  18.046
 1841POPC   C1A34021   7.328  25.311  17.927
 1841POPC   D2A34022   7.357  25.135  17.836
 1841POPC   C3A34023   7.387  24.959  17.746
 1841POPC   C4A34024   7.416  24.783  17.656
 1841POPC   C1B34025   7.277  25.216  18.095
 1841POPC   C2B34026   7.306  25.040  18.005
 1841POPC   C3B34027   7.335  24.864  17.915
 1841POPC   C4B34028   7.365  24.688  17.824
 1842POPC   NC334029  15.027  -5.813   2.884
 1842POPC   PO434030  14.965  -5.639   2.960
 1842POPC   GL134031  14.903  -5.465   3.036
 1842POPC   GL234032  14.981  -5.419   2.994
 1842POPC   C1A34033  14.841  -5.291   3.112
 1842POPC   D2A34034  14.778  -5.116   3.188
 1842POPC   C3A34035  14.716  -4.942   3.264
 1842POPC   C4A34036  14.654  -4.768   3.340
 1842POPC   C1B34037  14.732  -5.258   2.947
 1842POPC   C2B34038  14.670  -5.083   3.023
 1842POPC   C3B34039  14.607  -4.909   3.099
 1842POPC   C4B34040  14.545  -4.735   3.175
 1843POPC   NC334041  12.282  11.333  -7.946
 1843POPC   PO434042  12.254  11.313  -7.749
 1843POPC   GL134043  12.226  11.293  -7.552
 1843POPC   GL234044  12.302  11.228  -7.548
 1843POPC   C1A34045  12.198  11.274  -7.355
 1843POPC   D2A34046  12.171  11.254  -7.158
 1843POPC   C3A34047  12.143  11.235  -6.961
 1843POPC   C4A34048  12.115  11.215  -6.764
 1843POPC   C1B34049  12.326  11.425  -7.322
 1843POPC   C2B34050  12.298  11.405  -7.125
 1843POPC   C3B34051  12.270  11.385  -6.928
 1843POPC   C4B34052  12.242  11.366  -6.731
 1844POPC   NC334053   7.707   4.450  26.904
 1844POPC   PO434054   7.734   4.515  26.717
 1844POPC   GL134055   7.761   4.580  26.530
 1844POPC   GL234056   7.842   4.632  26.560
 1844POPC   C1A34057   7.789   4.645  26.343
 1844POPC   D2A34058   7.816   4.711  26.156
 1844POPC   C3A34059   7.844   4.776  25.969
 1844POPC   C4A34060   7.871   4.841  25.782
 1844POPC   C1B34061   7.905   4.487  26.305
 1844POPC   C2B34062   7.932   4.552  26.118
 1844POPC   C3B34063   7.959   4.617  25.931
 1844POPC   C4B34064   7.987   4.683  25.744
 1845POPC   NC334065  10.511  -7.498  14.475
 1845POPC   PO434066  10.501  -7.303  14.430
 1845POPC   GL134067  10.491  -7.108  14.385
 1845POPC   GL234068  10.551  -7.124  14.307
 1845POPC   C1A34069  10.481  -6.914  14.339
 1845POPC   D2A34070  10.470  -6.719  14.294
 1845POPC   C3A34071  10.460  -6.525  14.248
 1845POPC   C4A34072  10.450  -6.330  14.203
 1845POPC   C1B34073  10.322  -6.949  14.223
 1845POPC   C2B34074  10.312  -6.755  14.177
 1845POPC   C3B34075  10.301  -6.560  14.132
 1845POPC   C4B34076  10.291  -6.365  14.087
 1846POPC   NC334077  23.779   2.344   1.321
 1846POPC   PO434078  23.628   2.430   1.421
 1846POPC   GL134079  23.477   2.516   1.521
 1846POPC   GL234080  23.504   2.605   1.484
 1846POPC   C1A34081  23.326   2.601   1.620
 1846POPC   D2A34082  23.176   2.687   1.720
 1846POPC   C3A34083  23.025   2.772   1.819
 1846POPC   C4A34084  22.874   2.858   1.919
 1846POPC   C1B34085  23.206   2.573   1.463
 1846POPC   C2B34086  23.056   2.659   1.562
 1846POPC   C3B34087  22.905   2.744   1.662
 1846POPC   C4B34088  22.754   2.830   1.761
 1847POPC   NC334089   0.763   7.489  25.374
 1847POPC   PO434090   0.866   7.522  25.206
 1847POPC   GL134091   0.969   7.555  25.038
 1847POPC   GL234092   0.976   7.457  25.022
 1847POPC   C1A34093   1.073   7.589  24.870
 1847POPC   D2A34094   1.176   7.622  24.703
 1847POPC   C3A34095   1.280   7.656  24.535
 1847POPC   C4A34096   1.383   7.689  24.367
 1847POPC   C1B34097   0.902   7.595  24.766
 1847POPC   C2B34098   1.006   7.628  24.599
 1847POPC   C3B34099   1.109   7.662  24.431
 1847POPC   C4B34100   1.212   7.695  24.263
 1848POPC   NC334101  23.140  -0.619   3.790
 1848POPC   PO434102  22.993  -0.501   3.857
 1848POPC   GL134103  22.846  -0.383   3.924
 1848POPC   GL234104  22.909  -0.306   3.927
 1848POPC   C1A34105  22.699  -0.265   3.990
 1848POPC   D2A34106  22.552  -0.147   4.057
 1848POPC   C3A34107  22.405  -0.029   4.123
 1848POPC   C4A34108  22.258   0.089   4.190
 1848POPC   C1B34109  22.651  -0.218   3.802
 1848POPC   C2B34110  22.504  -0.100   3.868
 1848POPC   C3B34111  22.357   0.018   3.935
 1848POPC   C4B34112  22.210   0.136   4.002
 1849POPC   NC334113  20.876  -3.002  15.898
 1849POPC   PO434114  20.755  -2.857  15.832
 1849POPC   GL134115  20.634  -2.712  15.766
 1849POPC   GL234116  20.700  -2.690  15.694
 1849POPC   C1A34117  20.513  -2.567  15.700
 1849POPC   D2A34118  20.393  -2.421  15.635
 1849POPC   C3A34119  20.272  -2.276  15.569
 1849POPC   C4A34120  20.151  -2.131  15.503
 1849POPC   C1B34121  20.422  -2.697  15.579
 1849POPC   C2B34122  20.302  -2.552  15.514
 1849POPC   C3B34123  20.181  -2.407  15.448
 1849POPC   C4B34124  20.060  -2.262  15.382
 1850POPC   NC334125  15.186  21.280  23.007
 1850POPC   PO434126  15.128  21.155  22.862
 1850POPC   GL134127  15.070  21.030  22.717
 1850POPC   GL234128  15.161  21.036  22.676
 1850POPC   C1A34129  15.012  20.905  22.572
 1850POPC   D2A34130  14.954  20.779  22.428
 1850POPC   C3A34131  14.896  20.654  22.283
 1850POPC   C4A34132  14.838  20.529  22.138
 1850POPC   C1B34133  15.073  20.749  22.682
 1850POPC   C2B34134  15.015  20.624  22.538
 1850POPC   C3B34135  14.957  20.499  22.393
 1850POPC   C4B34136  14.899  20.373  22.248
 1851POPC   NC334137  -3.108  14.418  21.698
 1851POPC   PO434138  -2.967  14.371  21.564
 1851POPC   GL134139  -2.826  14.324  21.430
 1851POPC   GL234140  -2.801  14.244  21.484
 1851POPC   C1A34141  -2.685  14.277  21.296
 1851POPC   D2A34142  -2.544  14.230  21.163
 1851POPC   C3A34143  -2.403  14.183  21.029
 1851POPC   C4A34144  -2.262  14.136  20.895
 1851POPC   C1B34145  -2.818  14.168  21.195
 1851POPC   C2B34146  -2.677  14.121  21.061
 1851POPC   C3B34147  -2.536  14.074  20.927
 1851POPC   C4B34148  -2.395  14.027  20.793
 1852POPC   NC334149  12.417   5.913  -7.480
 1852POPC   PO434150  12.393   5.963  -7.288
 1852POPC   GL134151  12.369   6.013  -7.096
 1852POPC   GL234152  12.325   6.098  -7.123
 1852POPC   C1A34153  12.346   6.062  -6.903
 1852POPC   D2A34154  12.322   6.112  -6.711
 1852POPC   C3A34155  12.299   6.161  -6.518
 1852POPC   C4A34156  12.275   6.211  -6.326
 1852POPC   C1B34157  12.168   5.970  -6.901
 1852POPC   C2B34158  12.145   6.020  -6.709
 1852POPC   C3B34159  12.121   6.070  -6.516
 1852POPC   C4B34160  12.097   6.119  -6.324
 1853POPC   NC334161  -3.165  14.780  21.504
 1853POPC   PO434162  -3.024  14.729  21.372
 1853POPC   GL134163  -2.883  14.678  21.240
 1853POPC   GL234164  -2.842  14.616  21.307
 1853POPC   C1A34165  -2.742  14.626  21.107
 1853POPC   D2A34166  -2.602  14.575  20.975
 1853POPC   C3A34167  -2.461  14.523  20.842
 1853POPC   C4A34168  -2.320  14.472  20.710
 1853POPC   C1B34169  -2.859  14.477  21.041
 1853POPC   C2B34170  -2.718  14.426  20.909
 1853POPC   C3B34171  -2.577  14.375  20.777
 1853POPC   C4B34172  -2.436  14.323  20.644
 1854POPC   NC334173   2.191  25.161  15.902
 1854POPC   PO434174   2.279  24.994  15.836
 1854POPC   GL134175   2.367  24.827  15.770
 1854POPC   GL234176   2.456  24.870  15.781
 1854POPC   C1A34177   2.454  24.659  15.705
 1854POPC   D2A34178   2.542  24.492  15.639
 1854POPC   C3A34179   2.629  24.324  15.574
 1854POPC   C4A34180   2.717  24.157  15.508
 1854POPC   C1B34181   2.465  24.591  15.893
 1854POPC   C2B34182   2.553  24.424  15.827
 1854POPC   C3B34183   2.640  24.256  15.761
 1854POPC   C4B34184   2.728  24.089  15.696
 1855POPC   NC334185  16.415  25.569   3.700
 1855POPC   PO434186  16.347  25.393   3.766
 1855POPC   GL134187  16.279  25.217   3.832
 1855POPC   GL234188  16.296  25.177   3.742
 1855POPC   C1A34189  16.212  25.041   3.899
 1855POPC   D2A34190  16.144  24.864   3.965
 1855POPC   C3A34191  16.077  24.688   4.032
 1855POPC   C4A34192  16.009  24.512   4.098
 1855POPC   C1B34193  16.397  24.991   3.955
 1855POPC   C2B34194  16.330  24.814   4.021
 1855POPC   C3B34195  16.262  24.638   4.088
 1855POPC   C4B34196  16.194  24.462   4.154
 1856POPC   NC334197  -4.405  19.944  14.707
 1856POPC   PO434198  -4.247  19.833  14.655
 1856POPC   GL134199  -4.089  19.722  14.603
 1856POPC   GL234200  -4.030  19.778  14.661
 1856POPC   C1A34201  -3.931  19.611  14.551
 1856POPC   D2A34202  -3.773  19.500  14.499
 1856POPC   C3A34203  -3.615  19.389  14.447
 1856POPC   C4A34204  -3.457  19.278  14.395
 1856POPC   C1B34205  -3.966  19.489  14.705
 1856POPC   C2B34206  -3.808  19.378  14.653
 1856POPC   C3B34207  -3.650  19.267  14.601
 1856POPC   C4B34208  -3.492  19.156  14.549
 1857POPC   NC334209  21.073  -3.926   7.248
 1857POPC   PO434210  20.948  -3.773   7.279
 1857POPC   GL134211  20.823  -3.620   7.310
 1857POPC   GL234212  20.823  -3.601   7.211
 1857POPC   C1A34213  20.699  -3.466   7.340
 1857POPC   D2A34214  20.574  -3.313   7.371
 1857POPC   C3A34215  20.450  -3.159   7.401
 1857POPC   C4A34216  20.325  -3.006   7.432
 1857POPC   C1B34217  20.542  -3.589   7.318
 1857POPC   C2B34218  20.418  -3.435   7.349
 1857POPC   C3B34219  20.293  -3.282   7.379
 1857POPC   C4B34220  20.169  -3.129   7.410
 1858POPC   NC334221   2.525  14.144  -6.032
 1858POPC   PO434222   2.610  14.099  -5.856
 1858POPC   GL134223   2.695  14.054  -5.680
 1858POPC   GL234224   2.628  14.113  -5.634
 1858POPC   C1A34225   2.779  14.010  -5.505
 1858POPC   D2A34226   2.864  13.965  -5.329
 1858POPC   C3A34227   2.948  13.921  -5.154
 1858POPC   C4A34228   3.033  13.876  -4.978
 1858POPC   C1B34229   2.655  13.854  -5.485
 1858POPC   C2B34230   2.740  13.809  -5.309
 1858POPC   C3B34231   2.825  13.765  -5.134
 1858POPC   C4B34232   2.909  13.720  -4.958
 1859POPC   NC334233  -4.962  20.207  11.452
 1859POPC   PO434234  -4.799  20.093  11.432
 1859POPC   GL134235  -4.636  19.979  11.412
 1859POPC   GL234236  -4.629  19.971  11.511
 1859POPC   C1A34237  -4.473  19.864  11.392
 1859POPC   D2A34238  -4.311  19.750  11.371
 1859POPC   C3A34239  -4.148  19.635  11.351
 1859POPC   C4A34240  -3.985  19.521  11.331
 1859POPC   C1B34241  -4.589  19.701  11.387
 1859POPC   C2B34242  -4.426  19.586  11.367
 1859POPC   C3B34243  -4.263  19.472  11.347
 1859POPC   C4B34244  -4.100  19.358  11.327
 1860POPC   NC334245   2.473  26.093  13.312
 1860POPC   PO434246   2.555  25.915  13.272
 1860POPC   GL134247   2.637  25.737  13.232
 1860POPC   GL234248   2.706  25.753  13.303
 1860POPC   C1A34249   2.719  25.559  13.191
 1860POPC   D2A34250   2.802  25.382  13.151
 1860POPC   C3A34251   2.884  25.204  13.110
 1860POPC   C4A34252   2.966  25.026  13.070
 1860POPC   C1B34253   2.599  25.473  13.326
 1860POPC   C2B34254   2.681  25.295  13.285
 1860POPC   C3B34255   2.764  25.118  13.245
 1860POPC   C4B34256   2.846  24.940  13.205
 1861POPC   NC334257  13.874  26.452   3.937
 1861POPC   PO434258  13.828  26.269   4.004
 1861POPC   GL134259  13.782  26.086   4.071
 1861POPC   GL234260  13.878  26.060   4.064
 1861POPC   C1A34261  13.737  25.903   4.138
 1861POPC   D2A34262  13.691  25.721   4.204
 1861POPC   C3A34263  13.646  25.538   4.271
 1861POPC   C4A34264  13.600  25.355   4.338
 1861POPC   C1B34265  13.767  25.964   4.326
 1861POPC   C2B34266  13.722  25.782   4.392
 1861POPC   C3B34267  13.676  25.599   4.459
 1861POPC   C4B34268  13.631  25.416   4.526
 1862POPC   NC334269   3.052  10.421  26.624
 1862POPC   PO434270   3.118  10.408  26.436
 1862POPC   GL134271   3.184  10.395  26.248
 1862POPC   GL234272   3.259  10.336  26.278
 1862POPC   C1A34273   3.251  10.382  26.060
 1862POPC   D2A34274   3.317  10.370  25.871
 1862POPC   C3A34275   3.384  10.357  25.683
 1862POPC   C4A34276   3.450  10.344  25.495
 1862POPC   C1B34277   3.136  10.221  26.030
 1862POPC   C2B34278   3.202  10.209  25.842
 1862POPC   C3B34279   3.269  10.196  25.654
 1862POPC   C4B34280   3.335  10.183  25.465
 1863POPC   NC334281  27.531   8.356   6.885
 1863POPC   PO434282  27.334   8.372   6.918
 1863POPC   GL134283  27.137   8.388   6.951
 1863POPC   GL234284  27.144   8.488   6.939
 1863POPC   C1A34285  26.941   8.405   6.983
 1863POPC   D2A34286  26.744   8.421   7.016
 1863POPC   C3A34287  26.548   8.438   7.048
 1863POPC   C4A34288  26.351   8.454   7.081
 1863POPC   C1B34289  26.907   8.385   6.787
 1863POPC   C2B34290  26.710   8.401   6.820
 1863POPC   C3B34291  26.513   8.418   6.852
 1863POPC   C4B34292  26.317   8.434   6.885
 1864POPC   NC334293  -3.685   9.029  21.819
 1864POPC   PO434294  -3.534   9.036  21.688
 1864POPC   GL134295  -3.383   9.043  21.557
 1864POPC   GL234296  -3.345   8.959  21.596
 1864POPC   C1A34297  -3.232   9.050  21.426
 1864POPC   D2A34298  -3.081   9.056  21.296
 1864POPC   C3A34299  -2.930   9.063  21.165
 1864POPC   C4A34300  -2.779   9.070  21.034
 1864POPC   C1B34301  -3.339   8.941  21.297
 1864POPC   C2B34302  -3.188   8.947  21.166
 1864POPC   C3B34303  -3.037   8.954  21.036
 1864POPC   C4B34304  -2.886   8.961  20.905
 1865POPC   NC334305  11.230  12.211  -7.950
 1865POPC   PO434306  11.215  12.182  -7.753
 1865POPC   GL134307  11.200  12.153  -7.556
 1865POPC   GL234308  11.213  12.055  -7.569
 1865POPC   C1A34309  11.185  12.124  -7.358
 1865POPC   D2A34310  11.170  12.096  -7.161
 1865POPC   C3A34311  11.155  12.067  -6.963
 1865POPC   C4A34312  11.140  12.038  -6.766
 1865POPC   C1B34313  11.383  12.149  -7.340
 1865POPC   C2B34314  11.368  12.120  -7.142
 1865POPC   C3B34315  11.353  12.091  -6.945
 1865POPC   C4B34316  11.338  12.063  -6.747
 1866POPC   NC334317   7.942  26.207  17.654
 1866POPC   PO434318   7.964  26.027  17.570
 1866POPC   GL134319   7.986  25.847  17.486
 1866POPC   GL234320   7.993  25.805  17.577
 1866POPC   C1A34321   8.008  25.667  17.402
 1866POPC   D2A34322   8.031  25.487  17.317
 1866POPC   C3A34323   8.053  25.307  17.233
 1866POPC   C4A34324   8.075  25.127  17.149
 1866POPC   C1B34325   7.810  25.641  17.405
 1866POPC   C2B34326   7.832  25.461  17.321
 1866POPC   C3B34327   7.855  25.281  17.237
 1866POPC   C4B34328   7.877  25.101  17.152
 1867POPC   NC334329  26.221   5.854  16.338
 1867POPC   PO434330  26.041   5.901  16.264
 1867POPC   GL134331  25.861   5.948  16.190
 1867POPC   GL234332  25.900   6.029  16.147
 1867POPC   C1A34333  25.681   5.995  16.116
 1867POPC   D2A34334  25.502   6.042  16.042
 1867POPC   C3A34335  25.322   6.089  15.968
 1867POPC   C4A34336  25.142   6.136  15.894
 1867POPC   C1B34337  25.721   5.889  15.951
 1867POPC   C2B34338  25.542   5.936  15.877
 1867POPC   C3B34339  25.362   5.983  15.803
 1867POPC   C4B34340  25.182   6.030  15.729
 1868POPC   NC334341  -5.219   0.774  13.564
 1868POPC   PO434342  -5.051   0.874  13.522
 1868POPC   GL134343  -4.883   0.974  13.480
 1868POPC   GL234344  -4.837   0.888  13.458
 1868POPC   C1A34345  -4.715   1.074  13.438
 1868POPC   D2A34346  -4.547   1.173  13.395
 1868POPC   C3A34347  -4.379   1.273  13.353
 1868POPC   C4A34348  -4.211   1.373  13.311
 1868POPC   C1B34349  -4.773   1.091  13.247
 1868POPC   C2B34350  -4.605   1.191  13.205
 1868POPC   C3B34351  -4.437   1.291  13.163
 1868POPC   C4B34352  -4.269   1.391  13.120
 1869POPC   NC334353  -2.837  -2.092   5.616
 1869POPC   PO434354  -2.694  -1.960   5.663
 1869POPC   GL134355  -2.551  -1.828   5.710
 1869POPC   GL234356  -2.565  -1.848   5.807
 1869POPC   C1A34357  -2.408  -1.697   5.758
 1869POPC   D2A34358  -2.266  -1.565   5.805
 1869POPC   C3A34359  -2.123  -1.434   5.853
 1869POPC   C4A34360  -1.980  -1.302   5.900
 1869POPC   C1B34361  -2.271  -1.842   5.747
 1869POPC   C2B34362  -2.128  -1.710   5.795
 1869POPC   C3B34363  -1.986  -1.579   5.842
 1869POPC   C4B34364  -1.843  -1.447   5.890
 1870POPC   NC334365  19.838  20.729  -0.543
 1870POPC   PO434366  19.725  20.606  -0.433
 1870POPC   GL134367  19.612  20.483  -0.323
 1870POPC   GL234368  19.695  20.435  -0.292
 1870POPC   C1A34369  19.500  20.359  -0.213
 1870POPC   D2A34370  19.387  20.236  -0.103
 1870POPC   C3A34371  19.275  20.112   0.007
 1870POPC   C4A34372  19.162  19.989   0.117
 1870POPC   C1B34373  19.514  20.484  -0.058
 1870POPC   C2B34374  19.402  20.361   0.052
 1870POPC   C3B34375  19.289  20.238   0.162
 1870POPC   C4B34376  19.176  20.114   0.272
 1871POPC   NC334377  17.592  -5.340  15.517
 1871POPC   PO434378  17.508  -5.169  15.456
 1871POPC   GL134379  17.424  -4.998  15.395
 1871POPC   GL234380  17.461  -4.951  15.476
 1871POPC   C1A34381  17.340  -4.827  15.335
 1871POPC   D2A34382  17.257  -4.655  15.274
 1871POPC   C3A34383  17.173  -4.484  15.214
 1871POPC   C4A34384  17.089  -4.313  15.153
 1871POPC   C1B34385  17.506  -4.782  15.232
 1871POPC   C2B34386  17.422  -4.611  15.171
 1871POPC   C3B34387  17.338  -4.439  15.111
 1871POPC   C4B34388  17.255  -4.268  15.050
 1872POPC   NC334389  13.056  -1.946  -3.220
 1872POPC   PO434390  13.020  -1.815  -3.074
 1872POPC   GL134391  12.984  -1.684  -2.928
 1872POPC   GL234392  13.062  -1.629  -2.958
 1872POPC   C1A34393  12.948  -1.552  -2.781
 1872POPC   D2A34394  12.912  -1.421  -2.635
 1872POPC   C3A34395  12.876  -1.289  -2.488
 1872POPC   C4A34396  12.840  -1.158  -2.342
 1872POPC   C1B34397  12.828  -1.449  -2.903
 1872POPC   C2B34398  12.792  -1.318  -2.757
 1872POPC   C3B34399  12.756  -1.186  -2.611
 1872POPC   C4B34400  12.720  -1.055  -2.464
 1873POPC   NC334401   3.493   1.428  -4.646
 1873POPC   PO434402   3.568   1.527  -4.489
 1873POPC   GL134403   3.643   1.626  -4.332
 1873POPC   GL234404   3.715   1.556  -4.323
 1873POPC   C1A34405   3.719   1.724  -4.175
 1873POPC   D2A34406   3.794   1.823  -4.019
 1873POPC   C3A34407   3.870   1.921  -3.862
 1873POPC   C4A34408   3.945   2.020  -3.705
 1873POPC   C1B34409   3.836   1.830  -4.298
 1873POPC   C2B34410   3.911   1.929  -4.141
 1873POPC   C3B34411   3.987   2.027  -3.985
 1873POPC   C4B34412   4.062   2.126  -3.828
 1874POPC   NC334413  24.945   4.247  18.019
 1874POPC   PO434414  24.778   4.304  17.926
 1874POPC   GL134415  24.611   4.361  17.833
 1874POPC   GL234416  24.627   4.456  17.861
 1874POPC   C1A34417  24.443   4.419  17.739
 1874POPC   D2A34418  24.276   4.476  17.646
 1874POPC   C3A34419  24.108   4.534  17.552
 1874POPC   C4A34420  23.941   4.591  17.459
 1874POPC   C1B34421  24.548   4.450  17.572
 1874POPC   C2B34422  24.380   4.508  17.478
 1874POPC   C3B34423  24.213   4.565  17.385
 1874POPC   C4B34424  24.045   4.623  17.291
 1875POPC   NC334425  -0.199  20.259  -1.056
 1875POPC   PO434426  -0.087  20.144  -0.936
 1875POPC   GL134427   0.025  20.029  -0.816
 1875POPC   GL234428   0.108  20.069  -0.856
 1875POPC   C1A34429   0.137  19.915  -0.697
 1875POPC   D2A34430   0.249  19.800  -0.577
 1875POPC   C3A34431   0.361  19.686  -0.458
 1875POPC   C4A34432   0.473  19.571  -0.338
 1875POPC   C1B34433   0.136  20.059  -0.558
 1875POPC   C2B34434   0.248  19.944  -0.438
 1875POPC   C3B34435   0.360  19.829  -0.319
 1875POPC   C4B34436   0.472  19.715  -0.199
 1876POPC   NC334437  -5.231  11.480   0.083
 1876POPC   PO434438  -5.064  11.468   0.193
 1876POPC   GL134439  -4.897  11.456   0.303
 1876POPC   GL234440  -4.922  11.364   0.331
 1876POPC   C1A34441  -4.730  11.445   0.412
 1876POPC   D2A34442  -4.564  11.433   0.522
 1876POPC   C3A34443  -4.397  11.422   0.631
 1876POPC   C4A34444  -4.230  11.410   0.741
 1876POPC   C1B34445  -4.632  11.370   0.255
 1876POPC   C2B34446  -4.465  11.359   0.364
 1876POPC   C3B34447  -4.299  11.347   0.474
 1876POPC   C4B34448  -4.132  11.335   0.584
 1877POPC   NC334449  22.110  -0.094  18.623
 1877POPC   PO434450  21.981   0.020  18.521
 1877POPC   GL134451  21.852   0.134  18.419
 1877POPC   GL234452  21.927   0.195  18.392
 1877POPC   C1A34453  21.723   0.248  18.318
 1877POPC   D2A34454  21.593   0.362  18.216
 1877POPC   C3A34455  21.464   0.476  18.115
 1877POPC   C4A34456  21.335   0.590  18.013
 1877POPC   C1B34457  21.753   0.137  18.154
 1877POPC   C2B34458  21.624   0.251  18.053
 1877POPC   C3B34459  21.495   0.365  17.951
 1877POPC   C4B34460  21.366   0.479  17.849
 1878POPC   NC334461  12.917  -3.394  21.515
 1878POPC   PO434462  12.885  -3.247  21.383
 1878POPC   GL134463  12.853  -3.100  21.251
 1878POPC   GL234464  12.948  -3.071  21.260
 1878POPC   C1A34465  12.821  -2.953  21.119
 1878POPC   D2A34466  12.788  -2.807  20.987
 1878POPC   C3A34467  12.756  -2.660  20.855
 1878POPC   C4A34468  12.724  -2.513  20.723
 1878POPC   C1B34469  12.871  -3.076  20.970
 1878POPC   C2B34470  12.839  -2.930  20.838
 1878POPC   C3B34471  12.807  -2.783  20.706
 1878POPC   C4B34472  12.775  -2.636  20.574
 1879POPC   NC334473   1.053  25.595   8.482
 1879POPC   PO434474   1.156  25.425   8.501
 1879POPC   GL134475   1.259  25.255   8.520
 1879POPC   GL234476   1.343  25.303   8.496
 1879POPC   C1A34477   1.362  25.084   8.540
 1879POPC   D2A34478   1.465  24.914   8.559
 1879POPC   C3A34479   1.568  24.743   8.579
 1879POPC   C4A34480   1.671  24.573   8.598
 1879POPC   C1B34481   1.395  25.126   8.733
 1879POPC   C2B34482   1.498  24.956   8.752
 1879POPC   C3B34483   1.601  24.785   8.771
 1879POPC   C4B34484   1.704  24.615   8.791
 1880POPC   NC334485   2.350  12.375  -6.293
 1880POPC   PO434486   2.438  12.348  -6.115
 1880POPC   GL134487   2.526  12.321  -5.937
 1880POPC   GL234488   2.503  12.415  -5.912
 1880POPC   C1A34489   2.614  12.295  -5.760
 1880POPC   D2A34490   2.703  12.268  -5.582
 1880POPC   C3A34491   2.791  12.242  -5.405
 1880POPC   C4A34492   2.879  12.215  -5.227
 1880POPC   C1B34493   2.441  12.230  -5.683
 1880POPC   C2B34494   2.529  12.204  -5.506
 1880POPC   C3B34495   2.618  12.177  -5.328
 1880POPC   C4B34496   2.706  12.151  -5.151
 1881POPC   NC334497  11.192  22.353  -3.108
 1881POPC   PO434498  11.180  22.217  -2.962
 1881POPC   GL134499  11.168  22.081  -2.816
 1881POPC   GL234500  11.264  22.098  -2.793
 1881POPC   C1A34501  11.157  21.945  -2.670
 1881POPC   D2A34502  11.145  21.808  -2.524
 1881POPC   C3A34503  11.134  21.672  -2.378
 1881POPC   C4A34504  11.122  21.536  -2.232
 1881POPC   C1B34505  11.101  22.087  -2.542
 1881POPC   C2B34506  11.089  21.951  -2.396
 1881POPC   C3B34507  11.077  21.815  -2.250
 1881POPC   C4B34508  11.066  21.679  -2.104
 1882POPC   NC334509  -6.320   9.187  17.884
 1882POPC   PO434510  -6.140   9.198  17.798
 1882POPC   GL134511  -5.960   9.209  17.712
 1882POPC   GL234512  -5.952   9.305  17.739
 1882POPC   C1A34513  -5.780   9.220  17.626
 1882POPC   D2A34514  -5.599   9.230  17.540
 1882POPC   C3A34515  -5.419   9.241  17.454
 1882POPC   C4A34516  -5.239   9.252  17.368
 1882POPC   C1B34517  -5.694   9.164  17.798
 1882POPC   C2B34518  -5.514   9.175  17.712
 1882POPC   C3B34519  -5.334   9.185  17.626
 1882POPC   C4B34520  -5.154   9.196  17.540
 1883POPC   NC334521  27.788  10.691  11.144
 1883POPC   PO434522  27.589  10.684  11.132
 1883POPC   GL134523  27.390  10.677  11.120
 1883POPC   GL234524  27.391  10.752  11.053
 1883POPC   C1A34525  27.190  10.670  11.107
 1883POPC   D2A34526  26.991  10.664  11.095
 1883POPC   C3A34527  26.791  10.657  11.082
 1883POPC   C4A34528  26.592  10.650  11.070
 1883POPC   C1B34529  27.204  10.538  10.958
 1883POPC   C2B34530  27.005  10.531  10.946
 1883POPC   C3B34531  26.805  10.524  10.933
 1883POPC   C4B34532  26.606  10.518  10.921
 1884POPC   NC334533   4.255   0.470  24.290
 1884POPC   PO434534   4.315   0.575  24.131
 1884POPC   GL134535   4.375   0.680  23.972
 1884POPC   GL234536   4.381   0.762  24.028
 1884POPC   C1A34537   4.435   0.785  23.812
 1884POPC   D2A34538   4.496   0.889  23.653
 1884POPC   C3A34539   4.556   0.994  23.493
 1884POPC   C4A34540   4.616   1.099  23.334
 1884POPC   C1B34541   4.626   0.741  23.855
 1884POPC   C2B34542   4.686   0.846  23.696
 1884POPC   C3B34543   4.746   0.950  23.537
 1884POPC   C4B34544   4.806   1.055  23.377
 1885POPC   NC334545  15.538  23.965  19.818
 1885POPC   PO434546  15.477  23.810  19.708
 1885POPC   GL134547  15.416  23.655  19.598
 1885POPC   GL234548  15.472  23.593  19.654
 1885POPC   C1A34549  15.355  23.499  19.488
 1885POPC   D2A34550  15.294  23.344  19.377
 1885POPC   C3A34551  15.233  23.188  19.267
 1885POPC   C4A34552  15.172  23.033  19.157
 1885POPC   C1B34553  15.201  23.472  19.612
 1885POPC   C2B34554  15.140  23.316  19.502
 1885POPC   C3B34555  15.079  23.161  19.392
 1885POPC   C4B34556  15.018  23.005  19.281
 1886POPC   NC334557  14.944  14.809  26.585
 1886POPC   PO434558  14.896  14.750  26.400
 1886POPC   GL134559  14.848  14.691  26.215
 1886POPC   GL234560  14.895  14.771  26.177
 1886POPC   C1A34561  14.799  14.632  26.030
 1886POPC   D2A34562  14.751  14.573  25.846
 1886POPC   C3A34563  14.702  14.514  25.661
 1886POPC   C4A34564  14.654  14.455  25.476
 1886POPC   C1B34565  14.969  14.527  26.020
 1886POPC   C2B34566  14.920  14.468  25.835
 1886POPC   C3B34567  14.872  14.409  25.650
 1886POPC   C4B34568  14.824  14.350  25.465
 1887POPC   NC334569  14.300  26.763   5.183
 1887POPC   PO434570  14.252  26.577   5.240
 1887POPC   GL134571  14.204  26.391   5.297
 1887POPC   GL234572  14.266  26.354   5.228
 1887POPC   C1A34573  14.156  26.206   5.354
 1887POPC   D2A34574  14.107  26.020   5.410
 1887POPC   C3A34575  14.059  25.835   5.467
 1887POPC   C4A34576  14.011  25.649   5.524
 1887POPC   C1B34577  14.305  26.208   5.487
 1887POPC   C2B34578  14.257  26.022   5.543
 1887POPC   C3B34579  14.209  25.836   5.600
 1887POPC   C4B34580  14.160  25.651   5.657
 1888POPC   NC334581  -6.495   2.651   8.252
 1888POPC   PO434582  -6.313   2.731   8.273
 1888POPC   GL134583  -6.131   2.811   8.294
 1888POPC   GL234584  -6.101   2.729   8.344
 1888POPC   C1A34585  -5.949   2.890   8.316
 1888POPC   D2A34586  -5.766   2.970   8.337
 1888POPC   C3A34587  -5.584   3.049   8.359
 1888POPC   C4A34588  -5.402   3.129   8.380
 1888POPC   C1B34589  -5.891   2.805   8.144
 1888POPC   C2B34590  -5.709   2.885   8.165
 1888POPC   C3B34591  -5.527   2.965   8.187
 1888POPC   C4B34592  -5.345   3.044   8.208
 1889POPC   NC334593   9.581  18.259  26.019
 1889POPC   PO434594   9.580  18.171  25.839
 1889POPC   GL134595   9.579  18.083  25.659
 1889POPC   GL234596   9.647  18.149  25.627
 1889POPC   C1A34597   9.578  17.996  25.479
 1889POPC   D2A34598   9.576  17.908  25.300
 1889POPC   C3A34599   9.575  17.821  25.120
 1889POPC   C4A34600   9.574  17.733  24.940
 1889POPC   C1B34601   9.724  17.873  25.539
 1889POPC   C2B34602   9.723  17.785  25.359
 1889POPC   C3B34603   9.721  17.697  25.179
 1889POPC   C4B34604   9.720  17.610  24.999
 1890POPC   NC334605  18.961  25.034   5.859
 1890POPC   PO434606  18.866  24.862   5.897
 1890POPC   GL134607  18.771  24.690   5.935
 1890POPC   GL234608  18.843  24.640   5.889
 1890POPC   C1A34609  18.676  24.518   5.973
 1890POPC   D2A34610  18.580  24.347   6.012
 1890POPC   C3A34611  18.485  24.175   6.050
 1890POPC   C4A34612  18.390  24.003   6.088
 1890POPC   C1B34613  18.775  24.502   6.146
 1890POPC   C2B34614  18.680  24.330   6.184
 1890POPC   C3B34615  18.584  24.158   6.223
 1890POPC   C4B34616  18.489  23.987   6.261
 1891POPC   NC334617  19.508  24.295   4.441
 1891POPC   PO434618  19.404  24.136   4.501
 1891POPC   GL134619  19.300  23.977   4.561
 1891POPC   GL234620  19.383  23.935   4.597
 1891POPC   C1A34621  19.195  23.817   4.622
 1891POPC   D2A34622  19.091  23.658   4.682
 1891POPC   C3A34623  18.986  23.498   4.743
 1891POPC   C4A34624  18.882  23.339   4.803
 1891POPC   C1B34625  19.163  23.905   4.798
 1891POPC   C2B34626  19.059  23.746   4.859
 1891POPC   C3B34627  18.954  23.586   4.919
 1891POPC   C4B34628  18.850  23.427   4.980
 1892POPC   NC334629  14.116  -5.559  18.110
 1892POPC   PO434630  14.065  -5.387  18.022
 1892POPC   GL134631  14.014  -5.215  17.934
 1892POPC   GL234632  14.097  -5.172  17.969
 1892POPC   C1A34633  13.963  -5.043  17.845
 1892POPC   D2A34634  13.912  -4.871  17.757
 1892POPC   C3A34635  13.861  -4.699  17.668
 1892POPC   C4A34636  13.810  -4.527  17.580
 1892POPC   C1B34637  14.062  -5.098  17.680
 1892POPC   C2B34638  14.011  -4.926  17.592
 1892POPC   C3B34639  13.960  -4.754  17.504
 1892POPC   C4B34640  13.909  -4.582  17.415
 1893POPC   NC334641  12.523  -7.749   7.400
 1893POPC   PO434642  12.494  -7.553   7.425
 1893POPC   GL134643  12.465  -7.357   7.450
 1893POPC   GL234644  12.520  -7.359   7.533
 1893POPC   C1A34645  12.435  -7.161   7.476
 1893POPC   D2A34646  12.406  -6.964   7.501
 1893POPC   C3A34647  12.376  -6.768   7.527
 1893POPC   C4A34648  12.347  -6.572   7.552
 1893POPC   C1B34649  12.599  -7.122   7.367
 1893POPC   C2B34650  12.569  -6.926   7.393
 1893POPC   C3B34651  12.540  -6.730   7.418
 1893POPC   C4B34652  12.511  -6.533   7.444
 1894POPC   NC334653  -7.692  14.019  11.566
 1894POPC   PO434654  -7.499  13.971  11.549
 1894POPC   GL134655  -7.306  13.923  11.532
 1894POPC   GL234656  -7.307  13.883  11.623
 1894POPC   C1A34657  -7.112  13.875  11.514
 1894POPC   D2A34658  -6.919  13.827  11.497
 1894POPC   C3A34659  -6.725  13.779  11.479
 1894POPC   C4A34660  -6.532  13.731  11.462
 1894POPC   C1B34661  -7.163  13.698  11.435
 1894POPC   C2B34662  -6.970  13.650  11.418
 1894POPC   C3B34663  -6.776  13.602  11.400
 1894POPC   C4B34664  -6.583  13.554  11.383
 1895POPC   NC334665  10.149  12.318  -7.981
 1895POPC   PO434666  10.147  12.290  -7.783
 1895POPC   GL134667  10.145  12.262  -7.585
 1895POPC   GL234668  10.218  12.193  -7.594
 1895POPC   C1A34669  10.143  12.233  -7.387
 1895POPC   D2A34670  10.141  12.205  -7.189
 1895POPC   C3A34671  10.139  12.176  -6.991
 1895POPC   C4A34672  10.137  12.148  -6.793
 1895POPC   C1B34673  10.281  12.377  -7.365
 1895POPC   C2B34674  10.279  12.348  -7.167
 1895POPC   C3B34675  10.277  12.320  -6.969
 1895POPC   C4B34676  10.275  12.292  -6.771
 1896POPC   NC334677   5.285   2.889  -6.088
 1896POPC   PO434678   5.334   2.966  -5.910
 1896POPC   GL134679   5.383   3.043  -5.732
 1896POPC   GL234680   5.406   2.951  -5.699
 1896POPC   C1A34681   5.432   3.120  -5.554
 1896POPC   D2A34682   5.481   3.196  -5.376
 1896POPC   C3A34683   5.530   3.273  -5.198
 1896POPC   C4A34684   5.579   3.350  -5.020
 1896POPC   C1B34685   5.620   3.144  -5.616
 1896POPC   C2B34686   5.669   3.221  -5.438
 1896POPC   C3B34687   5.718   3.298  -5.260
 1896POPC   C4B34688   5.767   3.375  -5.082
 1897POPC   NC334689  15.733  24.317  19.178
 1897POPC   PO434690  15.668  24.158  19.076
 1897POPC   GL134691  15.603  23.999  18.974
 1897POPC   GL234692  15.649  23.938  19.039
 1897POPC   C1A34693  15.537  23.839  18.873
 1897POPC   D2A34694  15.472  23.680  18.771
 1897POPC   C3A34695  15.406  23.520  18.670
 1897POPC   C4A34696  15.341  23.361  18.568
 1897POPC   C1B34697  15.373  23.834  18.986
 1897POPC   C2B34698  15.307  23.675  18.885
 1897POPC   C3B34699  15.242  23.516  18.783
 1897POPC   C4B34700  15.176  23.356  18.682
 1898POPC   NC334701   7.567  17.193  26.366
 1898POPC   PO434702   7.590  17.115  26.183
 1898POPC   GL134703   7.613  17.037  26.000
 1898POPC   GL234704   7.703  17.082  25.993
 1898POPC   C1A34705   7.637  16.960  25.817
 1898POPC   D2A34706   7.660  16.882  25.635
 1898POPC   C3A34707   7.684  16.805  25.452
 1898POPC   C4A34708   7.707  16.727  25.269
 1898POPC   C1B34709   7.724  16.798  25.897
 1898POPC   C2B34710   7.747  16.721  25.714
 1898POPC   C3B34711   7.771  16.643  25.531
 1898POPC   C4B34712   7.794  16.566  25.349
 1899POPC   NC334713  20.359  -0.769  19.892
 1899POPC   PO434714  20.245  -0.649  19.780
 1899POPC   GL134715  20.131  -0.529  19.668
 1899POPC   GL234716  20.205  -0.462  19.664
 1899POPC   C1A34717  20.016  -0.408  19.557
 1899POPC   D2A34718  19.902  -0.288  19.445
 1899POPC   C3A34719  19.787  -0.167  19.334
 1899POPC   C4A34720  19.673  -0.047  19.222
 1899POPC   C1B34721  20.085  -0.497  19.391
 1899POPC   C2B34722  19.970  -0.376  19.279
 1899POPC   C3B34723  19.856  -0.256  19.168
 1899POPC   C4B34724  19.741  -0.136  19.056
 1900POPC   NC334725  15.951  -6.941  11.560
 1900POPC   PO434726  15.881  -6.754  11.541
 1900POPC   GL134727  15.811  -6.567  11.522
 1900POPC   GL234728  15.884  -6.534  11.582
 1900POPC   C1A34729  15.742  -6.381  11.503
 1900POPC   D2A34730  15.672  -6.194  11.485
 1900POPC   C3A34731  15.603  -6.008  11.466
 1900POPC   C4A34732  15.533  -5.821  11.447
 1900POPC   C1B34733  15.860  -6.353  11.344
 1900POPC   C2B34734  15.790  -6.166  11.326
 1900POPC   C3B34735  15.721  -5.980  11.307
 1900POPC   C4B34736  15.651  -5.793  11.288
 1901POPC   NC334737   4.422  22.074  22.143
 1901POPC   PO434738   4.479  21.939  22.007
 1901POPC   GL134739   4.536  21.804  21.871
 1901POPC   GL234740   4.631  21.829  21.886
 1901POPC   C1A34741   4.593  21.669  21.735
 1901POPC   D2A34742   4.649  21.533  21.599
 1901POPC   C3A34743   4.706  21.398  21.463
 1901POPC   C4A34744   4.763  21.263  21.327
 1901POPC   C1B34745   4.607  21.530  21.879
 1901POPC   C2B34746   4.664  21.395  21.743
 1901POPC   C3B34747   4.720  21.260  21.607
 1901POPC   C4B34748   4.777  21.124  21.471
 1902POPC   NC334749   7.397  -7.747  12.148
 1902POPC   PO434750   7.422  -7.550  12.125
 1902POPC   GL134751   7.447  -7.353  12.102
 1902POPC   GL234752   7.504  -7.351  12.185
 1902POPC   C1A34753   7.473  -7.156  12.079
 1902POPC   D2A34754   7.498  -6.959  12.056
 1902POPC   C3A34755   7.524  -6.762  12.033
 1902POPC   C4A34756   7.549  -6.565  12.010
 1902POPC   C1B34757   7.636  -7.190  11.969
 1902POPC   C2B34758   7.662  -6.993  11.946
 1902POPC   C3B34759   7.687  -6.796  11.923
 1902POPC   C4B34760   7.712  -6.599  11.900
 1903POPC   NC334761  25.373  15.126   2.224
 1903POPC   PO434762  25.202  15.070   2.312
 1903POPC   GL134763  25.031  15.014   2.400
 1903POPC   GL234764  24.984  15.091   2.357
 1903POPC   C1A34765  24.861  14.959   2.489
 1903POPC   D2A34766  24.690  14.903   2.577
 1903POPC   C3A34767  24.520  14.848   2.666
 1903POPC   C4A34768  24.349  14.792   2.754
 1903POPC   C1B34769  24.817  14.843   2.331
 1903POPC   C2B34770  24.646  14.788   2.420
 1903POPC   C3B34771  24.476  14.732   2.508
 1903POPC   C4B34772  24.305  14.677   2.597
 1904POPC   NC334773  -6.416  11.495   2.286
 1904POPC   PO434774  -6.233  11.479   2.366
 1904POPC   GL134775  -6.050  11.463   2.446
 1904POPC   GL234776  -6.085  11.396   2.512
 1904POPC   C1A34777  -5.868  11.447   2.526
 1904POPC   D2A34778  -5.685  11.431   2.605
 1904POPC   C3A34779  -5.503  11.415   2.685
 1904POPC   C4A34780  -5.320  11.399   2.765
 1904POPC   C1B34781  -5.825  11.299   2.398
 1904POPC   C2B34782  -5.642  11.283   2.478
 1904POPC   C3B34783  -5.460  11.267   2.558
 1904POPC   C4B34784  -5.277  11.251   2.637
 1905POPC   NC334785  -3.654   2.781  19.536
 1905POPC   PO434786  -3.508   2.863  19.427
 1905POPC   GL134787  -3.362   2.945  19.318
 1905POPC   GL234788  -3.320   2.855  19.306
 1905POPC   C1A34789  -3.216   3.027  19.209
 1905POPC   D2A34790  -3.069   3.110  19.100
 1905POPC   C3A34791  -2.923   3.192  18.991
 1905POPC   C4A34792  -2.777   3.274  18.882
 1905POPC   C1B34793  -3.323   2.999  19.043
 1905POPC   C2B34794  -3.177   3.081  18.934
 1905POPC   C3B34795  -3.031   3.163  18.825
 1905POPC   C4B34796  -2.885   3.245  18.716
 1906POPC   NC334797  16.580  -6.714  11.299
 1906POPC   PO434798  16.503  -6.530  11.284
 1906POPC   GL134799  16.426  -6.346  11.269
 1906POPC   GL234800  16.515  -6.307  11.290
 1906POPC   C1A34801  16.349  -6.162  11.255
 1906POPC   D2A34802  16.271  -5.978  11.240
 1906POPC   C3A34803  16.194  -5.794  11.226
 1906POPC   C4A34804  16.117  -5.610  11.211
 1906POPC   C1B34805  16.392  -6.159  11.060
 1906POPC   C2B34806  16.315  -5.975  11.045
 1906POPC   C3B34807  16.238  -5.791  11.030
 1906POPC   C4B34808  16.161  -5.607  11.016
 1907POPC   NC334809   9.873  23.589  21.803
 1907POPC   PO434810   9.871  23.439  21.671
 1907POPC   GL134811   9.869  23.289  21.539
 1907POPC   GL234812   9.905  23.227  21.608
 1907POPC   C1A34813   9.867  23.139  21.406
 1907POPC   D2A34814   9.865  22.989  21.274
 1907POPC   C3A34815   9.863  22.839  21.141
 1907POPC   C4A34816   9.861  22.689  21.009
 1907POPC   C1B34817   9.680  23.093  21.461
 1907POPC   C2B34818   9.678  22.943  21.328
 1907POPC   C3B34819   9.676  22.793  21.196
 1907POPC   C4B34820   9.674  22.643  21.064
 1908POPC   NC334821  15.232  -4.900   1.231
 1908POPC   PO434822  15.171  -4.735   1.327
 1908POPC   GL134823  15.110  -4.570   1.423
 1908POPC   GL234824  15.185  -4.518   1.381
 1908POPC   C1A34825  15.049  -4.405   1.518
 1908POPC   D2A34826  14.988  -4.241   1.614
 1908POPC   C3A34827  14.927  -4.076   1.709
 1908POPC   C4A34828  14.866  -3.911   1.805
 1908POPC   C1B34829  14.931  -4.359   1.364
 1908POPC   C2B34830  14.870  -4.195   1.459
 1908POPC   C3B34831  14.809  -4.030   1.555
 1908POPC   C4B34832  14.748  -3.865   1.650
 1909POPC   NC334833  25.811   1.804  12.170
 1909POPC   PO434834  25.633   1.892  12.147
 1909POPC   GL134835  25.455   1.980  12.124
 1909POPC   GL234836  25.497   2.049  12.064
 1909POPC   C1A34837  25.277   2.069  12.101
 1909POPC   D2A34838  25.099   2.157  12.078
 1909POPC   C3A34839  24.921   2.246  12.055
 1909POPC   C4A34840  24.743   2.334  12.032
 1909POPC   C1B34841  25.240   1.953  11.942
 1909POPC   C2B34842  25.062   2.042  11.919
 1909POPC   C3B34843  24.884   2.130  11.896
 1909POPC   C4B34844  24.706   2.218  11.873
 1910POPC   NC334845  -1.343   2.579  -2.075
 1910POPC   PO434846  -1.224   2.665  -1.939
 1910POPC   GL134847  -1.105   2.751  -1.803
 1910POPC   GL234848  -1.185   2.779  -1.751
 1910POPC   C1A34849  -0.985   2.836  -1.668
 1910POPC   D2A34850  -0.866   2.922  -1.532
 1910POPC   C3A34851  -0.746   3.007  -1.397
 1910POPC   C4A34852  -0.627   3.093  -1.261
 1910POPC   C1B34853  -0.980   2.665  -1.565
 1910POPC   C2B34854  -0.860   2.751  -1.429
 1910POPC   C3B34855  -0.741   2.836  -1.293
 1910POPC   C4B34856  -0.621   2.922  -1.158
 1911POPC   NC334857   5.577  19.941  24.372
 1911POPC   PO434858   5.624  19.826  24.215
 1911POPC   GL134859   5.671  19.711  24.058
 1911POPC   GL234860   5.763  19.752  24.056
 1911POPC   C1A34861   5.719  19.596  23.902
 1911POPC   D2A34862   5.766  19.480  23.745
 1911POPC   C3A34863   5.814  19.365  23.589
 1911POPC   C4A34864   5.861  19.250  23.432
 1911POPC   C1B34865   5.785  19.454  24.026
 1911POPC   C2B34866   5.832  19.339  23.870
 1911POPC   C3B34867   5.880  19.223  23.713
 1911POPC   C4B34868   5.927  19.108  23.556
 1912POPC   NC334869  -1.261  23.146   4.750
 1912POPC   PO434870  -1.141  22.997   4.808
 1912POPC   GL134871  -1.021  22.848   4.866
 1912POPC   GL234872  -0.942  22.909   4.860
 1912POPC   C1A34873  -0.901  22.699   4.924
 1912POPC   D2A34874  -0.782  22.549   4.983
 1912POPC   C3A34875  -0.662  22.400   5.041
 1912POPC   C4A34876  -0.542  22.251   5.099
 1912POPC   C1B34877  -0.927  22.752   5.115
 1912POPC   C2B34878  -0.808  22.603   5.173
 1912POPC   C3B34879  -0.688  22.454   5.232
 1912POPC   C4B34880  -0.568  22.305   5.290
 1913POPC   NC334881  12.207  -5.270   0.558
 1913POPC   PO434882  12.182  -5.102   0.663
 1913POPC   GL134883  12.157  -4.934   0.768
 1913POPC   GL234884  12.189  -4.980   0.850
 1913POPC   C1A34885  12.132  -4.765   0.873
 1913POPC   D2A34886  12.107  -4.597   0.977
 1913POPC   C3A34887  12.082  -4.428   1.082
 1913POPC   C4A34888  12.057  -4.260   1.187
 1913POPC   C1B34889  12.320  -4.711   0.830
 1913POPC   C2B34890  12.295  -4.543   0.935
 1913POPC   C3B34891  12.270  -4.374   1.040
 1913POPC   C4B34892  12.245  -4.206   1.145
 1914POPC   NC334893   7.554  27.157   4.749
 1914POPC   PO434894   7.579  26.967   4.805
 1914POPC   GL134895   7.604  26.777   4.861
 1914POPC   GL234896   7.664  26.761   4.782
 1914POPC   C1A34897   7.629  26.586   4.917
 1914POPC   D2A34898   7.655  26.396   4.973
 1914POPC   C3A34899   7.680  26.205   5.029
 1914POPC   C4A34900   7.705  26.015   5.085
 1914POPC   C1B34901   7.787  26.640   5.027
 1914POPC   C2B34902   7.813  26.449   5.083
 1914POPC   C3B34903   7.838  26.259   5.139
 1914POPC   C4B34904   7.863  26.068   5.195
 1915POPC   NC334905  25.785  15.858  16.097
 1915POPC   PO434906  25.607  15.796  16.030
 1915POPC   GL134907  25.429  15.734  15.963
 1915POPC   GL234908  25.457  15.755  15.870
 1915POPC   C1A34909  25.251  15.673  15.897
 1915POPC   D2A34910  25.072  15.611  15.830
 1915POPC   C3A34911  24.894  15.550  15.764
 1915POPC   C4A34912  24.716  15.488  15.697
 1915POPC   C1B34913  25.322  15.487  15.877
 1915POPC   C2B34914  25.144  15.426  15.810
 1915POPC   C3B34915  24.966  15.364  15.743
 1915POPC   C4B34916  24.788  15.302  15.677
 1916POPC   NC334917   4.141   4.715  -6.407
 1916POPC   PO434918   4.204   4.772  -6.226
 1916POPC   GL134919   4.267   4.829  -6.045
 1916POPC   GL234920   4.338   4.759  -6.048
 1916POPC   C1A34921   4.331   4.886  -5.864
 1916POPC   D2A34922   4.394   4.943  -5.683
 1916POPC   C3A34923   4.458   5.000  -5.502
 1916POPC   C4A34924   4.521   5.057  -5.321
 1916POPC   C1B34925   4.456   5.017  -5.949
 1916POPC   C2B34926   4.520   5.074  -5.768
 1916POPC   C3B34927   4.583   5.131  -5.587
 1916POPC   C4B34928   4.646   5.188  -5.406
 1917POPC   NC334929  23.532  21.796   9.115
 1917POPC   PO434930  23.377  21.670   9.126
 1917POPC   GL134931  23.222  21.544   9.137
 1917POPC   GL234932  23.177  21.593   9.063
 1917POPC   C1A34933  23.068  21.418   9.149
 1917POPC   D2A34934  22.913  21.291   9.160
 1917POPC   C3A34935  22.759  21.165   9.172
 1917POPC   C4A34936  22.604  21.039   9.183
 1917POPC   C1B34937  23.156  21.298   9.015
 1917POPC   C2B34938  23.001  21.172   9.026
 1917POPC   C3B34939  22.847  21.045   9.038
 1917POPC   C4B34940  22.692  20.919   9.049
 1918POPC   NC334941  13.659  -7.581  11.840
 1918POPC   PO434942  13.618  -7.387  11.817
 1918POPC   GL134943  13.577  -7.193  11.794
 1918POPC   GL234944  13.596  -7.200  11.696
 1918POPC   C1A34945  13.536  -6.998  11.771
 1918POPC   D2A34946  13.494  -6.804  11.748
 1918POPC   C3A34947  13.453  -6.609  11.725
 1918POPC   C4A34948  13.412  -6.415  11.702
 1918POPC   C1B34949  13.344  -7.043  11.737
 1918POPC   C2B34950  13.302  -6.848  11.714
 1918POPC   C3B34951  13.261  -6.654  11.691
 1918POPC   C4B34952  13.220  -6.460  11.668
 1919POPC   NC334953  -8.012   7.352  10.385
 1919POPC   PO434954  -7.815   7.385  10.376
 1919POPC   GL134955  -7.618   7.418  10.367
 1919POPC   GL234956  -7.623   7.470  10.452
 1919POPC   C1A34957  -7.421   7.451  10.357
 1919POPC   D2A34958  -7.224   7.485  10.348
 1919POPC   C3A34959  -7.027   7.518  10.338
 1919POPC   C4A34960  -6.830   7.551  10.329
 1919POPC   C1B34961  -7.388   7.284  10.461
 1919POPC   C2B34962  -7.191   7.317  10.452
 1919POPC   C3B34963  -6.994   7.350  10.442
 1919POPC   C4B34964  -6.797   7.383  10.433
 1920POPC   NC334965  26.258  15.239   4.394
 1920POPC   PO434966  26.077  15.179   4.455
 1920POPC   GL134967  25.896  15.119   4.516
 1920POPC   GL234968  25.854  15.186   4.456
 1920POPC   C1A34969  25.716  15.058   4.577
 1920POPC   D2A34970  25.535  14.998   4.637
 1920POPC   C3A34971  25.355  14.937   4.698
 1920POPC   C4A34972  25.174  14.877   4.759
 1920POPC   C1B34973  25.711  14.924   4.428
 1920POPC   C2B34974  25.530  14.864   4.489
 1920POPC   C3B34975  25.349  14.803   4.550
 1920POPC   C4B34976  25.169  14.743   4.611
 1921POPC   NC334977   3.972  26.536  14.092
 1921POPC   PO434978   4.037  26.353  14.045
 1921POPC   GL134979   4.102  26.170  13.998
 1921POPC   GL234980   4.128  26.203  13.907
 1921POPC   C1A34981   4.168  25.987  13.951
 1921POPC   D2A34982   4.233  25.804  13.903
 1921POPC   C3A34983   4.299  25.621  13.856
 1921POPC   C4A34984   4.364  25.438  13.809
 1921POPC   C1B34985   4.350  26.035  14.018
 1921POPC   C2B34986   4.415  25.852  13.971
 1921POPC   C3B34987   4.481  25.669  13.924
 1921POPC   C4B34988   4.546  25.486  13.877
 1922POPC   NC334989   3.855  -2.427  -1.681
 1922POPC   PO434990   3.926  -2.291  -1.553
 1922POPC   GL134991   3.997  -2.155  -1.425
 1922POPC   GL234992   4.036  -2.228  -1.368
 1922POPC   C1A34993   4.069  -2.019  -1.296
 1922POPC   D2A34994   4.140  -1.884  -1.168
 1922POPC   C3A34995   4.212  -1.748  -1.039
 1922POPC   C4A34996   4.283  -1.612  -0.911
 1922POPC   C1B34997   4.239  -2.010  -1.401
 1922POPC   C2B34998   4.310  -1.874  -1.272
 1922POPC   C3B34999   4.382  -1.738  -1.144
 1922POPC   C4B35000   4.453  -1.603  -1.016
 1923POPC   NC335001  17.763  15.922  -5.196
 1923POPC   PO435002  17.673  15.854  -5.031
 1923POPC   GL135003  17.583  15.786  -4.866
 1923POPC   GL235004  17.566  15.699  -4.911
 1923POPC   C1A35005  17.493  15.718  -4.700
 1923POPC   D2A35006  17.403  15.651  -4.535
 1923POPC   C3A35007  17.313  15.583  -4.369
 1923POPC   C4A35008  17.223  15.515  -4.204
 1923POPC   C1B35009  17.668  15.650  -4.633
 1923POPC   C2B35010  17.578  15.582  -4.468
 1923POPC   C3B35011  17.488  15.514  -4.302
 1923POPC   C4B35012  17.398  15.446  -4.137
 1924POPC   NC335013  22.222  15.525  21.759
 1924POPC   PO435014  22.089  15.465  21.622
 1924POPC   GL135015  21.956  15.405  21.485
 1924POPC   GL235016  22.016  15.438  21.412
 1924POPC   C1A35017  21.823  15.345  21.349
 1924POPC   D2A35018  21.689  15.286  21.212
 1924POPC   C3A35019  21.556  15.226  21.076
 1924POPC   C4A35020  21.423  15.166  20.939
 1924POPC   C1B35021  21.911  15.166  21.341
 1924POPC   C2B35022  21.778  15.107  21.204
 1924POPC   C3B35023  21.645  15.047  21.067
 1924POPC   C4B35024  21.512  14.987  20.931
 1925POPC   NC335025   1.283  24.592  16.065
 1925POPC   PO435026   1.378  24.429  15.998
 1925POPC   GL135027   1.473  24.266  15.931
 1925POPC   GL235028   1.520  24.322  15.863
 1925POPC   C1A35029   1.568  24.104  15.864
 1925POPC   D2A35030   1.664  23.941  15.798
 1925POPC   C3A35031   1.759  23.779  15.731
 1925POPC   C4A35032   1.854  23.616  15.664
 1925POPC   C1B35033   1.717  24.137  15.994
 1925POPC   C2B35034   1.812  23.975  15.927
 1925POPC   C3B35035   1.907  23.812  15.860
 1925POPC   C4B35036   2.003  23.650  15.794
 1926POPC   NC335037  24.586  19.661   6.332
 1926POPC   PO435038  24.422  19.554   6.373
 1926POPC   GL135039  24.258  19.447   6.414
 1926POPC   GL235040  24.282  19.382   6.341
 1926POPC   C1A35041  24.094  19.339   6.454
 1926POPC   D2A35042  23.931  19.232   6.495
 1926POPC   C3A35043  23.767  19.124   6.535
 1926POPC   C4A35044  23.603  19.017   6.576
 1926POPC   C1B35045  24.199  19.230   6.585
 1926POPC   C2B35046  24.035  19.122   6.626
 1926POPC   C3B35047  23.871  19.015   6.666
 1926POPC   C4B35048  23.707  18.908   6.707
 1927POPC   NC335049  19.064  -5.491   8.693
 1927POPC   PO435050  18.964  -5.318   8.706
 1927POPC   GL135051  18.864  -5.145   8.719
 1927POPC   GL235052  18.939  -5.098   8.674
 1927POPC   C1A35053  18.763  -4.973   8.733
 1927POPC   D2A35054  18.663  -4.800   8.746
 1927POPC   C3A35055  18.562  -4.628   8.760
 1927POPC   C4A35056  18.462  -4.455   8.773
 1927POPC   C1B35057  18.678  -5.009   8.555
 1927POPC   C2B35058  18.578  -4.836   8.569
 1927POPC   C3B35059  18.477  -4.663   8.582
 1927POPC   C4B35060  18.377  -4.491   8.596
 1928POPC   NC335061  -0.730   0.849  -1.404
 1928POPC   PO435062  -0.615   0.949  -1.275
 1928POPC   GL135063  -0.500   1.049  -1.146
 1928POPC   GL235064  -0.579   1.062  -1.085
 1928POPC   C1A35065  -0.385   1.149  -1.016
 1928POPC   D2A35066  -0.269   1.249  -0.887
 1928POPC   C3A35067  -0.154   1.349  -0.757
 1928POPC   C4A35068  -0.039   1.449  -0.628
 1928POPC   C1B35069  -0.341   0.978  -0.923
 1928POPC   C2B35070  -0.225   1.078  -0.794
 1928POPC   C3B35071  -0.110   1.178  -0.664
 1928POPC   C4B35072   0.005   1.278  -0.535
 1929POPC   NC335073  15.214  22.112  22.214
 1929POPC   PO435074  15.157  21.976  22.079
 1929POPC   GL135075  15.100  21.840  21.944
 1929POPC   GL235076  15.185  21.855  21.893
 1929POPC   C1A35077  15.043  21.703  21.809
 1929POPC   D2A35078  14.987  21.567  21.675
 1929POPC   C3A35079  14.930  21.430  21.540
 1929POPC   C4A35080  14.873  21.294  21.405
 1929POPC   C1B35081  15.135  21.560  21.915
 1929POPC   C2B35082  15.078  21.424  21.781
 1929POPC   C3B35083  15.021  21.288  21.646
 1929POPC   C4B35084  14.964  21.151  21.511
 1930POPC   NC335085  18.533  23.999   2.552
 1930POPC   PO435086  18.438  23.846   2.639
 1930POPC   GL135087  18.343  23.693   2.726
 1930POPC   GL235088  18.289  23.679   2.642
 1930POPC   C1A35089  18.248  23.540   2.813
 1930POPC   D2A35090  18.152  23.387   2.899
 1930POPC   C3A35091  18.057  23.234   2.986
 1930POPC   C4A35092  17.962  23.081   3.073
 1930POPC   C1B35093  18.387  23.414   2.745
 1930POPC   C2B35094  18.292  23.261   2.831
 1930POPC   C3B35095  18.197  23.108   2.918
 1930POPC   C4B35096  18.102  22.955   3.005
 1931POPC   NC335097  -2.512  22.564   6.175
 1931POPC   PO435098  -2.382  22.418   6.218
 1931POPC   GL135099  -2.252  22.272   6.261
 1931POPC   GL235100  -2.180  22.322   6.213
 1931POPC   C1A35101  -2.122  22.126   6.303
 1931POPC   D2A35102  -1.993  21.980   6.346
 1931POPC   C3A35103  -1.863  21.834   6.388
 1931POPC   C4A35104  -1.733  21.688   6.431
 1931POPC   C1B35105  -2.074  22.219   6.474
 1931POPC   C2B35106  -1.944  22.073   6.516
 1931POPC   C3B35107  -1.814  21.927   6.559
 1931POPC   C4B35108  -1.684  21.781   6.601
 1932POPC   NC335109  16.283  -3.639  19.904
 1932POPC   PO435110  16.214  -3.489  19.791
 1932POPC   GL135111  16.145  -3.339  19.678
 1932POPC   GL235112  16.229  -3.340  19.625
 1932POPC   C1A35113  16.075  -3.189  19.566
 1932POPC   D2A35114  16.006  -3.039  19.453
 1932POPC   C3A35115  15.936  -2.889  19.341
 1932POPC   C4A35116  15.867  -2.739  19.228
 1932POPC   C1B35117  15.994  -3.321  19.440
 1932POPC   C2B35118  15.924  -3.171  19.327
 1932POPC   C3B35119  15.855  -3.021  19.215
 1932POPC   C4B35120  15.785  -2.871  19.102
 1933POPC   NC335121  27.603   7.247   8.574
 1933POPC   PO435122  27.405   7.273   8.589
 1933POPC   GL135123  27.207   7.299   8.604
 1933POPC   GL235124  27.216   7.391   8.565
 1933POPC   C1A35125  27.009   7.325   8.619
 1933POPC   D2A35126  26.812   7.351   8.634
 1933POPC   C3A35127  26.614   7.377   8.649
 1933POPC   C4A35128  26.416   7.403   8.664
 1933POPC   C1B35129  26.986   7.249   8.435
 1933POPC   C2B35130  26.788   7.275   8.450
 1933POPC   C3B35131  26.590   7.301   8.465
 1933POPC   C4B35132  26.392   7.327   8.480
 1934POPC   NC335133  -5.386  15.275  18.097
 1934POPC   PO435134  -5.216  15.219  18.008
 1934POPC   GL135135  -5.046  15.163  17.919
 1934POPC   GL235136  -4.998  15.172  18.006
 1934POPC   C1A35137  -4.876  15.107  17.829
 1934POPC   D2A35138  -4.706  15.052  17.740
 1934POPC   C3A35139  -4.536  14.996  17.650
 1934POPC   C4A35140  -4.366  14.940  17.561
 1934POPC   C1B35141  -4.917  14.916  17.871
 1934POPC   C2B35142  -4.747  14.860  17.781
 1934POPC   C3B35143  -4.577  14.805  17.692
 1934POPC   C4B35144  -4.407  14.749  17.602
 1935POPC   NC335145  22.066  16.094  -1.927
 1935POPC   PO435146  21.932  16.028  -1.794
 1935POPC   GL135147  21.798  15.962  -1.661
 1935POPC   GL235148  21.729  15.957  -1.733
 1935POPC   C1A35149  21.664  15.895  -1.528
 1935POPC   D2A35150  21.531  15.829  -1.395
 1935POPC   C3A35151  21.397  15.762  -1.262
 1935POPC   C4A35152  21.263  15.696  -1.129
 1935POPC   C1B35153  21.718  15.707  -1.569
 1935POPC   C2B35154  21.584  15.640  -1.436
 1935POPC   C3B35155  21.450  15.574  -1.303
 1935POPC   C4B35156  21.316  15.508  -1.170
 1936POPC   NC335157   9.774  27.617  13.803
 1936POPC   PO435158   9.771  27.421  13.763
 1936POPC   GL135159   9.768  27.225  13.723
 1936POPC   GL235160   9.833  27.239  13.648
 1936POPC   C1A35161   9.765  27.029  13.683
 1936POPC   D2A35162   9.763  26.833  13.644
 1936POPC   C3A35163   9.760  26.637  13.604
 1936POPC   C4A35164   9.757  26.441  13.564
 1936POPC   C1B35165   9.918  27.001  13.809
 1936POPC   C2B35166   9.916  26.805  13.769
 1936POPC   C3B35167   9.913  26.609  13.730
 1936POPC   C4B35168   9.910  26.413  13.690
 1937POPC   NC335169  10.646  -7.312  15.156
 1937POPC   PO435170  10.634  -7.121  15.099
 1937POPC   GL135171  10.622  -6.930  15.042
 1937POPC   GL235172  10.719  -6.918  15.063
 1937POPC   C1A35173  10.611  -6.738  14.985
 1937POPC   D2A35174  10.599  -6.547  14.929
 1937POPC   C3A35175  10.588  -6.355  14.872
 1937POPC   C4A35176  10.576  -6.164  14.815
 1937POPC   C1B35177  10.658  -6.791  14.798
 1937POPC   C2B35178  10.646  -6.600  14.741
 1937POPC   C3B35179  10.634  -6.408  14.685
 1937POPC   C4B35180  10.623  -6.217  14.628
 1938POPC   NC335181   8.596  -4.351  -0.958
 1938POPC   PO435182   8.611  -4.191  -0.838
 1938POPC   GL135183   8.626  -4.031  -0.718
 1938POPC   GL235184   8.682  -4.085  -0.655
 1938POPC   C1A35185   8.641  -3.872  -0.599
 1938POPC   D2A35186   8.656  -3.712  -0.479
 1938POPC   C3A35187   8.671  -3.553  -0.360
 1938POPC   C4A35188   8.686  -3.393  -0.240
 1938POPC   C1B35189   8.806  -3.814  -0.696
 1938POPC   C2B35190   8.821  -3.655  -0.577
 1938POPC   C3B35191   8.836  -3.495  -0.457
 1938POPC   C4B35192   8.851  -3.336  -0.337
 1939POPC   NC335193   4.200   8.289  27.012
 1939POPC   PO435194   4.258   8.304  26.821
 1939POPC   GL135195   4.316   8.319  26.630
 1939POPC   GL235196   4.411   8.332  26.660
 1939POPC   C1A35197   4.375   8.334  26.440
 1939POPC   D2A35198   4.433   8.349  26.249
 1939POPC   C3A35199   4.492   8.364  26.059
 1939POPC   C4A35200   4.550   8.379  25.868
 1939POPC   C1B35201   4.404   8.136  26.433
 1939POPC   C2B35202   4.463   8.151  26.243
 1939POPC   C3B35203   4.521   8.166  26.052
 1939POPC   C4B35204   4.580   8.181  25.862
 1940POPC   NC335205  14.409  -6.562   4.292
 1940POPC   PO435206  14.351  -6.380   4.352
 1940POPC   GL135207  14.293  -6.198   4.412
 1940POPC   GL235208  14.320  -6.160   4.324
 1940POPC   C1A35209  14.234  -6.017   4.473
 1940POPC   D2A35210  14.176  -5.835   4.533
 1940POPC   C3A35211  14.117  -5.654   4.594
 1940POPC   C4A35212  14.059  -5.472   4.654
 1940POPC   C1B35213  14.051  -6.052   4.402
 1940POPC   C2B35214  13.992  -5.871   4.462
 1940POPC   C3B35215  13.934  -5.689   4.522
 1940POPC   C4B35216  13.875  -5.507   4.583
 1941POPC   NC335217   7.682  -7.394   5.547
 1941POPC   PO435218   7.706  -7.201   5.595
 1941POPC   GL135219   7.730  -7.008   5.643
 1941POPC   GL235220   7.829  -7.017   5.631
 1941POPC   C1A35221   7.754  -6.816   5.691
 1941POPC   D2A35222   7.777  -6.623   5.740
 1941POPC   C3A35223   7.801  -6.431   5.788
 1941POPC   C4A35224   7.825  -6.238   5.836
 1941POPC   C1B35225   7.734  -6.765   5.499
 1941POPC   C2B35226   7.758  -6.573   5.547
 1941POPC   C3B35227   7.782  -6.380   5.595
 1941POPC   C4B35228   7.806  -6.187   5.643
 1942POPC   NC335229  25.374  19.198  10.068
 1942POPC   PO435230  25.202  19.096  10.070
 1942POPC   GL135231  25.030  18.994  10.072
 1942POPC   GL235232  25.080  18.910  10.093
 1942POPC   C1A35233  24.858  18.892  10.074
 1942POPC   D2A35234  24.686  18.789  10.075
 1942POPC   C3A35235  24.514  18.687  10.077
 1942POPC   C4A35236  24.342  18.585  10.079
 1942POPC   C1B35237  24.838  18.929  10.269
 1942POPC   C2B35238  24.666  18.826  10.271
 1942POPC   C3B35239  24.494  18.724  10.273
 1942POPC   C4B35240  24.322  18.622  10.275
 1943POPC   NC335241  25.976  13.759  17.104
 1943POPC   PO435242  25.796  13.718  17.028
 1943POPC   GL135243  25.616  13.677  16.952
 1943POPC   GL235244  25.643  13.582  16.940
 1943POPC   C1A35245  25.435  13.636  16.876
 1943POPC   D2A35246  25.255  13.595  16.801
 1943POPC   C3A35247  25.074  13.554  16.725
 1943POPC   C4A35248  24.894  13.513  16.649
 1943POPC   C1B35249  25.368  13.593  17.060
 1943POPC   C2B35250  25.188  13.552  16.984
 1943POPC   C3B35251  25.007  13.511  16.908
 1943POPC   C4B35252  24.827  13.470  16.832
 1944POPC   NC335253   4.109   5.412  26.438
 1944POPC   PO435254   4.167   5.465  26.254
 1944POPC   GL135255   4.225   5.518  26.070
 1944POPC   GL235256   4.244   5.610  26.103
 1944POPC   C1A35257   4.283   5.570  25.886
 1944POPC   D2A35258   4.341   5.623  25.702
 1944POPC   C3A35259   4.399   5.675  25.518
 1944POPC   C4A35260   4.457   5.728  25.334
 1944POPC   C1B35261   4.471   5.517  25.930
 1944POPC   C2B35262   4.529   5.569  25.746
 1944POPC   C3B35263   4.587   5.622  25.562
 1944POPC   C4B35264   4.645   5.674  25.378
 1945POPC   NC335265  23.422   9.644  -1.905
 1945POPC   PO435266  23.269   9.644  -1.777
 1945POPC   GL135267  23.116   9.644  -1.649
 1945POPC   GL235268  23.094   9.739  -1.674
 1945POPC   C1A35269  22.962   9.645  -1.520
 1945POPC   D2A35270  22.809   9.645  -1.392
 1945POPC   C3A35271  22.655   9.646  -1.263
 1945POPC   C4A35272  22.502   9.646  -1.135
 1945POPC   C1B35273  22.841   9.578  -1.665
 1945POPC   C2B35274  22.688   9.578  -1.536
 1945POPC   C3B35275  22.534   9.578  -1.408
 1945POPC   C4B35276  22.381   9.579  -1.279
 1946POPC   NC335277  14.615   4.811  -6.700
 1946POPC   PO435278  14.558   4.868  -6.517
 1946POPC   GL135279  14.501   4.925  -6.334
 1946POPC   GL235280  14.477   5.015  -6.369
 1946POPC   C1A35281  14.444   4.981  -6.151
 1946POPC   D2A35282  14.386   5.038  -5.968
 1946POPC   C3A35283  14.329   5.094  -5.785
 1946POPC   C4A35284  14.272   5.151  -5.602
 1946POPC   C1B35285  14.258   4.918  -6.190
 1946POPC   C2B35286  14.201   4.975  -6.007
 1946POPC   C3B35287  14.143   5.031  -5.824
 1946POPC   C4B35288  14.086   5.088  -5.641
 1947POPC   NC335289   4.389  13.398  -6.958
 1947POPC   PO435290   4.451  13.361  -6.771
 1947POPC   GL135291   4.513  13.324  -6.584
 1947POPC   GL235292   4.422  13.290  -6.561
 1947POPC   C1A35293   4.575  13.287  -6.398
 1947POPC   D2A35294   4.636  13.250  -6.211
 1947POPC   C3A35295   4.698  13.213  -6.025
 1947POPC   C4A35296   4.760  13.176  -5.838
 1947POPC   C1B35297   4.629  13.103  -6.453
 1947POPC   C2B35298   4.691  13.066  -6.266
 1947POPC   C3B35299   4.753  13.029  -6.079
 1947POPC   C4B35300   4.815  12.992  -5.893
 1948POPC   NC335301  -2.637  10.728  -3.000
 1948POPC   PO435302  -2.499  10.721  -2.856
 1948POPC   GL135303  -2.361  10.714  -2.712
 1948POPC   GL235304  -2.387  10.806  -2.682
 1948POPC   C1A35305  -2.222  10.707  -2.568
 1948POPC   D2A35306  -2.084  10.701  -2.423
 1948POPC   C3A35307  -1.945  10.694  -2.279
 1948POPC   C4A35308  -1.807  10.687  -2.135
 1948POPC   C1B35309  -2.357  10.629  -2.442
 1948POPC   C2B35310  -2.218  10.622  -2.298
 1948POPC   C3B35311  -2.080  10.616  -2.154
 1948POPC   C4B35312  -1.942  10.609  -2.009
 1949POPC   NC335313  13.083  -5.147  19.258
 1949POPC   PO435314  13.047  -4.982  19.151
 1949POPC   GL135315  13.011  -4.817  19.044
 1949POPC   GL235316  13.100  -4.781  19.070
 1949POPC   C1A35317  12.975  -4.652  18.936
 1949POPC   D2A35318  12.938  -4.488  18.829
 1949POPC   C3A35319  12.902  -4.323  18.721
 1949POPC   C4A35320  12.866  -4.158  18.614
 1949POPC   C1B35321  13.057  -4.739  18.776
 1949POPC   C2B35322  13.021  -4.574  18.668
 1949POPC   C3B35323  12.984  -4.409  18.561
 1949POPC   C4B35324  12.948  -4.245  18.453
 1950POPC   NC335325  22.255   0.966   0.448
 1950POPC   PO435326  22.119   1.064   0.557
 1950POPC   GL135327  21.983   1.162   0.666
 1950POPC   GL235328  21.916   1.150   0.593
 1950POPC   C1A35329  21.847   1.260   0.775
 1950POPC   D2A35330  21.710   1.359   0.883
 1950POPC   C3A35331  21.574   1.457   0.992
 1950POPC   C4A35332  21.438   1.555   1.101
 1950POPC   C1B35333  21.788   1.088   0.857
 1950POPC   C2B35334  21.651   1.186   0.966
 1950POPC   C3B35335  21.515   1.284   1.074
 1950POPC   C4B35336  21.379   1.382   1.183
 1951POPC   NC335337  -7.628   6.726   6.627
 1951POPC   PO435338  -7.435   6.762   6.664
 1951POPC   GL135339  -7.242   6.798   6.701
 1951POPC   GL235340  -7.266   6.832   6.792
 1951POPC   C1A35341  -7.049   6.835   6.739
 1951POPC   D2A35342  -6.856   6.871   6.776
 1951POPC   C3A35343  -6.663   6.908   6.814
 1951POPC   C4A35344  -6.470   6.944   6.851
 1951POPC   C1B35345  -7.029   6.650   6.813
 1951POPC   C2B35346  -6.836   6.687   6.851
 1951POPC   C3B35347  -6.643   6.723   6.888
 1951POPC   C4B35348  -6.450   6.760   6.925
 1952POPC   NC335349  -2.482  19.696   0.990
 1952POPC   PO435350  -2.345  19.588   1.088
 1952POPC   GL135351  -2.208  19.480   1.186
 1952POPC   GL235352  -2.248  19.509   1.273
 1952POPC   C1A35353  -2.071  19.373   1.284
 1952POPC   D2A35354  -1.933  19.265   1.381
 1952POPC   C3A35355  -1.796  19.158   1.479
 1952POPC   C4A35356  -1.659  19.050   1.577
 1952POPC   C1B35357  -2.192  19.214   1.279
 1952POPC   C2B35358  -2.055  19.106   1.377
 1952POPC   C3B35359  -1.918  18.999   1.475
 1952POPC   C4B35360  -1.780  18.891   1.573
 1953POPC   NC335361  10.670  23.483  -1.995
 1953POPC   PO435362  10.664  23.334  -1.861
 1953POPC   GL135363  10.658  23.185  -1.727
 1953POPC   GL235364  10.758  23.185  -1.723
 1953POPC   C1A35365  10.652  23.037  -1.593
 1953POPC   D2A35366  10.645  22.888  -1.460
 1953POPC   C3A35367  10.639  22.740  -1.326
 1953POPC   C4A35368  10.633  22.591  -1.192
 1953POPC   C1B35369  10.646  23.171  -1.445
 1953POPC   C2B35370  10.640  23.022  -1.311
 1953POPC   C3B35371  10.634  22.874  -1.177
 1953POPC   C4B35372  10.628  22.725  -1.044
 1954POPC   NC335373  19.577  21.189  -0.273
 1954POPC   PO435374  19.467  21.061  -0.166
 1954POPC   GL135375  19.357  20.933  -0.059
 1954POPC   GL235376  19.338  20.880  -0.142
 1954POPC   C1A35377  19.247  20.804   0.048
 1954POPC   D2A35378  19.138  20.676   0.155
 1954POPC   C3A35379  19.028  20.547   0.262
 1954POPC   C4A35380  18.918  20.419   0.369
 1954POPC   C1B35381  19.410  20.692   0.081
 1954POPC   C2B35382  19.300  20.564   0.188
 1954POPC   C3B35383  19.190  20.436   0.295
 1954POPC   C4B35384  19.081  20.307   0.402
 1955POPC   NC335385  20.302  19.293  -1.492
 1955POPC   PO435386  20.187  19.188  -1.367
 1955POPC   GL135387  20.072  19.083  -1.242
 1955POPC   GL235388  20.150  19.025  -1.218
 1955POPC   C1A35389  19.957  18.978  -1.116
 1955POPC   D2A35390  19.842  18.872  -0.991
 1955POPC   C3A35391  19.727  18.767  -0.865
 1955POPC   C4A35392  19.612  18.662  -0.740
 1955POPC   C1B35393  20.005  19.102  -0.967
 1955POPC   C2B35394  19.890  18.997  -0.842
 1955POPC   C3B35395  19.775  18.892  -0.717
 1955POPC   C4B35396  19.660  18.787  -0.591
 1956POPC   NC335397  -3.368  21.525  14.134
 1956POPC   PO435398  -3.219  21.400  14.087
 1956POPC   GL135399  -3.070  21.275  14.040
 1956POPC   GL235400  -3.100  21.212  14.113
 1956POPC   C1A35401  -2.921  21.150  13.994
 1956POPC   D2A35402  -2.773  21.024  13.947
 1956POPC   C3A35403  -2.624  20.899  13.901
 1956POPC   C4A35404  -2.475  20.774  13.854
 1956POPC   C1B35405  -3.041  21.056  13.863
 1956POPC   C2B35406  -2.892  20.931  13.817
 1956POPC   C3B35407  -2.743  20.806  13.770
 1956POPC   C4B35408  -2.594  20.681  13.724
 1957POPC   NC335409   8.537  14.577  -7.490
 1957POPC   PO435410   8.550  14.526  -7.297
 1957POPC   GL135411   8.563  14.475  -7.104
 1957POPC   GL235412   8.621  14.397  -7.128
 1957POPC   C1A35413   8.576  14.424  -6.911
 1957POPC   D2A35414   8.588  14.372  -6.718
 1957POPC   C3A35415   8.601  14.321  -6.525
 1957POPC   C4A35416   8.614  14.270  -6.332
 1957POPC   C1B35417   8.737  14.540  -6.891
 1957POPC   C2B35418   8.750  14.488  -6.698
 1957POPC   C3B35419   8.763  14.437  -6.505
 1957POPC   C4B35420   8.776  14.386  -6.312
 1958POPC   NC335421  27.061   5.890  13.598
 1958POPC   PO435422  26.870   5.937  13.559
 1958POPC   GL135423  26.679   5.984  13.520
 1958POPC   GL235424  26.679   5.919  13.444
 1958POPC   C1A35425  26.489   6.030  13.481
 1958POPC   D2A35426  26.298   6.077  13.441
 1958POPC   C3A35427  26.108   6.123  13.402
 1958POPC   C4A35428  25.917   6.170  13.363
 1958POPC   C1B35429  26.428   5.885  13.604
 1958POPC   C2B35430  26.237   5.932  13.565
 1958POPC   C3B35431  26.047   5.978  13.526
 1958POPC   C4B35432  25.856   6.025  13.487
 1959POPC   NC335433   9.768  24.881  -0.232
 1959POPC   PO435434   9.772  24.719  -0.115
 1959POPC   GL135435   9.776  24.557   0.002
 1959POPC   GL235436   9.777  24.615   0.083
 1959POPC   C1A35437   9.780  24.394   0.118
 1959POPC   D2A35438   9.784  24.232   0.235
 1959POPC   C3A35439   9.788  24.069   0.351
 1959POPC   C4A35440   9.792  23.907   0.468
 1959POPC   C1B35441   9.580  24.392   0.122
 1959POPC   C2B35442   9.584  24.230   0.239
 1959POPC   C3B35443   9.588  24.067   0.355
 1959POPC   C4B35444   9.592  23.905   0.472
 1960POPC   NC335445   7.364  24.853   0.074
 1960POPC   PO435446   7.392  24.690   0.187
 1960POPC   GL135447   7.420  24.527   0.300
 1960POPC   GL235448   7.476  24.581   0.364
 1960POPC   C1A35449   7.448  24.365   0.413
 1960POPC   D2A35450   7.476  24.202   0.526
 1960POPC   C3A35451   7.504  24.040   0.639
 1960POPC   C4A35452   7.532  23.877   0.752
 1960POPC   C1B35453   7.284  24.410   0.518
 1960POPC   C2B35454   7.312  24.247   0.631
 1960POPC   C3B35455   7.340  24.085   0.744
 1960POPC   C4B35456   7.368  23.922   0.857
 1961POPC   NC335457   8.674  26.706   3.116
 1961POPC   PO435458   8.687  26.520   3.189
 1961POPC   GL135459   8.700  26.334   3.262
 1961POPC   GL235460   8.797  26.333   3.242
 1961POPC   C1A35461   8.712  26.149   3.336
 1961POPC   D2A35462   8.725  25.963   3.409
 1961POPC   C3A35463   8.737  25.778   3.483
 1961POPC   C4A35464   8.750  25.592   3.556
 1961POPC   C1B35465   8.751  26.223   3.517
 1961POPC   C2B35466   8.763  26.038   3.591
 1961POPC   C3B35467   8.776  25.852   3.664
 1961POPC   C4B35468   8.788  25.666   3.738
 1962POPC   NC335469  -3.363  13.195  -1.981
 1962POPC   PO435470  -3.221  13.167  -1.843
 1962POPC   GL135471  -3.079  13.139  -1.705
 1962POPC   GL235472  -3.149  13.132  -1.634
 1962POPC   C1A35473  -2.937  13.111  -1.567
 1962POPC   D2A35474  -2.796  13.083  -1.428
 1962POPC   C3A35475  -2.654  13.055  -1.290
 1962POPC   C4A35476  -2.512  13.027  -1.152
 1962POPC   C1B35477  -2.947  12.914  -1.597
 1962POPC   C2B35478  -2.805  12.886  -1.459
 1962POPC   C3B35479  -2.664  12.858  -1.320
 1962POPC   C4B35480  -2.522  12.830  -1.182
 1963POPC   NC335481   9.410  -6.895  16.392
 1963POPC   PO435482   9.417  -6.709  16.318
 1963POPC   GL135483   9.424  -6.523  16.244
 1963POPC   GL235484   9.455  -6.489  16.333
 1963POPC   C1A35485   9.432  -6.338  16.170
 1963POPC   D2A35486   9.439  -6.152  16.095
 1963POPC   C3A35487   9.447  -5.967  16.021
 1963POPC   C4A35488   9.454  -5.781  15.947
 1963POPC   C1B35489   9.622  -6.367  16.115
 1963POPC   C2B35490   9.629  -6.182  16.041
 1963POPC   C3B35491   9.637  -5.996  15.967
 1963POPC   C4B35492   9.644  -5.810  15.893
 1964POPC   NC335493  -1.602  17.466  21.650
 1964POPC   PO435494  -1.478  17.384  21.516
 1964POPC   GL135495  -1.354  17.302  21.382
 1964POPC   GL235496  -1.281  17.363  21.413
 1964POPC   C1A35497  -1.230  17.220  21.248
 1964POPC   D2A35498  -1.107  17.138  21.114
 1964POPC   C3A35499  -0.983  17.056  20.980
 1964POPC   C4A35500  -0.859  16.974  20.846
 1964POPC   C1B35501  -1.174  17.084  21.383
 1964POPC   C2B35502  -1.050  17.002  21.249
 1964POPC   C3B35503  -0.926  16.920  21.115
 1964POPC   C4B35504  -0.803  16.838  20.981
 1965POPC   NC335505  13.267  25.118   0.717
 1965POPC   PO435506  13.230  24.948   0.815
 1965POPC   GL135507  13.193  24.778   0.913
 1965POPC   GL235508  13.269  24.734   0.866
 1965POPC   C1A35509  13.156  24.608   1.012
 1965POPC   D2A35510  13.118  24.438   1.110
 1965POPC   C3A35511  13.081  24.268   1.209
 1965POPC   C4A35512  13.044  24.098   1.307
 1965POPC   C1B35513  13.280  24.665   1.157
 1965POPC   C2B35514  13.243  24.495   1.256
 1965POPC   C3B35515  13.206  24.325   1.354
 1965POPC   C4B35516  13.169  24.155   1.453
 1966POPC   NC335517  11.953  -4.940  -0.014
 1966POPC   PO435518  11.930  -4.774   0.096
 1966POPC   GL135519  11.907  -4.608   0.206
 1966POPC   GL235520  11.968  -4.646   0.275
 1966POPC   C1A35521  11.884  -4.443   0.316
 1966POPC   D2A35522  11.862  -4.277   0.425
 1966POPC   C3A35523  11.839  -4.112   0.535
 1966POPC   C4A35524  11.816  -3.946   0.645
 1966POPC   C1B35525  12.041  -4.360   0.223
 1966POPC   C2B35526  12.018  -4.194   0.333
 1966POPC   C3B35527  11.996  -4.029   0.443
 1966POPC   C4B35528  11.973  -3.863   0.553
 1967POPC   NC335529  -6.674   4.141  14.087
 1967POPC   PO435530  -6.490   4.206  14.043
 1967POPC   GL135531  -6.306   4.271  13.999
 1967POPC   GL235532  -6.301   4.317  14.088
 1967POPC   C1A35533  -6.122   4.337  13.955
 1967POPC   D2A35534  -5.939   4.402  13.912
 1967POPC   C3A35535  -5.755   4.468  13.868
 1967POPC   C4A35536  -5.571   4.533  13.824
 1967POPC   C1B35537  -6.044   4.172  14.037
 1967POPC   C2B35538  -5.860   4.237  13.993
 1967POPC   C3B35539  -5.677   4.302  13.949
 1967POPC   C4B35540  -5.493   4.368  13.905
 1968POPC   NC335541  12.148  -6.428  17.227
 1968POPC   PO435542  12.120  -6.247  17.147
 1968POPC   GL135543  12.092  -6.066  17.067
 1968POPC   GL235544  12.131  -6.024  17.149
 1968POPC   C1A35545  12.063  -5.885  16.987
 1968POPC   D2A35546  12.035  -5.703  16.907
 1968POPC   C3A35547  12.006  -5.522  16.827
 1968POPC   C4A35548  11.978  -5.341  16.747
 1968POPC   C1B35549  12.245  -5.893  16.904
 1968POPC   C2B35550  12.217  -5.711  16.824
 1968POPC   C3B35551  12.188  -5.530  16.744
 1968POPC   C4B35552  12.160  -5.349  16.664
 1969POPC   NC335553   7.589  27.874   8.977
 1969POPC   PO435554   7.610  27.675   8.989
 1969POPC   GL135555   7.631  27.476   9.001
 1969POPC   GL235556   7.684  27.477   8.916
 1969POPC   C1A35557   7.651  27.278   9.013
 1969POPC   D2A35558   7.672  27.079   9.025
 1969POPC   C3A35559   7.692  26.881   9.037
 1969POPC   C4A35560   7.713  26.682   9.049
 1969POPC   C1B35561   7.820  27.302   9.118
 1969POPC   C2B35562   7.840  27.103   9.130
 1969POPC   C3B35563   7.861  26.904   9.142
 1969POPC   C4B35564   7.882  26.706   9.154
 1970POPC   NC335565  21.000  20.348   0.305
 1970POPC   PO435566  20.877  20.228   0.408
 1970POPC   GL135567  20.754  20.108   0.511
 1970POPC   GL235568  20.719  20.071   0.425
 1970POPC   C1A35569  20.632  19.988   0.614
 1970POPC   D2A35570  20.509  19.869   0.717
 1970POPC   C3A35571  20.387  19.749   0.820
 1970POPC   C4A35572  20.264  19.629   0.923
 1970POPC   C1B35573  20.773  19.847   0.618
 1970POPC   C2B35574  20.651  19.727   0.721
 1970POPC   C3B35575  20.528  19.608   0.824
 1970POPC   C4B35576  20.406  19.488   0.927
 1971POPC   NC335577  -6.185   7.685  17.907
 1971POPC   PO435578  -6.006   7.705  17.820
 1971POPC   GL135579  -5.827   7.725  17.733
 1971POPC   GL235580  -5.804   7.631  17.759
 1971POPC   C1A35581  -5.648   7.745  17.646
 1971POPC   D2A35582  -5.469   7.765  17.560
 1971POPC   C3A35583  -5.290   7.785  17.473
 1971POPC   C4A35584  -5.111   7.805  17.386
 1971POPC   C1B35585  -5.724   7.678  17.474
 1971POPC   C2B35586  -5.545   7.698  17.387
 1971POPC   C3B35587  -5.366   7.718  17.300
 1971POPC   C4B35588  -5.187   7.738  17.213
 1972POPC   NC335589   7.973  -0.823  24.301
 1972POPC   PO435590   7.992  -0.705  24.141
 1972POPC   GL135591   8.011  -0.587  23.981
 1972POPC   GL235592   8.111  -0.595  23.987
 1972POPC   C1A35593   8.031  -0.469  23.820
 1972POPC   D2A35594   8.050  -0.352  23.660
 1972POPC   C3A35595   8.070  -0.234  23.499
 1972POPC   C4A35596   8.089  -0.116  23.339
 1972POPC   C1B35597   8.025  -0.630  23.701
 1972POPC   C2B35598   8.045  -0.512  23.541
 1972POPC   C3B35599   8.064  -0.395  23.381
 1972POPC   C4B35600   8.083  -0.277  23.220
 1973POPC   NC335601  -7.831   9.716  13.503
 1973POPC   PO435602  -7.635   9.720  13.463
 1973POPC   GL135603  -7.439   9.724  13.423
 1973POPC   GL235604  -7.419   9.703  13.518
 1973POPC   C1A35605  -7.243   9.728  13.382
 1973POPC   D2A35606  -7.048   9.733  13.342
 1973POPC   C3A35607  -6.852   9.737  13.301
 1973POPC   C4A35608  -6.656   9.741  13.261
 1973POPC   C1B35609  -7.248   9.533  13.340
 1973POPC   C2B35610  -7.052   9.537  13.300
 1973POPC   C3B35611  -6.856   9.541  13.260
 1973POPC   C4B35612  -6.660   9.545  13.219
 1974POPC   NC335613  -3.774  11.835  -1.747
 1974POPC   PO435614  -3.627  11.822  -1.612
 1974POPC   GL135615  -3.480  11.809  -1.477
 1974POPC   GL235616  -3.492  11.905  -1.454
 1974POPC   C1A35617  -3.332  11.795  -1.343
 1974POPC   D2A35618  -3.185  11.782  -1.208
 1974POPC   C3A35619  -3.037  11.768  -1.074
 1974POPC   C4A35620  -2.890  11.755  -0.939
 1974POPC   C1B35621  -3.465  11.745  -1.202
 1974POPC   C2B35622  -3.318  11.732  -1.068
 1974POPC   C3B35623  -3.170  11.718  -0.933
 1974POPC   C4B35624  -3.023  11.705  -0.798
 1975POPC   NC335625  25.443   5.234  17.663
 1975POPC   PO435626  25.271   5.283  17.575
 1975POPC   GL135627  25.099   5.332  17.487
 1975POPC   GL235628  25.126   5.429  17.487
 1975POPC   C1A35629  24.926   5.382  17.398
 1975POPC   D2A35630  24.754   5.431  17.310
 1975POPC   C3A35631  24.581   5.481  17.221
 1975POPC   C4A35632  24.409   5.530  17.133
 1975POPC   C1B35633  25.011   5.358  17.219
 1975POPC   C2B35634  24.839   5.407  17.130
 1975POPC   C3B35635  24.667   5.457  17.042
 1975POPC   C4B35636  24.494   5.506  16.954
 1976POPC   NC335637  -2.219  23.393  10.154
 1976POPC   PO435638  -2.087  23.243  10.156
 1976POPC   GL135639  -1.955  23.093  10.158
 1976POPC   GL235640  -1.908  23.135  10.236
 1976POPC   C1A35641  -1.822  22.943  10.160
 1976POPC   D2A35642  -1.690  22.794  10.162
 1976POPC   C3A35643  -1.557  22.644  10.164
 1976POPC   C4A35644  -1.425  22.494  10.166
 1976POPC   C1B35645  -1.940  22.841  10.285
 1976POPC   C2B35646  -1.807  22.691  10.287
 1976POPC   C3B35647  -1.675  22.542  10.289
 1976POPC   C4B35648  -1.543  22.392  10.291
 1977POPC   NC335649   4.532  17.167  -5.749
 1977POPC   PO435650   4.591  17.087  -5.576
 1977POPC   GL135651   4.650  17.007  -5.403
 1977POPC   GL235652   4.656  17.099  -5.363
 1977POPC   C1A35653   4.710  16.927  -5.229
 1977POPC   D2A35654   4.769  16.848  -5.056
 1977POPC   C3A35655   4.829  16.768  -4.882
 1977POPC   C4A35656   4.888  16.688  -4.709
 1977POPC   C1B35657   4.519  16.914  -5.170
 1977POPC   C2B35658   4.579  16.834  -4.997
 1977POPC   C3B35659   4.638  16.754  -4.823
 1977POPC   C4B35660   4.697  16.674  -4.650
 1978POPC   NC335661  -0.198  -1.129  20.019
 1978POPC   PO435662  -0.086  -1.009  19.905
 1978POPC   GL135663   0.026  -0.889  19.791
 1978POPC   GL235664   0.101  -0.896  19.857
 1978POPC   C1A35665   0.138  -0.768  19.677
 1978POPC   D2A35666   0.250  -0.648  19.564
 1978POPC   C3A35667   0.362  -0.527  19.450
 1978POPC   C4A35668   0.474  -0.407  19.336
 1978POPC   C1B35669   0.209  -0.927  19.579
 1978POPC   C2B35670   0.321  -0.807  19.465
 1978POPC   C3B35671   0.433  -0.686  19.351
 1978POPC   C4B35672   0.545  -0.566  19.238
 1979POPC   NC335673  17.888  25.527   5.557
 1979POPC   PO435674  17.801  25.352   5.601
 1979POPC   GL135675  17.714  25.177   5.645
 1979POPC   GL235676  17.790  25.129   5.602
 1979POPC   C1A35677  17.628  25.002   5.690
 1979POPC   D2A35678  17.541  24.828   5.734
 1979POPC   C3A35679  17.455  24.653   5.779
 1979POPC   C4A35680  17.368  24.478   5.823
 1979POPC   C1B35681  17.725  24.999   5.864
 1979POPC   C2B35682  17.639  24.824   5.909
 1979POPC   C3B35683  17.552  24.649   5.953
 1979POPC   C4B35684  17.465  24.474   5.998
 1980POPC   NC335685  26.607   3.295   8.887
 1980POPC   PO435686  26.422   3.371   8.900
 1980POPC   GL135687  26.237   3.447   8.913
 1980POPC   GL235688  26.247   3.486   8.821
 1980POPC   C1A35689  26.052   3.522   8.926
 1980POPC   D2A35690  25.868   3.598   8.938
 1980POPC   C3A35691  25.683   3.673   8.951
 1980POPC   C4A35692  25.498   3.749   8.964
 1980POPC   C1B35693  25.978   3.355   8.845
 1980POPC   C2B35694  25.794   3.430   8.858
 1980POPC   C3B35695  25.609   3.506   8.871
 1980POPC   C4B35696  25.424   3.582   8.884
 1981POPC   NC335697   1.290  14.732  25.066
 1981POPC   PO435698   1.391  14.678  24.902
 1981POPC   GL135699   1.492  14.624  24.738
 1981POPC   GL235700   1.532  14.547  24.788
 1981POPC   C1A35701   1.593  14.570  24.574
 1981POPC   D2A35702   1.693  14.517  24.409
 1981POPC   C3A35703   1.794  14.463  24.245
 1981POPC   C4A35704   1.895  14.409  24.081
 1981POPC   C1B35705   1.440  14.454  24.518
 1981POPC   C2B35706   1.540  14.400  24.354
 1981POPC   C3B35707   1.641  14.347  24.189
 1981POPC   C4B35708   1.742  14.293  24.025
 1982POPC   NC335709  -1.787  15.801  22.375
 1982POPC   PO435710  -1.662  15.736  22.234
 1982POPC   GL135711  -1.537  15.671  22.093
 1982POPC   GL235712  -1.459  15.685  22.154
 1982POPC   C1A35713  -1.411  15.605  21.951
 1982POPC   D2A35714  -1.286  15.540  21.810
 1982POPC   C3A35715  -1.160  15.474  21.668
 1982POPC   C4A35716  -1.035  15.409  21.527
 1982POPC   C1B35717  -1.431  15.418  22.020
 1982POPC   C2B35718  -1.305  15.353  21.879
 1982POPC   C3B35719  -1.180  15.288  21.737
 1982POPC   C4B35720  -1.055  15.222  21.596
 1983POPC   NC335721  11.127   9.739  -8.103
 1983POPC   PO435722  11.117   9.745  -7.903
 1983POPC   GL135723  11.107   9.751  -7.703
 1983POPC   GL235724  11.079   9.846  -7.707
 1983POPC   C1A35725  11.098   9.756  -7.504
 1983POPC   D2A35726  11.088   9.762  -7.304
 1983POPC   C3A35727  11.079   9.767  -7.105
 1983POPC   C4A35728  11.069   9.773  -6.905
 1983POPC   C1B35729  10.906   9.699  -7.511
 1983POPC   C2B35730  10.897   9.705  -7.312
 1983POPC   C3B35731  10.887   9.710  -7.112
 1983POPC   C4B35732  10.877   9.716  -6.913
 1984POPC   NC335733  21.888   2.032  -0.839
 1984POPC   PO435734  21.755   2.120  -0.718
 1984POPC   GL135735  21.622   2.208  -0.597
 1984POPC   GL235736  21.672   2.294  -0.604
 1984POPC   C1A35737  21.490   2.295  -0.475
 1984POPC   D2A35738  21.357   2.383  -0.354
 1984POPC   C3A35739  21.225   2.470  -0.232
 1984POPC   C4A35740  21.092   2.558  -0.111
 1984POPC   C1B35741  21.378   2.345  -0.633
 1984POPC   C2B35742  21.246   2.433  -0.512
 1984POPC   C3B35743  21.113   2.521  -0.391
 1984POPC   C4B35744  20.980   2.608  -0.269
 1985POPC   NC335745  11.669  20.159  24.746
 1985POPC   PO435746  11.645  20.047  24.582
 1985POPC   GL135747  11.621  19.935  24.418
 1985POPC   GL235748  11.711  19.963  24.386
 1985POPC   C1A35749  11.597  19.822  24.254
 1985POPC   D2A35750  11.573  19.710  24.091
 1985POPC   C3A35751  11.549  19.597  23.927
 1985POPC   C4A35752  11.525  19.485  23.763
 1985POPC   C1B35753  11.680  19.667  24.349
 1985POPC   C2B35754  11.656  19.554  24.185
 1985POPC   C3B35755  11.632  19.442  24.021
 1985POPC   C4B35756  11.608  19.329  23.857
 1986POPC   NC335757  23.996  -0.048   4.873
 1986POPC   PO435758  23.839   0.064   4.925
 1986POPC   GL135759  23.682   0.176   4.977
 1986POPC   GL235760  23.704   0.241   4.904
 1986POPC   C1A35761  23.525   0.289   5.029
 1986POPC   D2A35762  23.368   0.401   5.082
 1986POPC   C3A35763  23.211   0.514   5.134
 1986POPC   C4A35764  23.054   0.626   5.186
 1986POPC   C1B35765  23.409   0.184   4.904
 1986POPC   C2B35766  23.252   0.297   4.957
 1986POPC   C3B35767  23.095   0.409   5.009
 1986POPC   C4B35768  22.938   0.522   5.061
 1987POPC   NC335769  14.249  -7.412  12.091
 1987POPC   PO435770  14.200  -7.220  12.065
 1987POPC   GL135771  14.151  -7.028  12.039
 1987POPC   GL235772  14.159  -7.039  11.940
 1987POPC   C1A35773  14.102  -6.836  12.013
 1987POPC   D2A35774  14.054  -6.643  11.988
 1987POPC   C3A35775  14.005  -6.451  11.962
 1987POPC   C4A35776  13.956  -6.259  11.936
 1987POPC   C1B35777  13.909  -6.886  12.004
 1987POPC   C2B35778  13.860  -6.694  11.978
 1987POPC   C3B35779  13.811  -6.502  11.952
 1987POPC   C4B35780  13.763  -6.309  11.926
 1988POPC   NC335781  12.721  -7.681   7.140
 1988POPC   PO435782  12.688  -7.486   7.169
 1988POPC   GL135783  12.655  -7.291   7.198
 1988POPC   GL235784  12.707  -7.295   7.283
 1988POPC   C1A35785  12.622  -7.096   7.227
 1988POPC   D2A35786  12.589  -6.900   7.255
 1988POPC   C3A35787  12.556  -6.705   7.284
 1988POPC   C4A35788  12.523  -6.510   7.313
 1988POPC   C1B35789  12.790  -7.053   7.127
 1988POPC   C2B35790  12.757  -6.857   7.156
 1988POPC   C3B35791  12.724  -6.662   7.185
 1988POPC   C4B35792  12.691  -6.467   7.213
 1989POPC   NC335793   9.758  16.526  -6.886
 1989POPC   PO435794   9.757  16.453  -6.700
 1989POPC   GL135795   9.756  16.380  -6.514
 1989POPC   GL235796   9.771  16.473  -6.478
 1989POPC   C1A35797   9.754  16.308  -6.327
 1989POPC   D2A35798   9.753  16.235  -6.141
 1989POPC   C3A35799   9.751  16.163  -5.954
 1989POPC   C4A35800   9.750  16.090  -5.768
 1989POPC   C1B35801   9.557  16.337  -6.317
 1989POPC   C2B35802   9.555  16.264  -6.131
 1989POPC   C3B35803   9.554  16.192  -5.945
 1989POPC   C4B35804   9.552  16.119  -5.758
 1990POPC   NC335805  14.757  -6.543   4.596
 1990POPC   PO435806  14.696  -6.362   4.654
 1990POPC   GL135807  14.635  -6.181   4.712
 1990POPC   GL235808  14.704  -6.180   4.784
 1990POPC   C1A35809  14.573  -5.999   4.770
 1990POPC   D2A35810  14.512  -5.818   4.827
 1990POPC   C3A35811  14.450  -5.636   4.885
 1990POPC   C4A35812  14.389  -5.455   4.943
 1990POPC   C1B35813  14.703  -5.915   4.643
 1990POPC   C2B35814  14.642  -5.733   4.701
 1990POPC   C3B35815  14.580  -5.552   4.758
 1990POPC   C4B35816  14.519  -5.371   4.816
 1991POPC   NC335817  -0.199  -3.220  17.108
 1991POPC   PO435818  -0.089  -3.075  17.025
 1991POPC   GL135819   0.021  -2.930  16.942
 1991POPC   GL235820   0.095  -2.995  16.925
 1991POPC   C1A35821   0.131  -2.785  16.859
 1991POPC   D2A35822   0.240  -2.639  16.777
 1991POPC   C3A35823   0.350  -2.494  16.694
 1991POPC   C4A35824   0.460  -2.349  16.611
 1991POPC   C1B35825   0.052  -2.827  16.680
 1991POPC   C2B35826   0.162  -2.682  16.598
 1991POPC   C3B35827   0.272  -2.537  16.515
 1991POPC   C4B35828   0.382  -2.392  16.432
 1992POPC   NC335829  24.778  18.788  15.022
 1992POPC   PO435830  24.614  18.688  14.967
 1992POPC   GL135831  24.450  18.588  14.912
 1992POPC   GL235832  24.433  18.655  14.840
 1992POPC   C1A35833  24.286  18.488  14.857
 1992POPC   D2A35834  24.121  18.387  14.803
 1992POPC   C3A35835  23.957  18.287  14.748
 1992POPC   C4A35836  23.793  18.187  14.693
 1992POPC   C1B35837  24.395  18.378  14.731
 1992POPC   C2B35838  24.230  18.278  14.676
 1992POPC   C3B35839  24.066  18.178  14.621
 1992POPC   C4B35840  23.902  18.077  14.566
 1993POPC   NC335841  23.881  -1.072   7.331
 1993POPC   PO435842  23.725  -0.951   7.360
 1993POPC   GL135843  23.569  -0.830   7.389
 1993POPC   GL235844  23.572  -0.803   7.293
 1993POPC   C1A35845  23.412  -0.709   7.419
 1993POPC   D2A35846  23.256  -0.587   7.448
 1993POPC   C3A35847  23.099  -0.466   7.478
 1993POPC   C4A35848  22.943  -0.345   7.507
 1993POPC   C1B35849  23.288  -0.858   7.373
 1993POPC   C2B35850  23.131  -0.737   7.402
 1993POPC   C3B35851  22.975  -0.616   7.431
 1993POPC   C4B35852  22.819  -0.495   7.461
 1994POPC   NC335853  20.894  21.679  17.987
 1994POPC   PO435854  20.771  21.545  17.903
 1994POPC   GL135855  20.648  21.411  17.819
 1994POPC   GL235856  20.624  21.478  17.748
 1994POPC   C1A35857  20.526  21.278  17.734
 1994POPC   D2A35858  20.403  21.144  17.650
 1994POPC   C3A35859  20.281  21.011  17.565
 1994POPC   C4A35860  20.158  20.877  17.481
 1994POPC   C1B35861  20.676  21.211  17.620
 1994POPC   C2B35862  20.554  21.078  17.536
 1994POPC   C3B35863  20.431  20.944  17.452
 1994POPC   C4B35864  20.309  20.811  17.367
 1995POPC   NC335865  -2.283   2.175  -0.912
 1995POPC   PO435866  -2.154   2.263  -0.787
 1995POPC   GL135867  -2.025   2.351  -0.662
 1995POPC   GL235868  -2.052   2.289  -0.590
 1995POPC   C1A35869  -1.896   2.440  -0.538
 1995POPC   D2A35870  -1.766   2.528  -0.413
 1995POPC   C3A35871  -1.637   2.617  -0.289
 1995POPC   C4A35872  -1.508   2.705  -0.164
 1995POPC   C1B35873  -1.753   2.312  -0.595
 1995POPC   C2B35874  -1.624   2.400  -0.470
 1995POPC   C3B35875  -1.495   2.488  -0.346
 1995POPC   C4B35876  -1.365   2.577  -0.221
 1996POPC   NC335877  20.174  -4.029   5.097
 1996POPC   PO435878  20.061  -3.873   5.151
 1996POPC   GL135879  19.948  -3.717   5.205
 1996POPC   GL235880  19.946  -3.686   5.110
 1996POPC   C1A35881  19.835  -3.561   5.258
 1996POPC   D2A35882  19.721  -3.405   5.312
 1996POPC   C3A35883  19.608  -3.249   5.365
 1996POPC   C4A35884  19.495  -3.093   5.419
 1996POPC   C1B35885  19.670  -3.669   5.225
 1996POPC   C2B35886  19.557  -3.513   5.279
 1996POPC   C3B35887  19.443  -3.357   5.332
 1996POPC   C4B35888  19.330  -3.201   5.386
 1997POPC   NC335889  18.885   1.967  -3.507
 1997POPC   PO435890  18.779   2.051  -3.360
 1997POPC   GL135891  18.673   2.135  -3.213
 1997POPC   GL235892  18.750   2.197  -3.193
 1997POPC   C1A35893  18.568   2.220  -3.065
 1997POPC   D2A35894  18.462   2.304  -2.918
 1997POPC   C3A35895  18.357   2.389  -2.770
 1997POPC   C4A35896  18.251   2.473  -2.623
 1997POPC   C1B35897  18.493   2.353  -3.195
 1997POPC   C2B35898  18.387   2.437  -3.047
 1997POPC   C3B35899  18.282   2.521  -2.900
 1997POPC   C4B35900  18.176   2.606  -2.753
 1998POPC   NC335901  22.680  -2.685   8.753
 1998POPC   PO435902  22.537  -2.545   8.766
 1998POPC   GL135903  22.394  -2.405   8.779
 1998POPC   GL235904  22.455  -2.349   8.835
 1998POPC   C1A35905  22.252  -2.266   8.793
 1998POPC   D2A35906  22.109  -2.126   8.806
 1998POPC   C3A35907  21.967  -1.987   8.820
 1998POPC   C4A35908  21.824  -1.847   8.833
 1998POPC   C1B35909  22.322  -2.178   8.627
 1998POPC   C2B35910  22.179  -2.039   8.641
 1998POPC   C3B35911  22.037  -1.899   8.654
 1998POPC   C4B35912  21.894  -1.759   8.667
 1999POPC   NC335913  17.749  26.064   8.344
 1999POPC   PO435914  17.660  25.885   8.359
 1999POPC   GL135915  17.571  25.706   8.374
 1999POPC   GL235916  17.650  25.664   8.330
 1999POPC   C1A35917  17.483  25.528   8.389
 1999POPC   D2A35918  17.394  25.349   8.405
 1999POPC   C3A35919  17.306  25.171   8.420
 1999POPC   C4A35920  17.217  24.992   8.435
 1999POPC   C1B35921  17.569  25.500   8.568
 1999POPC   C2B35922  17.480  25.322   8.583
 1999POPC   C3B35923  17.392  25.143   8.598
 1999POPC   C4B35924  17.303  24.965   8.613
 2000POPC   NC335925  23.356  18.347   1.308
 2000POPC   PO435926  23.208  18.254   1.405
 2000POPC   GL135927  23.060  18.161   1.502
 2000POPC   GL235928  23.004  18.165   1.420
 2000POPC   C1A35929  22.912  18.068   1.600
 2000POPC   D2A35930  22.764  17.976   1.697
 2000POPC   C3A35931  22.616  17.883   1.795
 2000POPC   C4A35932  22.468  17.790   1.892
 2000POPC   C1B35933  22.985  17.891   1.542
 2000POPC   C2B35934  22.837  17.799   1.639
 2000POPC   C3B35935  22.689  17.706   1.737
 2000POPC   C4B35936  22.541  17.613   1.834
 2001POPC   NC335937   5.739  19.786  -4.712
 2001POPC   PO435938   5.784  19.678  -4.550
 2001POPC   GL135939   5.829  19.570  -4.388
 2001POPC   GL235940   5.920  19.551  -4.425
 2001POPC   C1A35941   5.874  19.462  -4.225
 2001POPC   D2A35942   5.918  19.354  -4.063
 2001POPC   C3A35943   5.963  19.246  -3.900
 2001POPC   C4A35944   6.008  19.138  -3.738
 2001POPC   C1B35945   5.944  19.626  -4.135
 2001POPC   C2B35946   5.989  19.518  -3.973
 2001POPC   C3B35947   6.034  19.410  -3.811
 2001POPC   C4B35948   6.079  19.302  -3.648
 2002POPC   NC335949  -3.867   9.659  -1.704
 2002POPC   PO435950  -3.717   9.664  -1.572
 2002POPC   GL135951  -3.567   9.669  -1.440
 2002POPC   GL235952  -3.627   9.713  -1.373
 2002POPC   C1A35953  -3.416   9.674  -1.308
 2002POPC   D2A35954  -3.266   9.680  -1.177
 2002POPC   C3A35955  -3.115   9.685  -1.045
 2002POPC   C4A35956  -2.965   9.690  -0.913
 2002POPC   C1B35957  -3.470   9.495  -1.239
 2002POPC   C2B35958  -3.320   9.500  -1.108
 2002POPC   C3B35959  -3.170   9.505  -0.976
 2002POPC   C4B35960  -3.019   9.510  -0.844
 2003POPC   NC335961  24.093  -0.888  12.289
 2003POPC   PO435962  23.936  -0.768  12.258
 2003POPC   GL135963  23.779  -0.648  12.227
 2003POPC   GL235964  23.828  -0.572  12.271
 2003POPC   C1A35965  23.623  -0.527  12.195
 2003POPC   D2A35966  23.466  -0.407  12.164
 2003POPC   C3A35967  23.310  -0.286  12.132
 2003POPC   C4A35968  23.153  -0.166  12.101
 2003POPC   C1B35969  23.700  -0.473  12.019
 2003POPC   C2B35970  23.543  -0.353  11.987
 2003POPC   C3B35971  23.386  -0.233  11.956
 2003POPC   C4B35972  23.230  -0.112  11.924
 2004POPC   NC335973  27.520   9.616   6.436
 2004POPC   PO435974  27.324   9.621   6.474
 2004POPC   GL135975  27.128   9.626   6.512
 2004POPC   GL235976  27.131   9.726   6.513
 2004POPC   C1A35977  26.931   9.632   6.549
 2004POPC   D2A35978  26.735   9.637   6.587
 2004POPC   C3A35979  26.538   9.643   6.624
 2004POPC   C4A35980  26.342   9.648   6.662
 2004POPC   C1B35981  26.894   9.635   6.353
 2004POPC   C2B35982  26.697   9.641   6.390
 2004POPC   C3B35983  26.501   9.646   6.428
 2004POPC   C4B35984  26.305   9.651   6.466
 2005POPC   NC335985  24.492   0.650  14.932
 2005POPC   PO435986  24.331   0.756  14.879
 2005POPC   GL135987  24.170   0.862  14.826
 2005POPC   GL235988  24.201   0.861  14.731
 2005POPC   C1A35989  24.009   0.968  14.772
 2005POPC   D2A35990  23.848   1.074  14.719
 2005POPC   C3A35991  23.687   1.180  14.665
 2005POPC   C4A35992  23.526   1.286  14.612
 2005POPC   C1B35993  23.908   0.798  14.742
 2005POPC   C2B35994  23.747   0.904  14.688
 2005POPC   C3B35995  23.586   1.010  14.635
 2005POPC   C4B35996  23.425   1.116  14.581
 2006POPC   NC335997  -5.331  10.156   0.170
 2006POPC   PO435998  -5.164  10.157   0.280
 2006POPC   GL135999  -4.997  10.158   0.390
 2006POPC   GL236000  -5.005  10.059   0.402
 2006POPC   C1A36001  -4.830  10.159   0.500
 2006POPC   D2A36002  -4.662  10.159   0.609
 2006POPC   C3A36003  -4.495  10.160   0.719
 2006POPC   C4A36004  -4.328  10.161   0.829
 2006POPC   C1B36005  -4.721  10.129   0.334
 2006POPC   C2B36006  -4.554  10.130   0.444
 2006POPC   C3B36007  -4.387  10.131   0.554
 2006POPC   C4B36008  -4.219  10.131   0.664
 2007POPC   NC336009  24.860  14.309   0.879
 2007POPC   PO436010  24.694  14.263   0.980
 2007POPC   GL136011  24.528  14.217   1.081
 2007POPC   GL236012  24.473  14.264   1.013
 2007POPC   C1A36013  24.362  14.170   1.182
 2007POPC   D2A36014  24.195  14.124   1.284
 2007POPC   C3A36015  24.029  14.077   1.385
 2007POPC   C4A36016  23.863  14.031   1.486
 2007POPC   C1B36017  24.345  14.001   1.078
 2007POPC   C2B36018  24.179  13.954   1.179
 2007POPC   C3B36019  24.013  13.908   1.280
 2007POPC   C4B36020  23.847  13.861   1.381
 2008POPC   NC336021  17.578  -2.995   0.018
 2008POPC   PO436022  17.493  -2.852   0.128
 2008POPC   GL136023  17.408  -2.709   0.238
 2008POPC   GL236024  17.424  -2.642   0.165
 2008POPC   C1A36025  17.323  -2.565   0.349
 2008POPC   D2A36026  17.238  -2.422   0.459
 2008POPC   C3A36027  17.153  -2.278   0.570
 2008POPC   C4A36028  17.068  -2.135   0.680
 2008POPC   C1B36029  17.145  -2.609   0.269
 2008POPC   C2B36030  17.060  -2.466   0.379
 2008POPC   C3B36031  16.975  -2.322   0.490
 2008POPC   C4B36032  16.890  -2.179   0.600
 2009POPC   NC336033  17.140  14.122  -6.104
 2009POPC   PO436034  17.060  14.078  -5.926
 2009POPC   GL136035  16.980  14.034  -5.748
 2009POPC   GL236036  16.915  13.972  -5.793
 2009POPC   C1A36037  16.899  13.990  -5.571
 2009POPC   D2A36038  16.819  13.945  -5.393
 2009POPC   C3A36039  16.738  13.901  -5.216
 2009POPC   C4A36040  16.658  13.857  -5.038
 2009POPC   C1B36041  17.029  13.839  -5.549
 2009POPC   C2B36042  16.949  13.795  -5.372
 2009POPC   C3B36043  16.869  13.751  -5.194
 2009POPC   C4B36044  16.788  13.707  -5.016
 2010POPC   NC336045  13.415  -6.031   2.313
 2010POPC   PO436046  13.374  -5.855   2.399
 2010POPC   GL136047  13.333  -5.679   2.485
 2010POPC   GL236048  13.371  -5.632   2.406
 2010POPC   C1A36049  13.292  -5.503   2.571
 2010POPC   D2A36050  13.251  -5.328   2.657
 2010POPC   C3A36051  13.210  -5.152   2.743
 2010POPC   C4A36052  13.169  -4.976   2.829
 2010POPC   C1B36053  13.112  -5.503   2.485
 2010POPC   C2B36054  13.071  -5.327   2.571
 2010POPC   C3B36055  13.030  -5.152   2.657
 2010POPC   C4B36056  12.989  -4.976   2.743
 2011POPC   NC336057  10.305  -7.004  16.116
 2011POPC   PO436058  10.300  -6.816  16.047
 2011POPC   GL136059  10.295  -6.628  15.978
 2011POPC   GL236060  10.357  -6.600  16.051
 2011POPC   C1A36061  10.289  -6.440  15.909
 2011POPC   D2A36062  10.284  -6.253  15.841
 2011POPC   C3A36063  10.278  -6.065  15.772
 2011POPC   C4A36064  10.273  -5.877  15.703
 2011POPC   C1B36065  10.445  -6.480  15.790
 2011POPC   C2B36066  10.439  -6.292  15.721
 2011POPC   C3B36067  10.434  -6.104  15.652
 2011POPC   C4B36068  10.429  -5.916  15.584
 2012POPC   NC336069  -7.516  14.937   9.537
 2012POPC   PO436070  -7.324  14.882   9.541
 2012POPC   GL136071  -7.132  14.827   9.545
 2012POPC   GL236072  -7.157  14.743   9.593
 2012POPC   C1A36073  -6.940  14.772   9.549
 2012POPC   D2A36074  -6.747  14.716   9.552
 2012POPC   C3A36075  -6.555  14.661   9.556
 2012POPC   C4A36076  -6.363  14.606   9.560
 2012POPC   C1B36077  -6.963  14.679   9.373
 2012POPC   C2B36078  -6.770  14.624   9.377
 2012POPC   C3B36079  -6.578  14.568   9.381
 2012POPC   C4B36080  -6.386  14.513   9.384
 2013POPC   NC336081  27.326  14.252   8.086
 2013POPC   PO436082  27.133  14.203   8.107
 2013POPC   GL136083  26.940  14.154   8.128
 2013POPC   GL236084  26.931  14.147   8.028
 2013POPC   C1A36085  26.747  14.105   8.148
 2013POPC   D2A36086  26.555  14.056   8.169
 2013POPC   C3A36087  26.362  14.007   8.189
 2013POPC   C4A36088  26.169  13.958   8.210
 2013POPC   C1B36089  26.797  13.912   8.158
 2013POPC   C2B36090  26.605  13.863   8.178
 2013POPC   C3B36091  26.412  13.814   8.199
 2013POPC   C4B36092  26.219  13.765   8.219
 2014POPC   NC336093  -6.892   7.844  16.344
 2014POPC   PO436094  -6.707   7.865  16.272
 2014POPC   GL136095  -6.522   7.886  16.200
 2014POPC   GL236096  -6.497   7.796  16.236
 2014POPC   C1A36097  -6.336   7.907  16.128
 2014POPC   D2A36098  -6.151   7.928  16.056
 2014POPC   C3A36099  -5.965   7.949  15.984
 2014POPC   C4A36100  -5.780   7.970  15.912
 2014POPC   C1B36101  -6.393   7.823  15.956
 2014POPC   C2B36102  -6.208   7.844  15.884
 2014POPC   C3B36103  -6.023   7.865  15.812
 2014POPC   C4B36104  -5.837   7.886  15.740
 2015POPC   NC336105   5.187   2.073  25.471
 2015POPC   PO436106   5.228   2.156  25.293
 2015POPC   GL136107   5.269   2.239  25.115
 2015POPC   GL236108   5.310   2.153  25.085
 2015POPC   C1A36109   5.310   2.321  24.938
 2015POPC   D2A36110   5.350   2.404  24.760
 2015POPC   C3A36111   5.391   2.486  24.583
 2015POPC   C4A36112   5.432   2.569  24.405
 2015POPC   C1B36113   5.132   2.261  24.869
 2015POPC   C2B36114   5.173   2.343  24.691
 2015POPC   C3B36115   5.213   2.426  24.514
 2015POPC   C4B36116   5.254   2.509  24.336
 2016POPC   NC336117   0.350   8.226  25.243
 2016POPC   PO436118   0.458   8.252  25.077
 2016POPC   GL136119   0.566   8.278  24.911
 2016POPC   GL236120   0.622   8.198  24.934
 2016POPC   C1A36121   0.675   8.305  24.745
 2016POPC   D2A36122   0.783   8.331  24.579
 2016POPC   C3A36123   0.892   8.358  24.413
 2016POPC   C4A36124   1.000   8.384  24.247
 2016POPC   C1B36125   0.548   8.188  24.644
 2016POPC   C2B36126   0.656   8.214  24.478
 2016POPC   C3B36127   0.765   8.241  24.312
 2016POPC   C4B36128   0.873   8.267  24.146
 2017POPC   NC336129  -5.004  10.145  20.133
 2017POPC   PO436130  -4.841  10.141  20.017
 2017POPC   GL136131  -4.678  10.137  19.901
 2017POPC   GL236132  -4.629  10.086  19.972
 2017POPC   C1A36133  -4.515  10.133  19.786
 2017POPC   D2A36134  -4.352  10.128  19.670
 2017POPC   C3A36135  -4.189  10.124  19.555
 2017POPC   C4A36136  -4.026  10.120  19.439
 2017POPC   C1B36137  -4.577   9.961  19.705
 2017POPC   C2B36138  -4.414   9.957  19.589
 2017POPC   C3B36139  -4.251   9.952  19.473
 2017POPC   C4B36140  -4.088   9.948  19.358
 2018POPC   NC336141  -7.726   6.236  11.296
 2018POPC   PO436142  -7.532   6.280  11.278
 2018POPC   GL136143  -7.338   6.324  11.260
 2018POPC   GL236144  -7.314   6.237  11.305
 2018POPC   C1A36145  -7.143   6.368  11.243
 2018POPC   D2A36146  -6.949   6.411  11.225
 2018POPC   C3A36147  -6.754   6.455  11.208
 2018POPC   C4A36148  -6.560   6.499  11.190
 2018POPC   C1B36149  -7.139   6.276  11.065
 2018POPC   C2B36150  -6.944   6.320  11.047
 2018POPC   C3B36151  -6.750   6.364  11.030
 2018POPC   C4B36152  -6.556   6.408  11.012
 2019POPC   NC336153  -1.830  17.620  -1.568
 2019POPC   PO436154  -1.701  17.535  -1.440
 2019POPC   GL136155  -1.572  17.450  -1.312
 2019POPC   GL236156  -1.511  17.528  -1.323
 2019POPC   C1A36157  -1.444  17.365  -1.185
 2019POPC   D2A36158  -1.315  17.281  -1.057
 2019POPC   C3A36159  -1.187  17.196  -0.930
 2019POPC   C4A36160  -1.058  17.111  -0.802
 2019POPC   C1B36161  -1.535  17.457  -1.032
 2019POPC   C2B36162  -1.406  17.372  -0.905
 2019POPC   C3B36163  -1.278  17.288  -0.777
 2019POPC   C4B36164  -1.149  17.203  -0.649
 2020POPC   NC336165   1.526   2.107  23.851
 2020POPC   PO436166   1.627   2.190  23.700
 2020POPC   GL136167   1.728   2.273  23.549
 2020POPC   GL236168   1.811   2.273  23.604
 2020POPC   C1A36169   1.828   2.357  23.397
 2020POPC   D2A36170   1.929   2.440  23.246
 2020POPC   C3A36171   2.029   2.524  23.094
 2020POPC   C4A36172   2.130   2.607  22.943
 2020POPC   C1B36173   1.873   2.175  23.327
 2020POPC   C2B36174   1.973   2.258  23.175
 2020POPC   C3B36175   2.074   2.342  23.024
 2020POPC   C4B36176   2.175   2.425  22.873
 2021POPC   NC336177  -0.215  10.784  -4.944
 2021POPC   PO436178  -0.102  10.773  -4.779
 2021POPC   GL136179   0.011  10.762  -4.614
 2021POPC   GL236180  -0.051  10.826  -4.568
 2021POPC   C1A36181   0.124  10.752  -4.450
 2021POPC   D2A36182   0.238  10.741  -4.285
 2021POPC   C3A36183   0.351  10.731  -4.121
 2021POPC   C4A36184   0.464  10.720  -3.956
 2021POPC   C1B36185   0.016  10.597  -4.385
 2021POPC   C2B36186   0.129  10.586  -4.220
 2021POPC   C3B36187   0.242  10.576  -4.056
 2021POPC   C4B36188   0.355  10.565  -3.891
 2022POPC   NC336189  15.556  26.577   5.842
 2022POPC   PO436190  15.494  26.393   5.890
 2022POPC   GL136191  15.432  26.209   5.938
 2022POPC   GL236192  15.502  26.170   5.878
 2022POPC   C1A36193  15.370  26.025   5.986
 2022POPC   D2A36194  15.308  25.841   6.034
 2022POPC   C3A36195  15.246  25.657   6.082
 2022POPC   C4A36196  15.184  25.473   6.130
 2022POPC   C1B36197  15.499  26.021   6.139
 2022POPC   C2B36198  15.437  25.837   6.187
 2022POPC   C3B36199  15.375  25.653   6.235
 2022POPC   C4B36200  15.313  25.469   6.283
 2023POPC   NC336201   2.185  12.796  -6.142
 2023POPC   PO436202   2.275  12.766  -5.966
 2023POPC   GL136203   2.365  12.736  -5.790
 2023POPC   GL236204   2.342  12.830  -5.763
 2023POPC   C1A36205   2.454  12.706  -5.614
 2023POPC   D2A36206   2.544  12.677  -5.437
 2023POPC   C3A36207   2.633  12.647  -5.261
 2023POPC   C4A36208   2.723  12.617  -5.085
 2023POPC   C1B36209   2.281  12.642  -5.536
 2023POPC   C2B36210   2.371  12.613  -5.360
 2023POPC   C3B36211   2.460  12.583  -5.184
 2023POPC   C4B36212   2.550  12.553  -5.008
 2024POPC   NC336213  -1.569  14.031  23.237
 2024POPC   PO436214  -1.445  13.984  23.087
 2024POPC   GL136215  -1.321  13.937  22.937
 2024POPC   GL236216  -1.243  13.951  22.998
 2024POPC   C1A36217  -1.198  13.891  22.787
 2024POPC   D2A36218  -1.074  13.844  22.637
 2024POPC   C3A36219  -0.951  13.798  22.487
 2024POPC   C4A36220  -0.827  13.751  22.337
 2024POPC   C1B36221  -1.206  13.698  22.840
 2024POPC   C2B36222  -1.082  13.652  22.690
 2024POPC   C3B36223  -0.959  13.605  22.540
 2024POPC   C4B36224  -0.835  13.558  22.390
 2025POPC   NC336225  24.212  20.469   7.096
 2025POPC   PO436226  24.051  20.356   7.131
 2025POPC   GL136227  23.890  20.243   7.166
 2025POPC   GL236228  23.938  20.163   7.128
 2025POPC   C1A36229  23.729  20.129   7.200
 2025POPC   D2A36230  23.568  20.016   7.235
 2025POPC   C3A36231  23.407  19.902   7.269
 2025POPC   C4A36232  23.246  19.789   7.304
 2025POPC   C1B36233  23.799  20.085   7.382
 2025POPC   C2B36234  23.638  19.972   7.417
 2025POPC   C3B36235  23.477  19.859   7.452
 2025POPC   C4B36236  23.316  19.745   7.486
 2026POPC   NC336237   1.385  10.745  -5.953
 2026POPC   PO436238   1.484  10.734  -5.780
 2026POPC   GL136239   1.583  10.723  -5.607
 2026POPC   GL236240   1.537  10.806  -5.575
 2026POPC   C1A36241   1.682  10.711  -5.433
 2026POPC   D2A36242   1.781  10.700  -5.260
 2026POPC   C3A36243   1.880  10.688  -5.086
 2026POPC   C4A36244   1.979  10.677  -4.913
 2026POPC   C1B36245   1.534  10.600  -5.356
 2026POPC   C2B36246   1.633  10.589  -5.183
 2026POPC   C3B36247   1.732  10.578  -5.009
 2026POPC   C4B36248   1.831  10.566  -4.836
 2027POPC   NC336249  17.017  -6.581   9.818
 2027POPC   PO436250  16.937  -6.398   9.820
 2027POPC   GL136251  16.857  -6.215   9.822
 2027POPC   GL236252  16.930  -6.182   9.763
 2027POPC   C1A36253  16.776  -6.032   9.825
 2027POPC   D2A36254  16.696  -5.848   9.827
 2027POPC   C3A36255  16.615  -5.665   9.830
 2027POPC   C4A36256  16.535  -5.482   9.832
 2027POPC   C1B36257  16.666  -6.078   9.664
 2027POPC   C2B36258  16.586  -5.895   9.667
 2027POPC   C3B36259  16.505  -5.711   9.669
 2027POPC   C4B36260  16.425  -5.528   9.672
 2028POPC   NC336261  17.155  25.396   4.041
 2028POPC   PO436262  17.080  25.222   4.105
 2028POPC   GL136263  17.005  25.048   4.169
 2028POPC   GL236264  17.021  25.008   4.078
 2028POPC   C1A36265  16.931  24.874   4.233
 2028POPC   D2A36266  16.856  24.699   4.296
 2028POPC   C3A36267  16.782  24.525   4.360
 2028POPC   C4A36268  16.707  24.351   4.424
 2028POPC   C1B36269  17.114  24.816   4.289
 2028POPC   C2B36270  17.039  24.642   4.352
 2028POPC   C3B36271  16.965  24.467   4.416
 2028POPC   C4B36272  16.890  24.293   4.480
 2029POPC   NC336273  15.627  12.632  26.884
 2029POPC   PO436274  15.565  12.605  26.696
 2029POPC   GL136275  15.503  12.578  26.508
 2029POPC   GL236276  15.595  12.599  26.475
 2029POPC   C1A36277  15.442  12.551  26.319
 2029POPC   D2A36278  15.380  12.525  26.131
 2029POPC   C3A36279  15.319  12.498  25.942
 2029POPC   C4A36280  15.257  12.471  25.754
 2029POPC   C1B36281  15.490  12.358  26.331
 2029POPC   C2B36282  15.429  12.331  26.142
 2029POPC   C3B36283  15.367  12.304  25.954
 2029POPC   C4B36284  15.306  12.277  25.766
 2030POPC   NC336285  24.310  18.780  16.280
 2030POPC   PO436286  24.152  18.677  16.214
 2030POPC   GL136287  23.994  18.574  16.148
 2030POPC   GL236288  23.969  18.650  16.088
 2030POPC   C1A36289  23.836  18.471  16.082
 2030POPC   D2A36290  23.677  18.368  16.015
 2030POPC   C3A36291  23.519  18.265  15.949
 2030POPC   C4A36292  23.361  18.162  15.883
 2030POPC   C1B36293  23.948  18.392  15.936
 2030POPC   C2B36294  23.790  18.289  15.870
 2030POPC   C3B36295  23.631  18.186  15.804
 2030POPC   C4B36296  23.473  18.083  15.737
 2031POPC   NC336297  -1.842   0.288  19.675
 2031POPC   PO436298  -1.713   0.393  19.564
 2031POPC   GL136299  -1.584   0.498  19.453
 2031POPC   GL236300  -1.517   0.425  19.462
 2031POPC   C1A36301  -1.455   0.604  19.342
 2031POPC   D2A36302  -1.327   0.709  19.231
 2031POPC   C3A36303  -1.198   0.815  19.120
 2031POPC   C4A36304  -1.069   0.920  19.009
 2031POPC   C1B36305  -1.527   0.517  19.177
 2031POPC   C2B36306  -1.398   0.623  19.066
 2031POPC   C3B36307  -1.270   0.728  18.955
 2031POPC   C4B36308  -1.141   0.833  18.844
 2032POPC   NC336309  13.379  -6.641  16.014
 2032POPC   PO436310  13.337  -6.457  15.949
 2032POPC   GL136311  13.295  -6.273  15.884
 2032POPC   GL236312  13.345  -6.292  15.799
 2032POPC   C1A36313  13.253  -6.089  15.818
 2032POPC   D2A36314  13.211  -5.904  15.753
 2032POPC   C3A36315  13.169  -5.720  15.687
 2032POPC   C4A36316  13.127  -5.536  15.622
 2032POPC   C1B36317  13.085  -6.157  15.734
 2032POPC   C2B36318  13.043  -5.973  15.669
 2032POPC   C3B36319  13.001  -5.788  15.603
 2032POPC   C4B36320  12.959  -5.604  15.538
 2033POPC   NC336321  -7.669  13.100  13.157
 2033POPC   PO436322  -7.475  13.066  13.120
 2033POPC   GL136323  -7.281  13.032  13.083
 2033POPC   GL236324  -7.261  13.042  13.180
 2033POPC   C1A36325  -7.088  12.998  13.046
 2033POPC   D2A36326  -6.894  12.964  13.008
 2033POPC   C3A36327  -6.701  12.930  12.971
 2033POPC   C4A36328  -6.507  12.896  12.934
 2033POPC   C1B36329  -7.117  12.802  13.072
 2033POPC   C2B36330  -6.924  12.768  13.035
 2033POPC   C3B36331  -6.730  12.734  12.997
 2033POPC   C4B36332  -6.537  12.700  12.960
 2034POPC   NC336333  11.234  26.790  16.442
 2034POPC   PO436334  11.216  26.604  16.372
 2034POPC   GL136335  11.198  26.418  16.302
 2034POPC   GL236336  11.297  26.413  16.289
 2034POPC   C1A36337  11.180  26.231  16.232
 2034POPC   D2A36338  11.162  26.045  16.161
 2034POPC   C3A36339  11.144  25.858  16.091
 2034POPC   C4A36340  11.126  25.672  16.021
 2034POPC   C1B36341  11.200  26.159  16.417
 2034POPC   C2B36342  11.182  25.973  16.347
 2034POPC   C3B36343  11.164  25.787  16.277
 2034POPC   C4B36344  11.146  25.600  16.207
 2035POPC   NC336345  18.415  20.762  21.683
 2035POPC   PO436346  18.319  20.644  21.553
 2035POPC   GL136347  18.223  20.526  21.423
 2035POPC   GL236348  18.310  20.484  21.398
 2035POPC   C1A36349  18.127  20.408  21.294
 2035POPC   D2A36350  18.030  20.290  21.164
 2035POPC   C3A36351  17.934  20.172  21.035
 2035POPC   C4A36352  17.838  20.054  20.905
 2035POPC   C1B36353  18.102  20.271  21.437
 2035POPC   C2B36354  18.006  20.153  21.307
 2035POPC   C3B36355  17.910  20.035  21.178
 2035POPC   C4B36356  17.814  19.917  21.048
 2036POPC   NC336357  -4.601  19.185  15.585
 2036POPC   PO436358  -4.441  19.082  15.523
 2036POPC   GL136359  -4.281  18.979  15.461
 2036POPC   GL236360  -4.222  19.039  15.515
 2036POPC   C1A36361  -4.121  18.875  15.400
 2036POPC   D2A36362  -3.962  18.772  15.338
 2036POPC   C3A36363  -3.802  18.668  15.277
 2036POPC   C4A36364  -3.642  18.565  15.215
 2036POPC   C1B36365  -4.140  18.753  15.557
 2036POPC   C2B36366  -3.980  18.650  15.496
 2036POPC   C3B36367  -3.820  18.546  15.434
 2036POPC   C4B36368  -3.660  18.443  15.372
 2037POPC   NC336369  -0.132   7.553  24.796
 2037POPC   PO436370  -0.018   7.586  24.635
 2037POPC   GL136371   0.096   7.619  24.474
 2037POPC   GL236372   0.162   7.551  24.507
 2037POPC   C1A36373   0.209   7.651  24.313
 2037POPC   D2A36374   0.323   7.684  24.151
 2037POPC   C3A36375   0.436   7.716  23.990
 2037POPC   C4A36376   0.550   7.749  23.829
 2037POPC   C1B36377   0.111   7.507  24.215
 2037POPC   C2B36378   0.225   7.539  24.053
 2037POPC   C3B36379   0.339   7.572  23.892
 2037POPC   C4B36380   0.452   7.605  23.731
 2038POPC   NC336381  16.632  21.577  22.056
 2038POPC   PO436382  16.559  21.448  21.922
 2038POPC   GL136383  16.486  21.319  21.788
 2038POPC   GL236384  16.577  21.309  21.748
 2038POPC   C1A36385  16.413  21.190  21.653
 2038POPC   D2A36386  16.340  21.061  21.519
 2038POPC   C3A36387  16.267  20.932  21.384
 2038POPC   C4A36388  16.194  20.803  21.250
 2038POPC   C1B36389  16.451  21.038  21.778
 2038POPC   C2B36390  16.378  20.909  21.644
 2038POPC   C3B36391  16.305  20.780  21.509
 2038POPC   C4B36392  16.232  20.651  21.375
 2039POPC   NC336393  -0.697  12.045  -4.478
 2039POPC   PO436394  -0.580  12.023  -4.317
 2039POPC   GL136395  -0.463  12.001  -4.156
 2039POPC   GL236396  -0.481  12.096  -4.130
 2039POPC   C1A36397  -0.346  11.980  -3.996
 2039POPC   D2A36398  -0.228  11.958  -3.835
 2039POPC   C3A36399  -0.111  11.937  -3.675
 2039POPC   C4A36400   0.006  11.915  -3.514
 2039POPC   C1B36401  -0.503  11.919  -3.889
 2039POPC   C2B36402  -0.386  11.898  -3.728
 2039POPC   C3B36403  -0.269  11.876  -3.568
 2039POPC   C4B36404  -0.152  11.855  -3.407
 2040POPC   NC336405  15.037  -7.242  11.673
 2040POPC   PO436406  14.978  -7.052  11.652
 2040POPC   GL136407  14.919  -6.862  11.631
 2040POPC   GL236408  14.945  -6.844  11.726
 2040POPC   C1A36409  14.860  -6.672  11.610
 2040POPC   D2A36410  14.800  -6.483  11.588
 2040POPC   C3A36411  14.741  -6.293  11.567
 2040POPC   C4A36412  14.682  -6.103  11.546
 2040POPC   C1B36413  15.043  -6.622  11.549
 2040POPC   C2B36414  14.984  -6.432  11.528
 2040POPC   C3B36415  14.925  -6.242  11.507
 2040POPC   C4B36416  14.866  -6.053  11.486
 2041POPC   NC336417  27.724  12.366   9.466
 2041POPC   PO436418  27.525  12.346   9.469
 2041POPC   GL136419  27.326  12.326   9.472
 2041POPC   GL236420  27.320  12.373   9.383
 2041POPC   C1A36421  27.127  12.307   9.474
 2041POPC   D2A36422  26.928  12.287   9.477
 2041POPC   C3A36423  26.729  12.268   9.479
 2041POPC   C4A36424  26.530  12.248   9.482
 2041POPC   C1B36425  27.143  12.131   9.380
 2041POPC   C2B36426  26.944  12.112   9.382
 2041POPC   C3B36427  26.745  12.092   9.385
 2041POPC   C4B36428  26.546  12.072   9.387
 2042POPC   NC336429  14.504  -4.821   0.685
 2042POPC   PO436430  14.451  -4.658   0.789
 2042POPC   GL136431  14.398  -4.495   0.893
 2042POPC   GL236432  14.488  -4.455   0.876
 2042POPC   C1A36433  14.346  -4.332   0.996
 2042POPC   D2A36434  14.293  -4.170   1.100
 2042POPC   C3A36435  14.241  -4.007   1.203
 2042POPC   C4A36436  14.188  -3.844   1.307
 2042POPC   C1B36437  14.277  -4.248   0.829
 2042POPC   C2B36438  14.224  -4.085   0.932
 2042POPC   C3B36439  14.171  -3.923   1.036
 2042POPC   C4B36440  14.119  -3.760   1.139
 2043POPC   NC336441  25.721  16.979   4.945
 2043POPC   PO436442  25.546  16.896   4.994
 2043POPC   GL136443  25.371  16.813   5.043
 2043POPC   GL236444  25.405  16.724   5.015
 2043POPC   C1A36445  25.196  16.730   5.092
 2043POPC   D2A36446  25.020  16.648   5.142
 2043POPC   C3A36447  24.845  16.565   5.191
 2043POPC   C4A36448  24.670  16.482   5.240
 2043POPC   C1B36449  25.263  16.697   5.278
 2043POPC   C2B36450  25.088  16.615   5.327
 2043POPC   C3B36451  24.913  16.532   5.376
 2043POPC   C4B36452  24.738  16.449   5.425
 2044POPC   NC336453   6.043  23.826  20.846
 2044POPC   PO436454   6.087  23.677  20.720
 2044POPC   GL136455   6.131  23.528  20.594
 2044POPC   GL236456   6.193  23.589  20.544
 2044POPC   C1A36457   6.175  23.380  20.467
 2044POPC   D2A36458   6.219  23.231  20.341
 2044POPC   C3A36459   6.263  23.083  20.214
 2044POPC   C4A36460   6.307  22.934  20.088
 2044POPC   C1B36461   6.325  23.323  20.586
 2044POPC   C2B36462   6.369  23.174  20.460
 2044POPC   C3B36463   6.413  23.026  20.334
 2044POPC   C4B36464   6.457  22.877  20.207
 2045POPC   NC336465   6.896   5.189  -7.206
 2045POPC   PO436466   6.925   5.241  -7.015
 2045POPC   GL136467   6.954   5.293  -6.824
 2045POPC   GL236468   6.893   5.220  -6.795
 2045POPC   C1A36469   6.983   5.345  -6.633
 2045POPC   D2A36470   7.011   5.397  -6.442
 2045POPC   C3A36471   7.040   5.449  -6.251
 2045POPC   C4A36472   7.069   5.501  -6.060
 2045POPC   C1B36473   7.138   5.220  -6.622
 2045POPC   C2B36474   7.167   5.272  -6.431
 2045POPC   C3B36475   7.196   5.324  -6.240
 2045POPC   C4B36476   7.225   5.376  -6.049
 2046POPC   NC336477  18.947  -1.136  20.826
 2046POPC   PO436478  18.845  -1.012  20.707
 2046POPC   GL136479  18.743  -0.888  20.588
 2046POPC   GL236480  18.759  -0.949  20.510
 2046POPC   C1A36481  18.641  -0.764  20.468
 2046POPC   D2A36482  18.538  -0.641  20.349
 2046POPC   C3A36483  18.436  -0.517  20.229
 2046POPC   C4A36484  18.334  -0.393  20.110
 2046POPC   C1B36485  18.472  -0.863  20.510
 2046POPC   C2B36486  18.370  -0.739  20.391
 2046POPC   C3B36487  18.267  -0.616  20.271
 2046POPC   C4B36488  18.165  -0.492  20.152
 2047POPC   NC336489   9.557  -1.770  23.642
 2047POPC   PO436490   9.557  -1.638  23.492
 2047POPC   GL136491   9.557  -1.506  23.342
 2047POPC   GL236492   9.635  -1.459  23.383
 2047POPC   C1A36493   9.556  -1.373  23.192
 2047POPC   D2A36494   9.556  -1.241  23.042
 2047POPC   C3A36495   9.555  -1.108  22.892
 2047POPC   C4A36496   9.555  -0.976  22.742
 2047POPC   C1B36497   9.680  -1.490  23.088
 2047POPC   C2B36498   9.680  -1.358  22.938
 2047POPC   C3B36499   9.680  -1.226  22.788
 2047POPC   C4B36500   9.679  -1.093  22.638
 2048POPC   NC336501  12.469  25.119   0.451
 2048POPC   PO436502  12.439  24.950   0.554
 2048POPC   GL136503  12.409  24.781   0.657
 2048POPC   GL236504  12.493  24.743   0.618
 2048POPC   C1A36505  12.379  24.612   0.759
 2048POPC   D2A36506  12.349  24.443   0.862
 2048POPC   C3A36507  12.319  24.274   0.964
 2048POPC   C4A36508  12.289  24.105   1.067
 2048POPC   C1B36509  12.484  24.686   0.912
 2048POPC   C2B36510  12.454  24.517   1.015
 2048POPC   C3B36511  12.424  24.348   1.118
 2048POPC   C4B36512  12.394  24.179   1.220
 2049POPC   NC336513   8.262  13.968  -7.619
 2049POPC   PO436514   8.278  13.924  -7.425
 2049POPC   GL136515   8.294  13.880  -7.231
 2049POPC   GL236516   8.380  13.831  -7.249
 2049POPC   C1A36517   8.310  13.836  -7.036
 2049POPC   D2A36518   8.327  13.791  -6.842
 2049POPC   C3A36519   8.343  13.747  -6.647
 2049POPC   C4A36520   8.359  13.703  -6.453
 2049POPC   C1B36521   8.413  14.004  -7.006
 2049POPC   C2B36522   8.430  13.960  -6.812
 2049POPC   C3B36523   8.446  13.916  -6.618
 2049POPC   C4B36524   8.462  13.872  -6.423
 2050POPC   NC336525  11.291  27.459   5.687
 2050POPC   PO436526  11.273  27.265   5.733
 2050POPC   GL136527  11.255  27.071   5.779
 2050POPC   GL236528  11.328  27.081   5.847
 2050POPC   C1A36529  11.238  26.877   5.826
 2050POPC   D2A36530  11.220  26.684   5.872
 2050POPC   C3A36531  11.203  26.490   5.919
 2050POPC   C4A36532  11.185  26.296   5.965
 2050POPC   C1B36533  11.102  26.923   5.966
 2050POPC   C2B36534  11.085  26.729   6.012
 2050POPC   C3B36535  11.067  26.536   6.058
 2050POPC   C4B36536  11.050  26.342   6.105
 2051POPC   NC336537  24.164   0.774   3.814
 2051POPC   PO436538  24.006   0.877   3.880
 2051POPC   GL136539  23.848   0.980   3.946
 2051POPC   GL236540  23.903   1.064   3.948
 2051POPC   C1A36541  23.690   1.084   4.012
 2051POPC   D2A36542  23.532   1.187   4.079
 2051POPC   C3A36543  23.374   1.291   4.145
 2051POPC   C4A36544  23.216   1.394   4.211
 2051POPC   C1B36545  23.637   1.123   3.824
 2051POPC   C2B36546  23.479   1.226   3.890
 2051POPC   C3B36547  23.321   1.330   3.956
 2051POPC   C4B36548  23.163   1.433   4.022
 2052POPC   NC336549  11.660  27.932   9.927
 2052POPC   PO436550  11.642  27.733   9.926
 2052POPC   GL136551  11.624  27.534   9.925
 2052POPC   GL236552  11.635  27.533   9.825
 2052POPC   C1A36553  11.606  27.335   9.924
 2052POPC   D2A36554  11.588  27.135   9.922
 2052POPC   C3A36555  11.570  26.936   9.921
 2052POPC   C4A36556  11.552  26.737   9.920
 2052POPC   C1B36557  11.804  27.317   9.946
 2052POPC   C2B36558  11.786  27.117   9.945
 2052POPC   C3B36559  11.768  26.918   9.944
 2052POPC   C4B36560  11.750  26.719   9.942
 2053POPC   NC336561  -0.676  12.998  24.223
 2053POPC   PO436562  -0.559  12.960  24.065
 2053POPC   GL136563  -0.442  12.922  23.907
 2053POPC   GL236564  -0.361  12.931  23.965
 2053POPC   C1A36565  -0.325  12.885  23.750
 2053POPC   D2A36566  -0.207  12.847  23.592
 2053POPC   C3A36567  -0.090  12.810  23.435
 2053POPC   C4A36568   0.027  12.772  23.277
 2053POPC   C1B36569  -0.332  12.689  23.791
 2053POPC   C2B36570  -0.215  12.652  23.633
 2053POPC   C3B36571  -0.098  12.614  23.476
 2053POPC   C4B36572   0.019  12.576  23.318
 2054POPC   NC336573   2.966  -0.674  22.837
 2054POPC   PO436574   3.043  -0.554  22.697
 2054POPC   GL136575   3.120  -0.434  22.557
 2054POPC   GL236576   3.191  -0.405  22.621
 2054POPC   C1A36577   3.197  -0.314  22.417
 2054POPC   D2A36578   3.274  -0.193  22.277
 2054POPC   C3A36579   3.351  -0.073  22.137
 2054POPC   C4A36580   3.428   0.047  21.997
 2054POPC   C1B36581   3.315  -0.462  22.354
 2054POPC   C2B36582   3.392  -0.342  22.214
 2054POPC   C3B36583   3.469  -0.222  22.074
 2054POPC   C4B36584   3.546  -0.102  21.934
 2055POPC   NC336585  16.851  25.154   3.106
 2055POPC   PO436586  16.777  24.984   3.181
 2055POPC   GL136587  16.703  24.814   3.256
 2055POPC   GL236588  16.776  24.812   3.324
 2055POPC   C1A36589  16.629  24.644   3.331
 2055POPC   D2A36590  16.554  24.475   3.406
 2055POPC   C3A36591  16.480  24.305   3.481
 2055POPC   C4A36592  16.406  24.135   3.556
 2055POPC   C1B36593  16.515  24.750   3.458
 2055POPC   C2B36594  16.441  24.580   3.533
 2055POPC   C3B36595  16.367  24.410   3.608
 2055POPC   C4B36596  16.293  24.240   3.683
 2056POPC   NC336597  18.479  -3.463   1.529
 2056POPC   PO436598  18.383  -3.312   1.619
 2056POPC   GL136599  18.287  -3.161   1.709
 2056POPC   GL236600  18.357  -3.160   1.781
 2056POPC   C1A36601  18.192  -3.010   1.799
 2056POPC   D2A36602  18.096  -2.860   1.890
 2056POPC   C3A36603  18.001  -2.709   1.980
 2056POPC   C4A36604  17.905  -2.558   2.070
 2056POPC   C1B36605  18.299  -2.879   1.694
 2056POPC   C2B36606  18.204  -2.728   1.784
 2056POPC   C3B36607  18.108  -2.577   1.874
 2056POPC   C4B36608  18.012  -2.427   1.964
 2057POPC   NC336609  14.130  27.361  12.392
 2057POPC   PO436610  14.085  27.168  12.363
 2057POPC   GL136611  14.040  26.975  12.334
 2057POPC   GL236612  14.098  26.950  12.411
 2057POPC   C1A36613  13.995  26.783  12.304
 2057POPC   D2A36614  13.951  26.590  12.275
 2057POPC   C3A36615  13.906  26.398  12.245
 2057POPC   C4A36616  13.861  26.205  12.216
 2057POPC   C1B36617  13.838  26.801  12.426
 2057POPC   C2B36618  13.793  26.608  12.397
 2057POPC   C3B36619  13.748  26.416  12.368
 2057POPC   C4B36620  13.704  26.223  12.338
 2058POPC   NC336621   3.574  -5.711   3.551
 2058POPC   PO436622   3.640  -5.535   3.619
 2058POPC   GL136623   3.706  -5.359   3.687
 2058POPC   GL236624   3.744  -5.404   3.768
 2058POPC   C1A36625   3.771  -5.183   3.756
 2058POPC   D2A36626   3.837  -5.006   3.824
 2058POPC   C3A36627   3.902  -4.830   3.893
 2058POPC   C4A36628   3.968  -4.654   3.961
 2058POPC   C1B36629   3.944  -5.209   3.659
 2058POPC   C2B36630   4.010  -5.033   3.727
 2058POPC   C3B36631   4.075  -4.857   3.796
 2058POPC   C4B36632   4.141  -4.681   3.864
 2059POPC   NC336633  11.691  -6.981   3.848
 2059POPC   PO436634  11.672  -6.794   3.917
 2059POPC   GL136635  11.653  -6.607   3.986
 2059POPC   GL236636  11.685  -6.572   3.898
 2059POPC   C1A36637  11.634  -6.420   4.055
 2059POPC   D2A36638  11.616  -6.234   4.123
 2059POPC   C3A36639  11.597  -6.047   4.192
 2059POPC   C4A36640  11.578  -5.860   4.261
 2059POPC   C1B36641  11.446  -6.415   3.989
 2059POPC   C2B36642  11.427  -6.228   4.058
 2059POPC   C3B36643  11.408  -6.042   4.126
 2059POPC   C4B36644  11.389  -5.855   4.195
 2060POPC   NC336645   9.301  21.686  23.673
 2060POPC   PO436646   9.310  21.555  23.523
 2060POPC   GL136647   9.319  21.424  23.373
 2060POPC   GL236648   9.378  21.486  23.321
 2060POPC   C1A36649   9.328  21.292  23.222
 2060POPC   D2A36650   9.338  21.161  23.072
 2060POPC   C3A36651   9.347  21.029  22.921
 2060POPC   C4A36652   9.356  20.898  22.771
 2060POPC   C1B36653   9.490  21.209  23.305
 2060POPC   C2B36654   9.499  21.077  23.155
 2060POPC   C3B36655   9.509  20.946  23.004
 2060POPC   C4B36656   9.518  20.815  22.854
 2061POPC   NC336657  20.197  23.047   2.994
 2061POPC   PO436658  20.080  22.909   3.079
 2061POPC   GL136659  19.963  22.771   3.164
 2061POPC   GL236660  19.932  22.742   3.073
 2061POPC   C1A36661  19.846  22.632   3.249
 2061POPC   D2A36662  19.730  22.494   3.333
 2061POPC   C3A36663  19.613  22.355   3.418
 2061POPC   C4A36664  19.496  22.217   3.503
 2061POPC   C1B36665  19.996  22.500   3.239
 2061POPC   C2B36666  19.879  22.361   3.323
 2061POPC   C3B36667  19.762  22.223   3.408
 2061POPC   C4B36668  19.646  22.085   3.493
 2062POPC   NC336669  14.180   0.636  24.786
 2062POPC   PO436670  14.134   0.744  24.625
 2062POPC   GL136671  14.088   0.852  24.464
 2062POPC   GL236672  14.184   0.855  24.437
 2062POPC   C1A36673  14.041   0.961  24.302
 2062POPC   D2A36674  13.995   1.069  24.141
 2062POPC   C3A36675  13.948   1.178  23.979
 2062POPC   C4A36676  13.902   1.286  23.818
 2062POPC   C1B36677  14.017   0.793  24.196
 2062POPC   C2B36678  13.970   0.901  24.035
 2062POPC   C3B36679  13.924   1.010  23.874
 2062POPC   C4B36680  13.877   1.118  23.712
 2063POPC   NC336681  -5.482  11.829   0.528
 2063POPC   PO436682  -5.311  11.813   0.631
 2063POPC   GL136683  -5.140  11.797   0.734
 2063POPC   GL236684  -5.164  11.703   0.758
 2063POPC   C1A36685  -4.969  11.781   0.836
 2063POPC   D2A36686  -4.798  11.764   0.939
 2063POPC   C3A36687  -4.627  11.748   1.041
 2063POPC   C4A36688  -4.456  11.732   1.144
 2063POPC   C1B36689  -4.877  11.714   0.672
 2063POPC   C2B36690  -4.706  11.698   0.774
 2063POPC   C3B36691  -4.535  11.682   0.877
 2063POPC   C4B36692  -4.364  11.666   0.980
 2064POPC   NC336693  -1.810  18.505  20.739
 2064POPC   PO436694  -1.683  18.412  20.616
 2064POPC   GL136695  -1.556  18.319  20.493
 2064POPC   GL236696  -1.493  18.396  20.500
 2064POPC   C1A36697  -1.428  18.225  20.371
 2064POPC   D2A36698  -1.301  18.132  20.248
 2064POPC   C3A36699  -1.173  18.038  20.126
 2064POPC   C4A36700  -1.046  17.945  20.003
 2064POPC   C1B36701  -1.339  18.140  20.528
 2064POPC   C2B36702  -1.212  18.046  20.406
 2064POPC   C3B36703  -1.084  17.953  20.283
 2064POPC   C4B36704  -0.957  17.860  20.160
 2065POPC   NC336705  10.905  23.865  -1.540
 2065POPC   PO436706  10.897  23.712  -1.412
 2065POPC   GL136707  10.889  23.559  -1.284
 2065POPC   GL236708  10.973  23.591  -1.240
 2065POPC   C1A36709  10.880  23.406  -1.155
 2065POPC   D2A36710  10.872  23.253  -1.027
 2065POPC   C3A36711  10.863  23.100  -0.898
 2065POPC   C4A36712  10.855  22.947  -0.770
 2065POPC   C1B36713  10.773  23.518  -1.029
 2065POPC   C2B36714  10.765  23.365  -0.900
 2065POPC   C3B36715  10.757  23.212  -0.772
 2065POPC   C4B36716  10.748  23.059  -0.643
 2066POPC   NC336717  -5.110   9.342  -0.123
 2066POPC   PO436718  -4.946   9.350  -0.009
 2066POPC   GL136719  -4.782   9.358   0.105
 2066POPC   GL236720  -4.784   9.259   0.115
 2066POPC   C1A36721  -4.618   9.367   0.219
 2066POPC   D2A36722  -4.454   9.375   0.334
 2066POPC   C3A36723  -4.290   9.384   0.448
 2066POPC   C4A36724  -4.126   9.392   0.562
 2066POPC   C1B36725  -4.504   9.348   0.056
 2066POPC   C2B36726  -4.340   9.357   0.171
 2066POPC   C3B36727  -4.176   9.365   0.285
 2066POPC   C4B36728  -4.012   9.373   0.399
 2067POPC   NC336729   5.440  -4.717  19.473
 2067POPC   PO436730   5.489  -4.555  19.367
 2067POPC   GL136731   5.538  -4.393  19.261
 2067POPC   GL236732   5.586  -4.355  19.340
 2067POPC   C1A36733   5.586  -4.231  19.154
 2067POPC   D2A36734   5.635  -4.068  19.048
 2067POPC   C3A36735   5.683  -3.906  18.941
 2067POPC   C4A36736   5.732  -3.744  18.835
 2067POPC   C1B36737   5.755  -4.320  19.095
 2067POPC   C2B36738   5.803  -4.158  18.988
 2067POPC   C3B36739   5.852  -3.996  18.882
 2067POPC   C4B36740   5.901  -3.834  18.776
 2068POPC   NC336741  11.275  27.571  13.652
 2068POPC   PO436742  11.258  27.376  13.612
 2068POPC   GL136743  11.241  27.181  13.572
 2068POPC   GL236744  11.279  27.196  13.481
 2068POPC   C1A36745  11.224  26.986  13.532
 2068POPC   D2A36746  11.206  26.790  13.492
 2068POPC   C3A36747  11.189  26.595  13.452
 2068POPC   C4A36748  11.172  26.400  13.412
 2068POPC   C1B36749  11.408  26.955  13.604
 2068POPC   C2B36750  11.390  26.759  13.564
 2068POPC   C3B36751  11.373  26.564  13.524
 2068POPC   C4B36752  11.356  26.369  13.484
 2069POPC   NC336753  12.288  10.110  -8.007
 2069POPC   PO436754  12.263  10.109  -7.809
 2069POPC   GL136755  12.238  10.108  -7.611
 2069POPC   GL236756  12.159  10.170  -7.620
 2069POPC   C1A36757  12.212  10.107  -7.412
 2069POPC   D2A36758  12.187  10.106  -7.214
 2069POPC   C3A36759  12.161  10.105  -7.015
 2069POPC   C4A36760  12.136  10.104  -6.817
 2069POPC   C1B36761  12.090   9.949  -7.429
 2069POPC   C2B36762  12.065   9.948  -7.230
 2069POPC   C3B36763  12.039   9.947  -7.032
 2069POPC   C4B36764  12.014   9.946  -6.833
 2070POPC   NC336765   6.551   6.858  27.386
 2070POPC   PO436766   6.587   6.894  27.193
 2070POPC   GL136767   6.623   6.930  27.000
 2070POPC   GL236768   6.721   6.917  27.016
 2070POPC   C1A36769   6.659   6.965  26.806
 2070POPC   D2A36770   6.695   7.001  26.613
 2070POPC   C3A36771   6.731   7.036  26.419
 2070POPC   C4A36772   6.767   7.072  26.226
 2070POPC   C1B36773   6.640   6.770  26.767
 2070POPC   C2B36774   6.676   6.806  26.573
 2070POPC   C3B36775   6.712   6.841  26.380
 2070POPC   C4B36776   6.748   6.877  26.187
 2071POPC   NC336777   6.942  27.098  14.953
 2071POPC   PO436778   6.976  26.910  14.894
 2071POPC   GL136779   7.010  26.722  14.835
 2071POPC   GL236780   7.030  26.696  14.930
 2071POPC   C1A36781   7.045  26.534  14.776
 2071POPC   D2A36782   7.079  26.346  14.718
 2071POPC   C3A36783   7.114  26.158  14.659
 2071POPC   C4A36784   7.148  25.970  14.600
 2071POPC   C1B36785   6.852  26.490  14.805
 2071POPC   C2B36786   6.886  26.302  14.746
 2071POPC   C3B36787   6.921  26.114  14.687
 2071POPC   C4B36788   6.955  25.926  14.628
 2072POPC   NC336789   0.521  -1.361  -0.451
 2072POPC   PO436790   0.620  -1.236  -0.331
 2072POPC   GL136791   0.719  -1.111  -0.211
 2072POPC   GL236792   0.678  -1.155  -0.131
 2072POPC   C1A36793   0.818  -0.986  -0.090
 2072POPC   D2A36794   0.918  -0.861   0.030
 2072POPC   C3A36795   1.017  -0.736   0.151
 2072POPC   C4A36796   1.116  -0.611   0.271
 2072POPC   C1B36797   0.972  -1.114  -0.083
 2072POPC   C2B36798   1.071  -0.989   0.037
 2072POPC   C3B36799   1.170  -0.864   0.158
 2072POPC   C4B36800   1.269  -0.739   0.278
 2073POPC   NC336801   1.341  -1.272  21.207
 2073POPC   PO436802   1.437  -1.149  21.082
 2073POPC   GL136803   1.533  -1.026  20.957
 2073POPC   GL236804   1.596  -1.001  21.030
 2073POPC   C1A36805   1.628  -0.903  20.832
 2073POPC   D2A36806   1.724  -0.779  20.706
 2073POPC   C3A36807   1.819  -0.656  20.581
 2073POPC   C4A36808   1.915  -0.533  20.456
 2073POPC   C1B36809   1.749  -1.052  20.777
 2073POPC   C2B36810   1.845  -0.929  20.652
 2073POPC   C3B36811   1.940  -0.806  20.526
 2073POPC   C4B36812   2.036  -0.682  20.401
 2074POPC   NC336813  -6.841  13.296   4.095
 2074POPC   PO436814  -6.655  13.258   4.158
 2074POPC   GL136815  -6.469  13.220   4.221
 2074POPC   GL236816  -6.498  13.235   4.315
 2074POPC   C1A36817  -6.283  13.182   4.283
 2074POPC   D2A36818  -6.097  13.144   4.346
 2074POPC   C3A36819  -5.911  13.106   4.408
 2074POPC   C4A36820  -5.725  13.068   4.471
 2074POPC   C1B36821  -6.328  12.988   4.300
 2074POPC   C2B36822  -6.142  12.950   4.362
 2074POPC   C3B36823  -5.956  12.912   4.425
 2074POPC   C4B36824  -5.770  12.874   4.488
 2075POPC   NC336825  -7.296  11.321   4.667
 2075POPC   PO436826  -7.105  11.306   4.723
 2075POPC   GL136827  -6.914  11.291   4.779
 2075POPC   GL236828  -6.941  11.301   4.875
 2075POPC   C1A36829  -6.722  11.277   4.836
 2075POPC   D2A36830  -6.531  11.262   4.892
 2075POPC   C3A36831  -6.339  11.248   4.949
 2075POPC   C4A36832  -6.148  11.233   5.005
 2075POPC   C1B36833  -6.742  11.078   4.850
 2075POPC   C2B36834  -6.550  11.064   4.907
 2075POPC   C3B36835  -6.359  11.049   4.963
 2075POPC   C4B36836  -6.167  11.034   5.020
 2076POPC   NC336837   5.337  26.288   3.484
 2076POPC   PO436838   5.386  26.108   3.557
 2076POPC   GL136839   5.435  25.928   3.630
 2076POPC   GL236840   5.471  25.902   3.541
 2076POPC   C1A36841   5.484  25.749   3.703
 2076POPC   D2A36842   5.532  25.569   3.777
 2076POPC   C3A36843   5.581  25.390   3.850
 2076POPC   C4A36844   5.630  25.210   3.923
 2076POPC   C1B36845   5.664  25.819   3.755
 2076POPC   C2B36846   5.713  25.639   3.828
 2076POPC   C3B36847   5.761  25.460   3.901
 2076POPC   C4B36848   5.810  25.280   3.974
 2077POPC   NC336849   3.191  15.437  25.840
 2077POPC   PO436850   3.269  15.382  25.664
 2077POPC   GL136851   3.347  15.327  25.488
 2077POPC   GL236852   3.402  15.410  25.486
 2077POPC   C1A36853   3.424  15.272  25.312
 2077POPC   D2A36854   3.502  15.217  25.136
 2077POPC   C3A36855   3.579  15.162  24.960
 2077POPC   C4A36856   3.657  15.107  24.784
 2077POPC   C1B36857   3.572  15.176  25.407
 2077POPC   C2B36858   3.649  15.121  25.231
 2077POPC   C3B36859   3.727  15.066  25.055
 2077POPC   C4B36860   3.804  15.011  24.879
 2078POPC   NC336861  22.710  10.448  -2.694
 2078POPC   PO436862  22.564  10.442  -2.557
 2078POPC   GL136863  22.418  10.436  -2.420
 2078POPC   GL236864  22.388  10.527  -2.449
 2078POPC   C1A36865  22.272  10.429  -2.284
 2078POPC   D2A36866  22.126  10.423  -2.147
 2078POPC   C3A36867  21.980  10.416  -2.011
 2078POPC   C4A36868  21.834  10.410  -1.874
 2078POPC   C1B36869  22.150  10.347  -2.419
 2078POPC   C2B36870  22.004  10.340  -2.282
 2078POPC   C3B36871  21.858  10.334  -2.145
 2078POPC   C4B36872  21.712  10.327  -2.009
 2079POPC   NC336873  -7.860   6.901   7.924
 2079POPC   PO436874  -7.664   6.937   7.946
 2079POPC   GL136875  -7.468   6.973   7.968
 2079POPC   GL236876  -7.485   7.007   8.060
 2079POPC   C1A36877  -7.273   7.009   7.989
 2079POPC   D2A36878  -7.077   7.046   8.011
 2079POPC   C3A36879  -6.882   7.082   8.032
 2079POPC   C4A36880  -6.686   7.118   8.054
 2079POPC   C1B36881  -7.247   6.825   8.061
 2079POPC   C2B36882  -7.051   6.861   8.083
 2079POPC   C3B36883  -6.855   6.897   8.104
 2079POPC   C4B36884  -6.660   6.933   8.126
 2080POPC   NC336885   3.421  22.140  21.610
 2080POPC   PO436886   3.489  22.004  21.480
 2080POPC   GL136887   3.557  21.868  21.350
 2080POPC   GL236888   3.553  21.798  21.421
 2080POPC   C1A36889   3.625  21.733  21.219
 2080POPC   D2A36890   3.692  21.597  21.089
 2080POPC   C3A36891   3.760  21.462  20.958
 2080POPC   C4A36892   3.828  21.326  20.828
 2080POPC   C1B36893   3.437  21.690  21.166
 2080POPC   C2B36894   3.504  21.554  21.036
 2080POPC   C3B36895   3.572  21.419  20.905
 2080POPC   C4B36896   3.640  21.283  20.775
 2081POPC   NC336897   7.048  27.481  13.585
 2081POPC   PO436898   7.078  27.288  13.543
 2081POPC   GL136899   7.108  27.095  13.501
 2081POPC   GL236900   7.177  27.090  13.574
 2081POPC   C1A36901   7.139  26.902  13.459
 2081POPC   D2A36902   7.169  26.708  13.418
 2081POPC   C3A36903   7.200  26.515  13.376
 2081POPC   C4A36904   7.230  26.322  13.334
 2081POPC   C1B36905   6.996  26.851  13.590
 2081POPC   C2B36906   7.026  26.658  13.548
 2081POPC   C3B36907   7.057  26.465  13.506
 2081POPC   C4B36908   7.087  26.271  13.464
 2082POPC   NC336909  27.242  12.187  14.138
 2082POPC   PO436910  27.050  12.161  14.090
 2082POPC   GL136911  26.858  12.135  14.042
 2082POPC   GL236912  26.855  12.227  14.003
 2082POPC   C1A36913  26.665  12.109  13.994
 2082POPC   D2A36914  26.473  12.084  13.947
 2082POPC   C3A36915  26.280  12.058  13.899
 2082POPC   C4A36916  26.088  12.032  13.851
 2082POPC   C1B36917  26.719  12.036  13.816
 2082POPC   C2B36918  26.527  12.010  13.769
 2082POPC   C3B36919  26.334  11.984  13.721
 2082POPC   C4B36920  26.142  11.958  13.673
 2083POPC   NC336921   5.356  18.226  25.417
 2083POPC   PO436922   5.404  18.131  25.248
 2083POPC   GL136923   5.452  18.036  25.079
 2083POPC   GL236924   5.473  17.954  25.131
 2083POPC   C1A36925   5.500  17.941  24.909
 2083POPC   D2A36926   5.548  17.847  24.740
 2083POPC   C3A36927   5.596  17.752  24.570
 2083POPC   C4A36928   5.644  17.657  24.401
 2083POPC   C1B36929   5.310  17.881  24.889
 2083POPC   C2B36930   5.358  17.786  24.720
 2083POPC   C3B36931   5.406  17.691  24.551
 2083POPC   C4B36932   5.454  17.596  24.381
 2084POPC   NC336933  19.447  23.763   3.220
 2084POPC   PO436934  19.341  23.614   3.301
 2084POPC   GL136935  19.235  23.465   3.382
 2084POPC   GL236936  19.177  23.462   3.301
 2084POPC   C1A36937  19.129  23.316   3.464
 2084POPC   D2A36938  19.023  23.168   3.545
 2084POPC   C3A36939  18.917  23.019   3.627
 2084POPC   C4A36940  18.811  22.870   3.708
 2084POPC   C1B36941  19.253  23.183   3.381
 2084POPC   C2B36942  19.147  23.034   3.463
 2084POPC   C3B36943  19.041  22.885   3.544
 2084POPC   C4B36944  18.935  22.737   3.626
 2085POPC   NC336945  10.622  -3.590  -1.969
 2085POPC   PO436946  10.614  -3.439  -1.838
 2085POPC   GL136947  10.606  -3.288  -1.707
 2085POPC   GL236948  10.685  -3.327  -1.658
 2085POPC   C1A36949  10.599  -3.137  -1.576
 2085POPC   D2A36950  10.591  -2.987  -1.444
 2085POPC   C3A36951  10.584  -2.836  -1.313
 2085POPC   C4A36952  10.576  -2.685  -1.182
 2085POPC   C1B36953  10.723  -3.031  -1.691
 2085POPC   C2B36954  10.715  -2.880  -1.560
 2085POPC   C3B36955  10.708  -2.729  -1.428
 2085POPC   C4B36956  10.700  -2.579  -1.297
 2086POPC   NC336957  -4.602  12.502  -0.668
 2086POPC   PO436958  -4.443  12.481  -0.548
 2086POPC   GL136959  -4.284  12.460  -0.428
 2086POPC   GL236960  -4.313  12.367  -0.406
 2086POPC   C1A36961  -4.125  12.439  -0.308
 2086POPC   D2A36962  -3.967  12.419  -0.189
 2086POPC   C3A36963  -3.808  12.398  -0.069
 2086POPC   C4A36964  -3.649  12.377   0.051
 2086POPC   C1B36965  -4.019  12.368  -0.462
 2086POPC   C2B36966  -3.860  12.348  -0.342
 2086POPC   C3B36967  -3.701  12.327  -0.222
 2086POPC   C4B36968  -3.542  12.306  -0.103
 2087POPC   NC336969  11.428  -4.219  -1.119
 2087POPC   PO436970  11.411  -4.061  -0.998
 2087POPC   GL136971  11.394  -3.903  -0.877
 2087POPC   GL236972  11.415  -3.961  -0.798
 2087POPC   C1A36973  11.377  -3.745  -0.756
 2087POPC   D2A36974  11.359  -3.586  -0.634
 2087POPC   C3A36975  11.342  -3.428  -0.513
 2087POPC   C4A36976  11.325  -3.270  -0.392
 2087POPC   C1B36977  11.571  -3.705  -0.780
 2087POPC   C2B36978  11.554  -3.547  -0.659
 2087POPC   C3B36979  11.537  -3.388  -0.538
 2087POPC   C4B36980  11.519  -3.230  -0.416
 2088POPC   NC336981   9.340  -6.589  17.127
 2088POPC   PO436982   9.348  -6.405  17.048
 2088POPC   GL136983   9.356  -6.221  16.969
 2088POPC   GL236984   9.443  -6.244  16.925
 2088POPC   C1A36985   9.365  -6.038  16.890
 2088POPC   D2A36986   9.373  -5.854  16.811
 2088POPC   C3A36987   9.382  -5.671  16.732
 2088POPC   C4A36988   9.390  -5.487  16.653
 2088POPC   C1B36989   9.266  -6.103  16.728
 2088POPC   C2B36990   9.275  -5.919  16.649
 2088POPC   C3B36991   9.283  -5.736  16.570
 2088POPC   C4B36992   9.292  -5.552  16.491
 2089POPC   NC336993  22.811  10.875  -2.558
 2089POPC   PO436994  22.664  10.865  -2.423
 2089POPC   GL136995  22.517  10.855  -2.288
 2089POPC   GL236996  22.494  10.951  -2.306
 2089POPC   C1A36997  22.369  10.845  -2.153
 2089POPC   D2A36998  22.222  10.835  -2.018
 2089POPC   C3A36999  22.074  10.825  -1.883
 2089POPC   C4A37000  21.927  10.815  -1.748
 2089POPC   C1B37001  22.242  10.788  -2.296
 2089POPC   C2B37002  22.095  10.778  -2.161
 2089POPC   C3B37003  21.947  10.768  -2.026
 2089POPC   C4B37004  21.800  10.758  -1.891
 2090POPC   NC337005  -2.460  11.457  23.044
 2090POPC   PO437006  -2.323  11.440  22.900
 2090POPC   GL137007  -2.186  11.423  22.756
 2090POPC   GL237008  -2.148  11.342  22.801
 2090POPC   C1A37009  -2.048  11.406  22.611
 2090POPC   D2A37010  -1.911  11.390  22.467
 2090POPC   C3A37011  -1.773  11.373  22.322
 2090POPC   C4A37012  -1.636  11.356  22.178
 2090POPC   C1B37013  -2.173  11.290  22.506
 2090POPC   C2B37014  -2.035  11.273  22.362
 2090POPC   C3B37015  -1.898  11.257  22.217
 2090POPC   C4B37016  -1.760  11.240  22.073
 2091POPC   NC337017  -4.524  15.532  19.421
 2091POPC   PO437018  -4.365  15.472  19.316
 2091POPC   GL137019  -4.206  15.412  19.211
 2091POPC   GL237020  -4.175  15.357  19.288
 2091POPC   C1A37021  -4.046  15.353  19.106
 2091POPC   D2A37022  -3.887  15.293  19.001
 2091POPC   C3A37023  -3.727  15.234  18.896
 2091POPC   C4A37024  -3.568  15.174  18.791
 2091POPC   C1B37025  -4.151  15.198  19.036
 2091POPC   C2B37026  -3.991  15.138  18.931
 2091POPC   C3B37027  -3.832  15.078  18.826
 2091POPC   C4B37028  -3.673  15.019  18.721
 2092POPC   NC337029  15.708  -7.089   9.427
 2092POPC   PO437030  15.639  -6.901   9.435
 2092POPC   GL137031  15.570  -6.713   9.443
 2092POPC   GL237032  15.662  -6.679   9.425
 2092POPC   C1A37033  15.501  -6.526   9.451
 2092POPC   D2A37034  15.433  -6.338   9.460
 2092POPC   C3A37035  15.364  -6.151   9.468
 2092POPC   C4A37036  15.295  -5.963   9.476
 2092POPC   C1B37037  15.464  -6.531   9.255
 2092POPC   C2B37038  15.396  -6.343   9.263
 2092POPC   C3B37039  15.327  -6.156   9.271
 2092POPC   C4B37040  15.258  -5.968   9.280
 2093POPC   NC337041  -1.072  12.049  -4.197
 2093POPC   PO437042  -0.951  12.027  -4.039
 2093POPC   GL137043  -0.830  12.005  -3.881
 2093POPC   GL237044  -0.866  12.091  -3.842
 2093POPC   C1A37045  -0.710  11.984  -3.723
 2093POPC   D2A37046  -0.589  11.962  -3.564
 2093POPC   C3A37047  -0.469  11.941  -3.406
 2093POPC   C4A37048  -0.348  11.919  -3.248
 2093POPC   C1B37049  -0.853  11.882  -3.627
 2093POPC   C2B37050  -0.732  11.860  -3.469
 2093POPC   C3B37051  -0.612  11.839  -3.311
 2093POPC   C4B37052  -0.491  11.817  -3.153
 2094POPC   NC337053   6.020  25.025   0.760
 2094POPC   PO437054   6.063  24.861   0.866
 2094POPC   GL137055   6.106  24.697   0.972
 2094POPC   GL237056   6.143  24.753   1.045
 2094POPC   C1A37057   6.149  24.532   1.077
 2094POPC   D2A37058   6.191  24.368   1.183
 2094POPC   C3A37059   6.234  24.203   1.288
 2094POPC   C4A37060   6.277  24.039   1.394
 2094POPC   C1B37061   5.968  24.541   1.163
 2094POPC   C2B37062   6.011  24.376   1.269
 2094POPC   C3B37063   6.054  24.212   1.375
 2094POPC   C4B37064   6.097  24.048   1.480
 2095POPC   NC337065   2.877   1.075  24.053
 2095POPC   PO437066   2.958   1.171  23.897
 2095POPC   GL137067   3.039   1.267  23.741
 2095POPC   GL237068   3.041   1.352  23.794
 2095POPC   C1A37069   3.121   1.362  23.586
 2095POPC   D2A37070   3.202   1.458  23.430
 2095POPC   C3A37071   3.284   1.553  23.275
 2095POPC   C4A37072   3.365   1.649  23.119
 2095POPC   C1B37073   3.303   1.317  23.653
 2095POPC   C2B37074   3.385   1.413  23.498
 2095POPC   C3B37075   3.466   1.508  23.342
 2095POPC   C4B37076   3.548   1.604  23.187
 2096POPC   NC337077  24.353  20.723   9.428
 2096POPC   PO437078  24.190  20.608   9.437
 2096POPC   GL137079  24.027  20.493   9.446
 2096POPC   GL237080  24.084  20.411   9.446
 2096POPC   C1A37081  23.863  20.378   9.456
 2096POPC   D2A37082  23.700  20.263   9.465
 2096POPC   C3A37083  23.536  20.148   9.475
 2096POPC   C4A37084  23.373  20.033   9.484
 2096POPC   C1B37085  23.872  20.382   9.656
 2096POPC   C2B37086  23.708  20.267   9.665
 2096POPC   C3B37087  23.545  20.152   9.674
 2096POPC   C4B37088  23.381  20.037   9.684
 2097POPC   NC337089   6.503  27.466  13.193
 2097POPC   PO437090   6.540  27.273  13.156
 2097POPC   GL137091   6.577  27.080  13.119
 2097POPC   GL237092   6.661  27.086  13.173
 2097POPC   C1A37093   6.614  26.887  13.082
 2097POPC   D2A37094   6.651  26.694  13.044
 2097POPC   C3A37095   6.688  26.501  13.007
 2097POPC   C4A37096   6.725  26.308  12.970
 2097POPC   C1B37097   6.511  26.836  13.245
 2097POPC   C2B37098   6.548  26.643  13.208
 2097POPC   C3B37099   6.585  26.450  13.171
 2097POPC   C4B37100   6.622  26.257  13.133
 2098POPC   NC337101  10.684  22.491  22.933
 2098POPC   PO437102  10.673  22.352  22.790
 2098POPC   GL137103  10.662  22.213  22.647
 2098POPC   GL237104  10.666  22.141  22.716
 2098POPC   C1A37105  10.651  22.074  22.504
 2098POPC   D2A37106  10.640  21.934  22.360
 2098POPC   C3A37107  10.629  21.795  22.217
 2098POPC   C4A37108  10.618  21.656  22.074
 2098POPC   C1B37109  10.451  22.076  22.517
 2098POPC   C2B37110  10.440  21.937  22.373
 2098POPC   C3B37111  10.429  21.798  22.230
 2098POPC   C4B37112  10.418  21.658  22.087
 2099POPC   NC337113   7.814  25.967  18.114
 2099POPC   PO437114   7.838  25.790  18.025
 2099POPC   GL137115   7.862  25.613  17.936
 2099POPC   GL237116   7.956  25.637  17.912
 2099POPC   C1A37117   7.885  25.435  17.846
 2099POPC   D2A37118   7.909  25.258  17.757
 2099POPC   C3A37119   7.932  25.080  17.667
 2099POPC   C4A37120   7.956  24.903  17.578
 2099POPC   C1B37121   7.948  25.356  18.019
 2099POPC   C2B37122   7.971  25.179  17.930
 2099POPC   C3B37123   7.995  25.002  17.840
 2099POPC   C4B37124   8.018  24.824  17.751
 2100POPC   NC337125   4.264  -4.973  18.411
 2100POPC   PO437126   4.327  -4.808  18.317
 2100POPC   GL137127   4.390  -4.643  18.223
 2100POPC   GL237128   4.480  -4.684  18.212
 2100POPC   C1A37129   4.452  -4.478  18.128
 2100POPC   D2A37130   4.515  -4.314  18.034
 2100POPC   C3A37131   4.577  -4.149  17.939
 2100POPC   C4A37132   4.640  -3.984  17.845
 2100POPC   C1B37133   4.396  -4.557  17.953
 2100POPC   C2B37134   4.459  -4.393  17.859
 2100POPC   C3B37135   4.522  -4.228  17.764
 2100POPC   C4B37136   4.584  -4.063  17.670
 2101POPC   NC337137   2.554   3.841  25.275
 2101POPC   PO437138   2.640   3.907  25.107
 2101POPC   GL137139   2.726   3.973  24.939
 2101POPC   GL237140   2.734   4.064  24.978
 2101POPC   C1A37141   2.812   4.038  24.771
 2101POPC   D2A37142   2.898   4.104  24.602
 2101POPC   C3A37143   2.984   4.169  24.434
 2101POPC   C4A37144   3.070   4.235  24.266
 2101POPC   C1B37145   2.992   3.990  24.844
 2101POPC   C2B37146   3.078   4.056  24.676
 2101POPC   C3B37147   3.164   4.122  24.508
 2101POPC   C4B37148   3.250   4.187  24.339
 2102POPC   NC337149  19.372  25.213  11.497
 2102POPC   PO437150  19.272  25.040  11.488
 2102POPC   GL137151  19.172  24.867  11.479
 2102POPC   GL237152  19.226  24.840  11.399
 2102POPC   C1A37153  19.072  24.694  11.470
 2102POPC   D2A37154  18.973  24.521  11.462
 2102POPC   C3A37155  18.873  24.348  11.453
 2102POPC   C4A37156  18.773  24.175  11.444
 2102POPC   C1B37157  19.209  24.609  11.589
 2102POPC   C2B37158  19.109  24.436  11.581
 2102POPC   C3B37159  19.009  24.263  11.572
 2102POPC   C4B37160  18.910  24.090  11.563
 2103POPC   NC337161  16.817  25.027   2.796
 2103POPC   PO437162  16.742  24.859   2.875
 2103POPC   GL137163  16.667  24.691   2.954
 2103POPC   GL237164  16.742  24.689   3.021
 2103POPC   C1A37165  16.592  24.524   3.033
 2103POPC   D2A37166  16.517  24.356   3.113
 2103POPC   C3A37167  16.442  24.189   3.192
 2103POPC   C4A37168  16.367  24.021   3.271
 2103POPC   C1B37169  16.482  24.633   3.160
 2103POPC   C2B37170  16.407  24.465   3.239
 2103POPC   C3B37171  16.332  24.298   3.319
 2103POPC   C4B37172  16.257  24.130   3.398
 2104POPC   NC337173  -8.203  10.886   9.512
 2104POPC   PO437174  -8.003  10.875   9.518
 2104POPC   GL137175  -7.803  10.864   9.524
 2104POPC   GL237176  -7.799  10.957   9.561
 2104POPC   C1A37177  -7.604  10.853   9.530
 2104POPC   D2A37178  -7.404  10.841   9.537
 2104POPC   C3A37179  -7.205  10.830   9.543
 2104POPC   C4A37180  -7.005  10.819   9.549
 2104POPC   C1B37181  -7.614  10.780   9.717
 2104POPC   C2B37182  -7.414  10.769   9.723
 2104POPC   C3B37183  -7.214  10.758   9.729
 2104POPC   C4B37184  -7.015  10.747   9.735
 2105POPC   NC337185  16.576  15.529  -5.912
 2105POPC   PO437186  16.504  15.465  -5.737
 2105POPC   GL137187  16.432  15.401  -5.562
 2105POPC   GL237188  16.466  15.309  -5.581
 2105POPC   C1A37189  16.360  15.337  -5.387
 2105POPC   D2A37190  16.287  15.272  -5.211
 2105POPC   C3A37191  16.215  15.208  -5.036
 2105POPC   C4A37192  16.143  15.144  -4.861
 2105POPC   C1B37193  16.533  15.383  -5.298
 2105POPC   C2B37194  16.461  15.319  -5.123
 2105POPC   C3B37195  16.388  15.255  -4.948
 2105POPC   C4B37196  16.316  15.191  -4.773
 2106POPC   NC337197   6.008  24.291  -0.305
 2106POPC   PO437198   6.050  24.133  -0.189
 2106POPC   GL137199   6.092  23.975  -0.073
 2106POPC   GL237200   6.120  24.037   0.000
 2106POPC   C1A37201   6.134  23.817   0.042
 2106POPC   D2A37202   6.175  23.660   0.158
 2106POPC   C3A37203   6.217  23.502   0.273
 2106POPC   C4A37204   6.259  23.344   0.389
 2106POPC   C1B37205   5.946  23.819   0.113
 2106POPC   C2B37206   5.988  23.662   0.228
 2106POPC   C3B37207   6.030  23.504   0.344
 2106POPC   C4B37208   6.072  23.346   0.459
 2107POPC   NC337209   4.584  24.108  19.873
 2107POPC   PO437210   4.643  23.956  19.758
 2107POPC   GL137211   4.702  23.804  19.643
 2107POPC   GL237212   4.775  23.861  19.605
 2107POPC   C1A37213   4.762  23.651  19.528
 2107POPC   D2A37214   4.821  23.499  19.413
 2107POPC   C3A37215   4.881  23.346  19.298
 2107POPC   C4A37216   4.940  23.194  19.183
 2107POPC   C1B37217   4.885  23.590  19.673
 2107POPC   C2B37218   4.945  23.438  19.558
 2107POPC   C3B37219   5.004  23.285  19.443
 2107POPC   C4B37220   5.063  23.133  19.328
 2108POPC   NC337221  -7.463   6.424  13.402
 2108POPC   PO437222  -7.271   6.464  13.365
 2108POPC   GL137223  -7.079   6.504  13.328
 2108POPC   GL237224  -7.055   6.474  13.420
 2108POPC   C1A37225  -6.887   6.545  13.290
 2108POPC   D2A37226  -6.694   6.585  13.253
 2108POPC   C3A37227  -6.502   6.626  13.215
 2108POPC   C4A37228  -6.310   6.666  13.178
 2108POPC   C1B37229  -6.861   6.359  13.222
 2108POPC   C2B37230  -6.669   6.399  13.184
 2108POPC   C3B37231  -6.476   6.439  13.147
 2108POPC   C4B37232  -6.284   6.480  13.110
 2109POPC   NC337233  11.277  11.960  27.843
 2109POPC   PO437234  11.262  11.936  27.645
 2109POPC   GL137235  11.247  11.912  27.447
 2109POPC   GL237236  11.290  11.822  27.455
 2109POPC   C1A37237  11.231  11.887  27.249
 2109POPC   D2A37238  11.216  11.863  27.051
 2109POPC   C3A37239  11.200  11.838  26.853
 2109POPC   C4A37240  11.185  11.814  26.655
 2109POPC   C1B37241  11.052  11.802  27.273
 2109POPC   C2B37242  11.037  11.778  27.075
 2109POPC   C3B37243  11.021  11.753  26.877
 2109POPC   C4B37244  11.006  11.729  26.679
 2110POPC   NC337245  20.690  19.701  20.629
 2110POPC   PO437246  20.569  19.596  20.510
 2110POPC   GL137247  20.448  19.491  20.391
 2110POPC   GL237248  20.527  19.453  20.343
 2110POPC   C1A37249  20.327  19.386  20.271
 2110POPC   D2A37250  20.205  19.281  20.152
 2110POPC   C3A37251  20.084  19.176  20.032
 2110POPC   C4A37252  19.963  19.071  19.913
 2110POPC   C1B37253  20.331  19.234  20.401
 2110POPC   C2B37254  20.210  19.129  20.281
 2110POPC   C3B37255  20.089  19.024  20.162
 2110POPC   C4B37256  19.968  18.919  20.042
 2111POPC   NC337257  18.105   7.762  25.850
 2111POPC   PO437258  18.018   7.793  25.673
 2111POPC   GL137259  17.931   7.824  25.496
 2111POPC   GL237260  17.969   7.916  25.493
 2111POPC   C1A37261  17.844   7.855  25.318
 2111POPC   D2A37262  17.757   7.886  25.141
 2111POPC   C3A37263  17.670   7.917  24.963
 2111POPC   C4A37264  17.583   7.948  24.786
 2111POPC   C1B37265  18.007   7.785  25.226
 2111POPC   C2B37266  17.920   7.816  25.049
 2111POPC   C3B37267  17.833   7.847  24.871
 2111POPC   C4B37268  17.746   7.878  24.694
 2112POPC   NC337269  26.423  16.548   7.319
 2112POPC   PO437270  26.241  16.470   7.346
 2112POPC   GL137271  26.059  16.392   7.373
 2112POPC   GL237272  26.096  16.300   7.357
 2112POPC   C1A37273  25.877  16.314   7.401
 2112POPC   D2A37274  25.695  16.235   7.428
 2112POPC   C3A37275  25.513  16.157   7.456
 2112POPC   C4A37276  25.331  16.079   7.483
 2112POPC   C1B37277  25.915  16.293   7.596
 2112POPC   C2B37278  25.733  16.215   7.623
 2112POPC   C3B37279  25.551  16.137   7.651
 2112POPC   C4B37280  25.369  16.058   7.678
 2113POPC   NC337281  -2.391  22.026  15.514
 2113POPC   PO437282  -2.255  21.893  15.453
 2113POPC   GL137283  -2.119  21.760  15.392
 2113POPC   GL237284  -2.077  21.830  15.333
 2113POPC   C1A37285  -1.982  21.627  15.331
 2113POPC   D2A37286  -1.846  21.495  15.269
 2113POPC   C3A37287  -1.709  21.362  15.208
 2113POPC   C4A37288  -1.573  21.229  15.147
 2113POPC   C1B37289  -1.862  21.682  15.481
 2113POPC   C2B37290  -1.725  21.549  15.419
 2113POPC   C3B37291  -1.589  21.416  15.358
 2113POPC   C4B37292  -1.453  21.284  15.297
 2114POPC   NC337293  -4.956  17.844  16.675
 2114POPC   PO437294  -4.794  17.754  16.599
 2114POPC   GL137295  -4.632  17.664  16.523
 2114POPC   GL237296  -4.587  17.670  16.612
 2114POPC   C1A37297  -4.471  17.574  16.447
 2114POPC   D2A37298  -4.309  17.484  16.370
 2114POPC   C3A37299  -4.148  17.394  16.294
 2114POPC   C4A37300  -3.986  17.304  16.218
 2114POPC   C1B37301  -4.546  17.396  16.497
 2114POPC   C2B37302  -4.385  17.306  16.420
 2114POPC   C3B37303  -4.223  17.216  16.344
 2114POPC   C4B37304  -4.062  17.126  16.268
 2115POPC   NC337305  -3.968  -0.470  14.964
 2115POPC   PO437306  -3.813  -0.357  14.907
 2115POPC   GL137307  -3.658  -0.244  14.850
 2115POPC   GL237308  -3.662  -0.195  14.937
 2115POPC   C1A37309  -3.503  -0.132  14.794
 2115POPC   D2A37310  -3.347  -0.019  14.737
 2115POPC   C3A37311  -3.192   0.093  14.681
 2115POPC   C4A37312  -3.037   0.206  14.624
 2115POPC   C1B37313  -3.377  -0.264  14.876
 2115POPC   C2B37314  -3.222  -0.151  14.819
 2115POPC   C3B37315  -3.066  -0.039  14.763
 2115POPC   C4B37316  -2.911   0.074  14.706
 2116POPC   NC337317  25.815  13.044   2.058
 2116POPC   PO437318  25.639  13.011   2.148
 2116POPC   GL137319  25.463  12.978   2.238
 2116POPC   GL237320  25.431  12.929   2.157
 2116POPC   C1A37321  25.287  12.946   2.328
 2116POPC   D2A37322  25.112  12.913   2.417
 2116POPC   C3A37323  24.936  12.881   2.507
 2116POPC   C4A37324  24.760  12.848   2.597
 2116POPC   C1B37325  25.358  12.775   2.405
 2116POPC   C2B37326  25.183  12.743   2.494
 2116POPC   C3B37327  25.007  12.710   2.584
 2116POPC   C4B37328  24.831  12.678   2.674
 2117POPC   NC337329   7.988  -6.536  16.992
 2117POPC   PO437330   8.009  -6.353  16.914
 2117POPC   GL137331   8.030  -6.170  16.836
 2117POPC   GL237332   8.124  -6.166  16.870
 2117POPC   C1A37333   8.051  -5.987  16.757
 2117POPC   D2A37334   8.073  -5.805  16.679
 2117POPC   C3A37335   8.094  -5.622  16.600
 2117POPC   C4A37336   8.115  -5.439  16.522
 2117POPC   C1B37337   8.116  -6.068  16.586
 2117POPC   C2B37338   8.137  -5.886  16.508
 2117POPC   C3B37339   8.159  -5.703  16.429
 2117POPC   C4B37340   8.180  -5.520  16.351
 2118POPC   NC337341  10.379  27.518  14.187
 2118POPC   PO437342  10.370  27.323  14.143
 2118POPC   GL137343  10.361  27.128  14.099
 2118POPC   GL237344  10.439  27.138  14.038
 2118POPC   C1A37345  10.352  26.933  14.055
 2118POPC   D2A37346  10.343  26.738  14.012
 2118POPC   C3A37347  10.334  26.543  13.968
 2118POPC   C4A37348  10.325  26.348  13.924
 2118POPC   C1B37349  10.476  26.893  14.207
 2118POPC   C2B37350  10.467  26.698  14.164
 2118POPC   C3B37351  10.458  26.503  14.120
 2118POPC   C4B37352  10.449  26.308  14.076
 2119POPC   NC337353  -6.787  16.869   8.435
 2119POPC   PO437354  -6.603  16.794   8.453
 2119POPC   GL137355  -6.419  16.719   8.471
 2119POPC   GL237356  -6.380  16.810   8.459
 2119POPC   C1A37357  -6.234  16.643   8.489
 2119POPC   D2A37358  -6.050  16.568   8.506
 2119POPC   C3A37359  -5.865  16.492   8.524
 2119POPC   C4A37360  -5.681  16.417   8.542
 2119POPC   C1B37361  -6.242  16.671   8.687
 2119POPC   C2B37362  -6.058  16.595   8.704
 2119POPC   C3B37363  -5.873  16.520   8.722
 2119POPC   C4B37364  -5.689  16.445   8.740
 2120POPC   NC337365  -6.387   6.486  17.088
 2120POPC   PO437366  -6.205   6.520  17.011
 2120POPC   GL137367  -6.023   6.554  16.934
 2120POPC   GL237368  -5.985   6.482  16.992
 2120POPC   C1A37369  -5.842   6.589  16.858
 2120POPC   D2A37370  -5.660   6.623  16.781
 2120POPC   C3A37371  -5.479   6.658  16.705
 2120POPC   C4A37372  -5.297   6.692  16.628
 2120POPC   C1B37373  -5.877   6.455  16.714
 2120POPC   C2B37374  -5.696   6.489  16.637
 2120POPC   C3B37375  -5.514   6.524  16.560
 2120POPC   C4B37376  -5.333   6.558  16.484
 2121POPC   NC337377   0.344   1.610  22.715
 2121POPC   PO437378   0.453   1.698  22.572
 2121POPC   GL137379   0.562   1.786  22.429
 2121POPC   GL237380   0.645   1.767  22.481
 2121POPC   C1A37381   0.671   1.874  22.287
 2121POPC   D2A37382   0.781   1.962  22.144
 2121POPC   C3A37383   0.890   2.050  22.002
 2121POPC   C4A37384   0.999   2.138  21.859
 2121POPC   C1B37385   0.689   1.699  22.192
 2121POPC   C2B37386   0.798   1.787  22.050
 2121POPC   C3B37387   0.908   1.875  21.907
 2121POPC   C4B37388   1.017   1.963  21.764
 2122POPC   NC337389  21.266  -0.074  19.648
 2122POPC   PO437390  21.143   0.038  19.538
 2122POPC   GL137391  21.020   0.150  19.428
 2122POPC   GL237392  21.094   0.168  19.362
 2122POPC   C1A37393  20.896   0.262  19.317
 2122POPC   D2A37394  20.773   0.375  19.207
 2122POPC   C3A37395  20.649   0.487  19.096
 2122POPC   C4A37396  20.526   0.599  18.986
 2122POPC   C1B37397  20.842   0.101  19.213
 2122POPC   C2B37398  20.719   0.213  19.102
 2122POPC   C3B37399  20.595   0.325  18.992
 2122POPC   C4B37400  20.472   0.437  18.882
 2123POPC   NC337401   3.418   0.174  -3.754
 2123POPC   PO437402   3.498   0.282  -3.606
 2123POPC   GL137403   3.578   0.390  -3.458
 2123POPC   GL237404   3.653   0.325  -3.450
 2123POPC   C1A37405   3.658   0.499  -3.310
 2123POPC   D2A37406   3.737   0.607  -3.163
 2123POPC   C3A37407   3.817   0.716  -3.015
 2123POPC   C4A37408   3.897   0.824  -2.867
 2123POPC   C1B37409   3.764   0.603  -3.444
 2123POPC   C2B37410   3.843   0.711  -3.296
 2123POPC   C3B37411   3.923   0.820  -3.149
 2123POPC   C4B37412   4.003   0.928  -3.001
 2124POPC   NC337413  16.284  -3.450  20.151
 2124POPC   PO437414  16.215  -3.303  20.034
 2124POPC   GL137415  16.146  -3.156  19.917
 2124POPC   GL237416  16.228  -3.103  19.935
 2124POPC   C1A37417  16.077  -3.009  19.800
 2124POPC   D2A37418  16.008  -2.863  19.683
 2124POPC   C3A37419  15.939  -2.716  19.566
 2124POPC   C4A37420  15.870  -2.569  19.449
 2124POPC   C1B37421  16.167  -3.093  19.642
 2124POPC   C2B37422  16.098  -2.946  19.525
 2124POPC   C3B37423  16.029  -2.800  19.408
 2124POPC   C4B37424  15.960  -2.653  19.291
 2125POPC   NC337425  27.668   8.204  12.004
 2125POPC   PO437426  27.469   8.220  11.986
 2125POPC   GL137427  27.270   8.236  11.968
 2125POPC   GL237428  27.282   8.285  11.882
 2125POPC   C1A37429  27.072   8.252  11.950
 2125POPC   D2A37430  26.873   8.269  11.932
 2125POPC   C3A37431  26.675   8.285  11.914
 2125POPC   C4A37432  26.476   8.301  11.896
 2125POPC   C1B37433  27.067   8.079  11.850
 2125POPC   C2B37434  26.868   8.095  11.832
 2125POPC   C3B37435  26.670   8.111  11.814
 2125POPC   C4B37436  26.471   8.128  11.796
 2126POPC   NC337437   0.627  25.002  13.809
 2126POPC   PO437438   0.725  24.835  13.759
 2126POPC   GL137439   0.823  24.668  13.709
 2126POPC   GL237440   0.905  24.722  13.690
 2126POPC   C1A37441   0.921  24.501  13.659
 2126POPC   D2A37442   1.018  24.334  13.609
 2126POPC   C3A37443   1.116  24.167  13.559
 2126POPC   C4A37444   1.214  24.000  13.509
 2126POPC   C1B37445   0.979  24.478  13.849
 2126POPC   C2B37446   1.077  24.311  13.799
 2126POPC   C3B37447   1.175  24.144  13.749
 2126POPC   C4B37448   1.273  23.977  13.699
 2127POPC   NC337449   6.095  27.099   5.402
 2127POPC   PO437450   6.133  26.909   5.452
 2127POPC   GL137451   6.171  26.719   5.502
 2127POPC   GL237452   6.148  26.740   5.597
 2127POPC   C1A37453   6.209  26.529   5.552
 2127POPC   D2A37454   6.246  26.339   5.601
 2127POPC   C3A37455   6.284  26.149   5.651
 2127POPC   C4A37456   6.322  25.959   5.701
 2127POPC   C1B37457   6.017  26.482   5.517
 2127POPC   C2B37458   6.055  26.292   5.566
 2127POPC   C3B37459   6.093  26.102   5.616
 2127POPC   C4B37460   6.131  25.912   5.666
 2128POPC   NC337461  19.617  25.049   8.640
 2128POPC   PO437462  19.512  24.879   8.651
 2128POPC   GL137463  19.407  24.709   8.662
 2128POPC   GL237464  19.478  24.662   8.610
 2128POPC   C1A37465  19.303  24.539   8.674
 2128POPC   D2A37466  19.198  24.369   8.685
 2128POPC   C3A37467  19.094  24.199   8.697
 2128POPC   C4A37468  18.989  24.029   8.708
 2128POPC   C1B37469  19.398  24.492   8.844
 2128POPC   C2B37470  19.293  24.322   8.855
 2128POPC   C3B37471  19.188  24.152   8.866
 2128POPC   C4B37472  19.084  23.982   8.878
 2129POPC   NC337473   4.357  -1.577  22.702
 2129POPC   PO437474   4.417  -1.446  22.564
 2129POPC   GL137475   4.477  -1.315  22.426
 2129POPC   GL237476   4.564  -1.363  22.418
 2129POPC   C1A37477   4.538  -1.183  22.288
 2129POPC   D2A37478   4.598  -1.052  22.149
 2129POPC   C3A37479   4.659  -0.920  22.011
 2129POPC   C4A37480   4.719  -0.789  21.873
 2129POPC   C1B37481   4.460  -1.298  22.144
 2129POPC   C2B37482   4.520  -1.167  22.006
 2129POPC   C3B37483   4.581  -1.036  21.868
 2129POPC   C4B37484   4.641  -0.904  21.729
 2130POPC   NC337485  22.538  16.291  -1.325
 2130POPC   PO437486  22.398  16.222  -1.200
 2130POPC   GL137487  22.258  16.153  -1.075
 2130POPC   GL237488  22.266  16.062  -1.116
 2130POPC   C1A37489  22.118  16.084  -0.950
 2130POPC   D2A37490  21.978  16.016  -0.824
 2130POPC   C3A37491  21.838  15.947  -0.699
 2130POPC   C4A37492  21.698  15.878  -0.574
 2130POPC   C1B37493  22.260  16.037  -0.817
 2130POPC   C2B37494  22.120  15.969  -0.692
 2130POPC   C3B37495  21.980  15.900  -0.566
 2130POPC   C4B37496  21.840  15.831  -0.441
 2131POPC   NC337497  -2.037  17.617  21.135
 2131POPC   PO437498  -1.908  17.533  21.007
 2131POPC   GL137499  -1.779  17.449  20.879
 2131POPC   GL237500  -1.741  17.539  20.859
 2131POPC   C1A37501  -1.650  17.365  20.752
 2131POPC   D2A37502  -1.522  17.280  20.624
 2131POPC   C3A37503  -1.393  17.196  20.497
 2131POPC   C4A37504  -1.264  17.112  20.369
 2131POPC   C1B37505  -1.519  17.341  20.900
 2131POPC   C2B37506  -1.390  17.257  20.773
 2131POPC   C3B37507  -1.261  17.173  20.645
 2131POPC   C4B37508  -1.132  17.089  20.518
 2132POPC   NC337509  25.708  17.945   6.872
 2132POPC   PO437510  25.532  17.856   6.905
 2132POPC   GL137511  25.356  17.767   6.938
 2132POPC   GL237512  25.359  17.727   6.847
 2132POPC   C1A37513  25.180  17.678   6.972
 2132POPC   D2A37514  25.004  17.589   7.005
 2132POPC   C3A37515  24.828  17.500   7.039
 2132POPC   C4A37516  24.652  17.411   7.072
 2132POPC   C1B37517  25.275  17.518   7.045
 2132POPC   C2B37518  25.099  17.429   7.078
 2132POPC   C3B37519  24.923  17.340   7.111
 2132POPC   C4B37520  24.747  17.251   7.145
 2133POPC   NC337521   1.210  25.798  10.233
 2133POPC   PO437522   1.309  25.624  10.235
 2133POPC   GL137523   1.408  25.450  10.237
 2133POPC   GL237524   1.490  25.497  10.204
 2133POPC   C1A37525   1.507  25.276  10.239
 2133POPC   D2A37526   1.605  25.103  10.241
 2133POPC   C3A37527   1.704  24.929  10.243
 2133POPC   C4A37528   1.803  24.755  10.245
 2133POPC   C1B37529   1.562  25.310  10.428
 2133POPC   C2B37530   1.661  25.137  10.430
 2133POPC   C3B37531   1.760  24.963  10.432
 2133POPC   C4B37532   1.859  24.789  10.434
 2134POPC   NC337533   9.694  24.083  21.226
 2134POPC   PO437534   9.694  23.929  21.099
 2134POPC   GL137535   9.694  23.775  20.972
 2134POPC   GL237536   9.710  23.712  21.048
 2134POPC   C1A37537   9.694  23.621  20.845
 2134POPC   D2A37538   9.693  23.466  20.717
 2134POPC   C3A37539   9.693  23.312  20.590
 2134POPC   C4A37540   9.693  23.158  20.463
 2134POPC   C1B37541   9.496  23.600  20.870
 2134POPC   C2B37542   9.496  23.446  20.743
 2134POPC   C3B37543   9.496  23.291  20.616
 2134POPC   C4B37544   9.496  23.137  20.488
 2135POPC   NC337545  14.640  -2.793  -1.848
 2135POPC   PO437546  14.586  -2.651  -1.718
 2135POPC   GL137547  14.532  -2.509  -1.588
 2135POPC   GL237548  14.628  -2.490  -1.569
 2135POPC   C1A37549  14.478  -2.367  -1.458
 2135POPC   D2A37550  14.424  -2.225  -1.327
 2135POPC   C3A37551  14.370  -2.083  -1.197
 2135POPC   C4A37552  14.316  -1.941  -1.067
 2135POPC   C1B37553  14.480  -2.231  -1.605
 2135POPC   C2B37554  14.426  -2.089  -1.474
 2135POPC   C3B37555  14.372  -1.947  -1.344
 2135POPC   C4B37556  14.318  -1.805  -1.214
 2136POPC   NC337557   2.577  10.402  -6.586
 2136POPC   PO437558   2.660  10.396  -6.404
 2136POPC   GL137559   2.743  10.390  -6.222
 2136POPC   GL237560   2.710  10.296  -6.210
 2136POPC   C1A37561   2.826  10.384  -6.040
 2136POPC   D2A37562   2.908  10.378  -5.858
 2136POPC   C3A37563   2.991  10.372  -5.676
 2136POPC   C4A37564   3.074  10.366  -5.494
 2136POPC   C1B37565   2.995  10.314  -6.119
 2136POPC   C2B37566   3.078  10.308  -5.937
 2136POPC   C3B37567   3.161  10.302  -5.755
 2136POPC   C4B37568   3.244  10.296  -5.573
 2137POPC   NC337569  11.497  18.265  25.875
 2137POPC   PO437570  11.473  18.178  25.696
 2137POPC   GL137571  11.449  18.091  25.517
 2137POPC   GL237572  11.548  18.097  25.501
 2137POPC   C1A37573  11.426  18.005  25.338
 2137POPC   D2A37574  11.402  17.918  25.160
 2137POPC   C3A37575  11.379  17.832  24.981
 2137POPC   C4A37576  11.355  17.745  24.802
 2137POPC   C1B37577  11.450  17.825  25.422
 2137POPC   C2B37578  11.427  17.738  25.243
 2137POPC   C3B37579  11.403  17.652  25.065
 2137POPC   C4B37580  11.379  17.565  24.886
 2138POPC   NC337581  14.854  14.981  -6.675
 2138POPC   PO437582  14.802  14.924  -6.490
 2138POPC   GL137583  14.750  14.867  -6.305
 2138POPC   GL237584  14.657  14.850  -6.337
 2138POPC   C1A37585  14.698  14.811  -6.121
 2138POPC   D2A37586  14.645  14.754  -5.936
 2138POPC   C3A37587  14.593  14.698  -5.752
 2138POPC   C4A37588  14.541  14.641  -5.567
 2138POPC   C1B37589  14.749  14.622  -6.164
 2138POPC   C2B37590  14.697  14.566  -5.980
 2138POPC   C3B37591  14.644  14.509  -5.795
 2138POPC   C4B37592  14.592  14.453  -5.610
 2139POPC   NC337593   7.294  26.407   2.788
 2139POPC   PO437594   7.324  26.226   2.867
 2139POPC   GL137595   7.354  26.045   2.946
 2139POPC   GL237596   7.439  26.036   2.893
 2139POPC   C1A37597   7.384  25.864   3.026
 2139POPC   D2A37598   7.415  25.683   3.105
 2139POPC   C3A37599   7.445  25.502   3.185
 2139POPC   C4A37600   7.475  25.321   3.264
 2139POPC   C1B37601   7.488  25.947   3.176
 2139POPC   C2B37602   7.518  25.766   3.255
 2139POPC   C3B37603   7.548  25.585   3.335
 2139POPC   C4B37604   7.578  25.404   3.414
 2140POPC   NC337605   0.128  17.385  23.136
 2140POPC   PO437606   0.237  17.304  22.989
 2140POPC   GL137607   0.346  17.223  22.842
 2140POPC   GL237608   0.429  17.234  22.898
 2140POPC   C1A37609   0.456  17.143  22.695
 2140POPC   D2A37610   0.565  17.062  22.549
 2140POPC   C3A37611   0.675  16.982  22.402
 2140POPC   C4A37612   0.784  16.901  22.255
 2140POPC   C1B37613   0.426  16.961  22.773
 2140POPC   C2B37614   0.535  16.880  22.626
 2140POPC   C3B37615   0.645  16.800  22.479
 2140POPC   C4B37616   0.754  16.719  22.333
 2141POPC   NC337617   8.625  22.286  -3.171
 2141POPC   PO437618   8.638  22.149  -3.026
 2141POPC   GL137619   8.651  22.012  -2.881
 2141POPC   GL237620   8.736  22.054  -2.849
 2141POPC   C1A37621   8.664  21.875  -2.736
 2141POPC   D2A37622   8.677  21.739  -2.590
 2141POPC   C3A37623   8.690  21.602  -2.445
 2141POPC   C4A37624   8.703  21.465  -2.300
 2141POPC   C1B37625   8.560  21.995  -2.614
 2141POPC   C2B37626   8.573  21.858  -2.469
 2141POPC   C3B37627   8.586  21.721  -2.323
 2141POPC   C4B37628   8.599  21.585  -2.178
 2142POPC   NC337629   9.815  -7.992  11.216
 2142POPC   PO437630   9.816  -7.792  11.202
 2142POPC   GL137631   9.817  -7.592  11.188
 2142POPC   GL237632   9.860  -7.599  11.098
 2142POPC   C1A37633   9.818  -7.393  11.175
 2142POPC   D2A37634   9.820  -7.193  11.161
 2142POPC   C3A37635   9.821  -6.994  11.148
 2142POPC   C4A37636   9.822  -6.794  11.134
 2142POPC   C1B37637   9.638  -7.398  11.089
 2142POPC   C2B37638   9.639  -7.198  11.075
 2142POPC   C3B37639   9.640  -6.998  11.062
 2142POPC   C4B37640   9.641  -6.799  11.048
 2143POPC   NC337641   2.929  -6.277  13.618
 2143POPC   PO437642   3.006  -6.096  13.579
 2143POPC   GL137643   3.083  -5.915  13.540
 2143POPC   GL237644   3.131  -5.953  13.461
 2143POPC   C1A37645   3.160  -5.735  13.502
 2143POPC   D2A37646   3.237  -5.554  13.463
 2143POPC   C3A37647   3.314  -5.374  13.425
 2143POPC   C4A37648   3.391  -5.193  13.386
 2143POPC   C1B37649   3.002  -5.692  13.387
 2143POPC   C2B37650   3.079  -5.512  13.348
 2143POPC   C3B37651   3.156  -5.331  13.310
 2143POPC   C4B37652   3.233  -5.150  13.271
 2144POPC   NC337653   8.974  -7.784   6.899
 2144POPC   PO437654   8.986  -7.587   6.929
 2144POPC   GL137655   8.998  -7.390   6.959
 2144POPC   GL237656   9.097  -7.393   6.941
 2144POPC   C1A37657   9.011  -7.192   6.989
 2144POPC   D2A37658   9.023  -6.995   7.019
 2144POPC   C3A37659   9.036  -6.797   7.049
 2144POPC   C4A37660   9.048  -6.600   7.079
 2144POPC   C1B37661   8.977  -7.161   6.794
 2144POPC   C2B37662   8.989  -6.963   6.824
 2144POPC   C3B37663   9.002  -6.766   6.854
 2144POPC   C4B37664   9.014  -6.568   6.884
 2145POPC   NC337665  21.029  -1.789  17.847
 2145POPC   PO437666  20.905  -1.658  17.760
 2145POPC   GL137667  20.781  -1.527  17.673
 2145POPC   GL237668  20.859  -1.470  17.648
 2145POPC   C1A37669  20.657  -1.396  17.586
 2145POPC   D2A37670  20.534  -1.266  17.499
 2145POPC   C3A37671  20.410  -1.135  17.412
 2145POPC   C4A37672  20.286  -1.004  17.325
 2145POPC   C1B37673  20.674  -1.496  17.413
 2145POPC   C2B37674  20.550  -1.365  17.326
 2145POPC   C3B37675  20.426  -1.234  17.239
 2145POPC   C4B37676  20.303  -1.103  17.152
 2146POPC   NC337677  23.735  19.931   4.170
 2146POPC   PO437678  23.579  19.819   4.227
 2146POPC   GL137679  23.423  19.707   4.284
 2146POPC   GL237680  23.469  19.626   4.249
 2146POPC   C1A37681  23.267  19.595   4.341
 2146POPC   D2A37682  23.112  19.484   4.399
 2146POPC   C3A37683  22.956  19.372   4.456
 2146POPC   C4A37684  22.800  19.260   4.513
 2146POPC   C1B37685  23.354  19.566   4.519
 2146POPC   C2B37686  23.198  19.454   4.577
 2146POPC   C3B37687  23.042  19.342   4.634
 2146POPC   C4B37688  22.886  19.231   4.691
 2147POPC   NC337689  -6.725  15.456  14.638
 2147POPC   PO437690  -6.541  15.393  14.590
 2147POPC   GL137691  -6.357  15.330  14.542
 2147POPC   GL237692  -6.320  15.376  14.623
 2147POPC   C1A37693  -6.173  15.268  14.494
 2147POPC   D2A37694  -5.990  15.205  14.447
 2147POPC   C3A37695  -5.806  15.143  14.399
 2147POPC   C4A37696  -5.622  15.080  14.351
 2147POPC   C1B37697  -6.202  15.102  14.602
 2147POPC   C2B37698  -6.018  15.039  14.554
 2147POPC   C3B37699  -5.835  14.976  14.506
 2147POPC   C4B37700  -5.651  14.914  14.458
 2148POPC   NC337701  -1.280  -1.121  18.834
 2148POPC   PO437702  -1.156  -0.999  18.735
 2148POPC   GL137703  -1.032  -0.877  18.636
 2148POPC   GL237704  -0.960  -0.897  18.702
 2148POPC   C1A37705  -0.909  -0.755  18.536
 2148POPC   D2A37706  -0.785  -0.634  18.437
 2148POPC   C3A37707  -0.662  -0.512  18.337
 2148POPC   C4A37708  -0.538  -0.390  18.238
 2148POPC   C1B37709  -0.848  -0.909  18.424
 2148POPC   C2B37710  -0.724  -0.787  18.324
 2148POPC   C3B37711  -0.601  -0.666  18.225
 2148POPC   C4B37712  -0.477  -0.544  18.125
 2149POPC   NC337713   7.998  20.947  -4.280
 2149POPC   PO437714   8.015  20.821  -4.126
 2149POPC   GL137715   8.032  20.695  -3.972
 2149POPC   GL237716   8.126  20.724  -3.958
 2149POPC   C1A37717   8.049  20.568  -3.818
 2149POPC   D2A37718   8.065  20.442  -3.664
 2149POPC   C3A37719   8.082  20.315  -3.510
 2149POPC   C4A37720   8.099  20.189  -3.356
 2149POPC   C1B37721   7.986  20.712  -3.693
 2149POPC   C2B37722   8.003  20.585  -3.539
 2149POPC   C3B37723   8.020  20.459  -3.385
 2149POPC   C4B37724   8.037  20.333  -3.231
 2150POPC   NC337725  -7.513   6.806   6.018
 2150POPC   PO437726  -7.321   6.839   6.063
 2150POPC   GL137727  -7.129   6.872   6.108
 2150POPC   GL237728  -7.157   6.913   6.195
 2150POPC   C1A37729  -6.937   6.906   6.153
 2150POPC   D2A37730  -6.745   6.939   6.199
 2150POPC   C3A37731  -6.553   6.973   6.244
 2150POPC   C4A37732  -6.361   7.006   6.289
 2150POPC   C1B37733  -6.926   6.726   6.240
 2150POPC   C2B37734  -6.734   6.759   6.285
 2150POPC   C3B37735  -6.542   6.793   6.331
 2150POPC   C4B37736  -6.350   6.826   6.376
 2151POPC   NC337737   0.678   0.343  -2.159
 2151POPC   PO437738   0.779   0.451  -2.024
 2151POPC   GL137739   0.880   0.559  -1.889
 2151POPC   GL237740   0.813   0.534  -1.819
 2151POPC   C1A37741   0.981   0.667  -1.754
 2151POPC   D2A37742   1.082   0.774  -1.620
 2151POPC   C3A37743   1.183   0.882  -1.485
 2151POPC   C4A37744   1.284   0.990  -1.350
 2151POPC   C1B37745   1.090   0.506  -1.707
 2151POPC   C2B37746   1.191   0.613  -1.572
 2151POPC   C3B37747   1.292   0.721  -1.438
 2151POPC   C4B37748   1.393   0.829  -1.303
 2152POPC   NC337749  -5.120  11.938  -0.027
 2152POPC   PO437750  -4.954  11.922   0.084
 2152POPC   GL137751  -4.788  11.906   0.195
 2152POPC   GL237752  -4.812  11.812   0.217
 2152POPC   C1A37753  -4.622  11.890   0.305
 2152POPC   D2A37754  -4.457  11.874   0.416
 2152POPC   C3A37755  -4.291  11.858   0.526
 2152POPC   C4A37756  -4.125  11.842   0.637
 2152POPC   C1B37757  -4.522  11.826   0.145
 2152POPC   C2B37758  -4.356  11.810   0.255
 2152POPC   C3B37759  -4.190  11.794   0.366
 2152POPC   C4B37760  -4.024  11.778   0.476
 2153POPC   NC337761  18.319  -1.389  21.078
 2153POPC   PO437762  18.223  -1.263  20.956
 2153POPC   GL137763  18.127  -1.137  20.834
 2153POPC   GL237764  18.150  -1.061  20.895
 2153POPC   C1A37765  18.032  -1.010  20.712
 2153POPC   D2A37766  17.936  -0.884  20.590
 2153POPC   C3A37767  17.841  -0.757  20.468
 2153POPC   C4A37768  17.745  -0.631  20.346
 2153POPC   C1B37769  18.202  -0.979  20.611
 2153POPC   C2B37770  18.106  -0.853  20.489
 2153POPC   C3B37771  18.011  -0.726  20.367
 2153POPC   C4B37772  17.915  -0.600  20.245
 2154POPC   NC337773  -5.275   3.094  17.030
 2154POPC   PO437774  -5.107   3.174  16.957
 2154POPC   GL137775  -4.939   3.254  16.884
 2154POPC   GL237776  -4.904   3.163  16.863
 2154POPC   C1A37777  -4.771   3.334  16.810
 2154POPC   D2A37778  -4.603   3.414  16.737
 2154POPC   C3A37779  -4.435   3.494  16.663
 2154POPC   C4A37780  -4.267   3.574  16.590
 2154POPC   C1B37781  -4.854   3.343  16.629
 2154POPC   C2B37782  -4.686   3.423  16.555
 2154POPC   C3B37783  -4.518   3.503  16.482
 2154POPC   C4B37784  -4.350   3.583  16.408
 2155POPC   NC337785  13.591  -5.449  18.568
 2155POPC   PO437786  13.550  -5.280  18.470
 2155POPC   GL137787  13.509  -5.111  18.372
 2155POPC   GL237788  13.597  -5.073  18.400
 2155POPC   C1A37789  13.468  -4.942  18.274
 2155POPC   D2A37790  13.426  -4.772  18.175
 2155POPC   C3A37791  13.385  -4.603  18.077
 2155POPC   C4A37792  13.344  -4.434  17.979
 2155POPC   C1B37793  13.552  -5.017  18.109
 2155POPC   C2B37794  13.511  -4.847  18.010
 2155POPC   C3B37795  13.470  -4.678  17.912
 2155POPC   C4B37796  13.429  -4.509  17.814
 2156POPC   NC337797   0.141  16.989  -3.574
 2156POPC   PO437798   0.247  16.914  -3.422
 2156POPC   GL137799   0.353  16.839  -3.270
 2156POPC   GL237800   0.316  16.909  -3.209
 2156POPC   C1A37801   0.460  16.764  -3.118
 2156POPC   D2A37802   0.566  16.689  -2.966
 2156POPC   C3A37803   0.673  16.614  -2.814
 2156POPC   C4A37804   0.779  16.539  -2.662
 2156POPC   C1B37805   0.308  16.643  -3.072
 2156POPC   C2B37806   0.414  16.568  -2.920
 2156POPC   C3B37807   0.521  16.493  -2.768
 2156POPC   C4B37808   0.627  16.418  -2.616
 2157POPC   NC337809   7.288   2.284  -6.217
 2157POPC   PO437810   7.311   2.366  -6.036
 2157POPC   GL137811   7.334   2.448  -5.855
 2157POPC   GL237812   7.358   2.359  -5.818
 2157POPC   C1A37813   7.357   2.530  -5.674
 2157POPC   D2A37814   7.381   2.612  -5.493
 2157POPC   C3A37815   7.404   2.694  -5.312
 2157POPC   C4A37816   7.427   2.776  -5.131
 2157POPC   C1B37817   7.550   2.565  -5.714
 2157POPC   C2B37818   7.573   2.647  -5.533
 2157POPC   C3B37819   7.597   2.729  -5.352
 2157POPC   C4B37820   7.620   2.811  -5.171
 2158POPC   NC337821  16.631  -5.989  14.872
 2158POPC   PO437822  16.557  -5.812  14.817
 2158POPC   GL137823  16.483  -5.635  14.762
 2158POPC   GL237824  16.529  -5.591  14.839
 2158POPC   C1A37825  16.409  -5.457  14.707
 2158POPC   D2A37826  16.336  -5.280  14.651
 2158POPC   C3A37827  16.262  -5.102  14.596
 2158POPC   C4A37828  16.188  -4.925  14.541
 2158POPC   C1B37829  16.571  -5.426  14.593
 2158POPC   C2B37830  16.497  -5.248  14.537
 2158POPC   C3B37831  16.423  -5.071  14.482
 2158POPC   C4B37832  16.349  -4.893  14.427
 2159POPC   NC337833   5.189  -4.064  20.285
 2159POPC   PO437834   5.242  -3.910  20.169
 2159POPC   GL137835   5.295  -3.756  20.053
 2159POPC   GL237836   5.360  -3.815  20.004
 2159POPC   C1A37837   5.349  -3.602  19.937
 2159POPC   D2A37838   5.402  -3.448  19.822
 2159POPC   C3A37839   5.456  -3.294  19.706
 2159POPC   C4A37840   5.509  -3.140  19.590
 2159POPC   C1B37841   5.205  -3.650  19.807
 2159POPC   C2B37842   5.259  -3.496  19.691
 2159POPC   C3B37843   5.312  -3.342  19.575
 2159POPC   C4B37844   5.365  -3.188  19.459
 2160POPC   NC337845  -2.600   7.186  -2.811
 2160POPC   PO437846  -2.460   7.212  -2.671
 2160POPC   GL137847  -2.320   7.238  -2.531
 2160POPC   GL237848  -2.336   7.145  -2.498
 2160POPC   C1A37849  -2.179   7.264  -2.391
 2160POPC   D2A37850  -2.039   7.289  -2.251
 2160POPC   C3A37851  -1.898   7.315  -2.111
 2160POPC   C4A37852  -1.758   7.341  -1.971
 2160POPC   C1B37853  -2.040   7.194  -2.517
 2160POPC   C2B37854  -1.900   7.220  -2.377
 2160POPC   C3B37855  -1.760   7.246  -2.237
 2160POPC   C4B37856  -1.619   7.272  -2.097
 2161POPC   NC337857   3.316  -3.139  -0.566
 2161POPC   PO437858   3.392  -2.998  -0.446
 2161POPC   GL137859   3.468  -2.857  -0.326
 2161POPC   GL237860   3.435  -2.907  -0.246
 2161POPC   C1A37861   3.544  -2.716  -0.206
 2161POPC   D2A37862   3.621  -2.576  -0.087
 2161POPC   C3A37863   3.697  -2.435   0.033
 2161POPC   C4A37864   3.773  -2.294   0.153
 2161POPC   C1B37865   3.717  -2.818  -0.197
 2161POPC   C2B37866   3.793  -2.677  -0.077
 2161POPC   C3B37867   3.869  -2.536   0.042
 2161POPC   C4B37868   3.945  -2.395   0.162
 2162POPC   NC337869  -0.868   7.900  -4.413
 2162POPC   PO437870  -0.749   7.918  -4.254
 2162POPC   GL137871  -0.630   7.936  -4.095
 2162POPC   GL237872  -0.709   7.955  -4.037
 2162POPC   C1A37873  -0.510   7.954  -3.935
 2162POPC   D2A37874  -0.391   7.973  -3.776
 2162POPC   C3A37875  -0.271   7.991  -3.616
 2162POPC   C4A37876  -0.152   8.009  -3.457
 2162POPC   C1B37877  -0.530   7.759  -3.898
 2162POPC   C2B37878  -0.411   7.777  -3.739
 2162POPC   C3B37879  -0.292   7.795  -3.579
 2162POPC   C4B37880  -0.172   7.814  -3.420
 2163POPC   NC337881  -7.453   4.939   9.997
 2163POPC   PO437882  -7.262   4.997   9.997
 2163POPC   GL137883  -7.071   5.055   9.997
 2163POPC   GL237884  -7.043   4.962  10.023
 2163POPC   C1A37885  -6.879   5.113   9.998
 2163POPC   D2A37886  -6.688   5.170   9.998
 2163POPC   C3A37887  -6.496   5.228   9.999
 2163POPC   C4A37888  -6.305   5.286   9.999
 2163POPC   C1B37889  -6.864   5.063   9.805
 2163POPC   C2B37890  -6.672   5.121   9.805
 2163POPC   C3B37891  -6.481   5.179   9.805
 2163POPC   C4B37892  -6.290   5.236   9.806
 2164POPC   NC337893  10.829  -4.813  -0.369
 2164POPC   PO437894  10.819  -4.649  -0.256
 2164POPC   GL137895  10.809  -4.485  -0.143
 2164POPC   GL237896  10.838  -4.429  -0.221
 2164POPC   C1A37897  10.799  -4.320  -0.029
 2164POPC   D2A37898  10.789  -4.156   0.084
 2164POPC   C3A37899  10.779  -3.991   0.198
 2164POPC   C4A37900  10.769  -3.827   0.311
 2164POPC   C1B37901  10.608  -4.295  -0.083
 2164POPC   C2B37902  10.598  -4.130   0.031
 2164POPC   C3B37903  10.588  -3.966   0.144
 2164POPC   C4B37904  10.578  -3.802   0.257
 2165POPC   NC337905   9.509  -3.275  -2.326
 2165POPC   PO437906   9.514  -3.128  -2.191
 2165POPC   GL137907   9.519  -2.981  -2.056
 2165POPC   GL237908   9.609  -2.952  -2.091
 2165POPC   C1A37909   9.525  -2.834  -1.920
 2165POPC   D2A37910   9.530  -2.686  -1.785
 2165POPC   C3A37911   9.536  -2.539  -1.649
 2165POPC   C4A37912   9.541  -2.392  -1.514
 2165POPC   C1B37913   9.434  -2.711  -2.050
 2165POPC   C2B37914   9.439  -2.564  -1.914
 2165POPC   C3B37915   9.445  -2.417  -1.779
 2165POPC   C4B37916   9.450  -2.270  -1.644
 2166POPC   NC337917   7.528  -7.890  10.060
 2166POPC   PO437918   7.552  -7.691  10.060
 2166POPC   GL137919   7.576  -7.492  10.060
 2166POPC   GL237920   7.675  -7.504  10.054
 2166POPC   C1A37921   7.600  -7.294  10.059
 2166POPC   D2A37922   7.623  -7.095  10.059
 2166POPC   C3A37923   7.647  -6.897  10.058
 2166POPC   C4A37924   7.671  -6.698  10.058
 2166POPC   C1B37925   7.589  -7.293   9.859
 2166POPC   C2B37926   7.613  -7.094   9.859
 2166POPC   C3B37927   7.636  -6.896   9.859
 2166POPC   C4B37928   7.660  -6.697   9.858
 2167POPC   NC337929  -8.124  11.017   8.529
 2167POPC   PO437930  -7.926  11.003   8.551
 2167POPC   GL137931  -7.728  10.989   8.573
 2167POPC   GL237932  -7.723  11.087   8.593
 2167POPC   C1A37933  -7.530  10.975   8.596
 2167POPC   D2A37934  -7.331  10.962   8.618
 2167POPC   C3A37935  -7.133  10.948   8.641
 2167POPC   C4A37936  -6.935  10.934   8.663
 2167POPC   C1B37937  -7.554  10.937   8.790
 2167POPC   C2B37938  -7.356  10.923   8.813
 2167POPC   C3B37939  -7.158  10.909   8.835
 2167POPC   C4B37940  -6.960  10.895   8.858
 2168POPC   NC337941   5.459  21.083  -3.654
 2168POPC   PO437942   5.504  20.957  -3.505
 2168POPC   GL137943   5.549  20.831  -3.356
 2168POPC   GL237944   5.631  20.803  -3.405
 2168POPC   C1A37945   5.593  20.705  -3.207
 2168POPC   D2A37946   5.638  20.580  -3.058
 2168POPC   C3A37947   5.682  20.454  -2.909
 2168POPC   C4A37948   5.727  20.328  -2.760
 2168POPC   C1B37949   5.697  20.850  -3.116
 2168POPC   C2B37950   5.742  20.724  -2.967
 2168POPC   C3B37951   5.786  20.598  -2.818
 2168POPC   C4B37952   5.831  20.473  -2.669
 2169POPC   NC337953  16.376  26.330  14.033
 2169POPC   PO437954  16.307  26.148  13.989
 2169POPC   GL137955  16.238  25.966  13.945
 2169POPC   GL237956  16.331  25.930  13.943
 2169POPC   C1A37957  16.169  25.783  13.901
 2169POPC   D2A37958  16.099  25.601  13.856
 2169POPC   C3A37959  16.030  25.418  13.812
 2169POPC   C4A37960  15.961  25.236  13.768
 2169POPC   C1B37961  16.156  25.741  14.096
 2169POPC   C2B37962  16.086  25.558  14.051
 2169POPC   C3B37963  16.017  25.376  14.007
 2169POPC   C4B37964  15.948  25.194  13.963
 2170POPC   NC337965  -6.342   7.304  17.472
 2170POPC   PO437966  -6.162   7.327  17.389
 2170POPC   GL137967  -5.982   7.350  17.306
 2170POPC   GL237968  -5.941   7.360  17.397
 2170POPC   C1A37969  -5.801   7.374  17.223
 2170POPC   D2A37970  -5.621   7.397  17.140
 2170POPC   C3A37971  -5.440   7.421  17.057
 2170POPC   C4A37972  -5.260   7.444  16.974
 2170POPC   C1B37973  -5.772   7.176  17.231
 2170POPC   C2B37974  -5.591   7.200  17.148
 2170POPC   C3B37975  -5.411   7.223  17.065
 2170POPC   C4B37976  -5.231   7.246  16.982
 2171POPC   NC337977  21.759   6.168  -3.106
 2171POPC   PO437978  21.629   6.213  -2.961
 2171POPC   GL137979  21.499   6.258  -2.816
 2171POPC   GL237980  21.426   6.212  -2.867
 2171POPC   C1A37981  21.369   6.303  -2.671
 2171POPC   D2A37982  21.239   6.347  -2.525
 2171POPC   C3A37983  21.109   6.392  -2.380
 2171POPC   C4A37984  20.979   6.437  -2.235
 2171POPC   C1B37985  21.412   6.131  -2.578
 2171POPC   C2B37986  21.282   6.175  -2.433
 2171POPC   C3B37987  21.152   6.220  -2.288
 2171POPC   C4B37988  21.022   6.265  -2.143
 2172POPC   NC337989  25.829  13.331   2.197
 2172POPC   PO437990  25.654  13.296   2.286
 2172POPC   GL137991  25.479  13.261   2.375
 2172POPC   GL237992  25.444  13.219   2.291
 2172POPC   C1A37993  25.303  13.225   2.464
 2172POPC   D2A37994  25.128  13.190   2.554
 2172POPC   C3A37995  24.952  13.154   2.643
 2172POPC   C4A37996  24.777  13.119   2.732
 2172POPC   C1B37997  25.370  13.047   2.526
 2172POPC   C2B37998  25.195  13.012   2.615
 2172POPC   C3B37999  25.020  12.976   2.705
 2172POPC   C4B38000  24.844  12.941   2.794
 2173POPC   NC338001  25.399  12.746   1.193
 2173POPC   PO438002  25.228  12.716   1.292
 2173POPC   GL138003  25.057  12.686   1.391
 2173POPC   GL238004  25.081  12.590   1.404
 2173POPC   C1A38005  24.885  12.656   1.489
 2173POPC   D2A38006  24.714  12.626   1.588
 2173POPC   C3A38007  24.542  12.596   1.686
 2173POPC   C4A38008  24.371  12.566   1.785
 2173POPC   C1B38009  24.976  12.702   1.661
 2173POPC   C2B38010  24.805  12.672   1.760
 2173POPC   C3B38011  24.633  12.642   1.859
 2173POPC   C4B38012  24.462  12.612   1.957
 2174POPC   NC338013   6.081   5.942  -7.253
 2174POPC   PO438014   6.119   5.986  -7.061
 2174POPC   GL138015   6.157   6.030  -6.869
 2174POPC   GL238016   6.087   5.964  -6.841
 2174POPC   C1A38017   6.195   6.073  -6.678
 2174POPC   D2A38018   6.232   6.117  -6.486
 2174POPC   C3A38019   6.270   6.160  -6.295
 2174POPC   C4A38020   6.308   6.204  -6.103
 2174POPC   C1B38021   6.332   5.928  -6.672
 2174POPC   C2B38022   6.370   5.972  -6.480
 2174POPC   C3B38023   6.408   6.015  -6.289
 2174POPC   C4B38024   6.446   6.059  -6.097
 2175POPC   NC338025   3.060  13.805  -6.360
 2175POPC   PO438026   3.138  13.764  -6.181
 2175POPC   GL138027   3.216  13.723  -6.002
 2175POPC   GL238028   3.160  13.795  -5.961
 2175POPC   C1A38029   3.295  13.681  -5.823
 2175POPC   D2A38030   3.373  13.640  -5.643
 2175POPC   C3A38031   3.452  13.598  -5.464
 2175POPC   C4A38032   3.530  13.557  -5.285
 2175POPC   C1B38033   3.149  13.549  -5.789
 2175POPC   C2B38034   3.227  13.507  -5.610
 2175POPC   C3B38035   3.306  13.466  -5.431
 2175POPC   C4B38036   3.384  13.424  -5.252
 2176POPC   NC338037  18.169  -3.630   1.485
 2176POPC   PO438038  18.076  -3.477   1.574
 2176POPC   GL138039  17.983  -3.324   1.663
 2176POPC   GL238040  18.054  -3.322   1.733
 2176POPC   C1A38041  17.889  -3.172   1.753
 2176POPC   D2A38042  17.796  -3.019   1.842
 2176POPC   C3A38043  17.702  -2.867   1.932
 2176POPC   C4A38044  17.609  -2.714   2.021
 2176POPC   C1B38045  17.994  -3.043   1.642
 2176POPC   C2B38046  17.900  -2.890   1.731
 2176POPC   C3B38047  17.807  -2.738   1.820
 2176POPC   C4B38048  17.714  -2.585   1.910
 2177POPC   NC338049   9.101  -1.954  -3.614
 2177POPC   PO438050   9.110  -1.821  -3.465
 2177POPC   GL138051   9.119  -1.688  -3.316
 2177POPC   GL238052   9.172  -1.753  -3.261
 2177POPC   C1A38053   9.128  -1.555  -3.167
 2177POPC   D2A38054   9.137  -1.421  -3.018
 2177POPC   C3A38055   9.146  -1.288  -2.869
 2177POPC   C4A38056   9.155  -1.155  -2.720
 2177POPC   C1B38057   9.297  -1.481  -3.243
 2177POPC   C2B38058   9.306  -1.348  -3.094
 2177POPC   C3B38059   9.315  -1.214  -2.945
 2177POPC   C4B38060   9.324  -1.081  -2.796
 2178POPC   NC338061  -2.583  22.984  11.763
 2178POPC   PO438062  -2.444  22.841  11.746
 2178POPC   GL138063  -2.305  22.698  11.729
 2178POPC   GL238064  -2.244  22.751  11.788
 2178POPC   C1A38065  -2.167  22.555  11.712
 2178POPC   D2A38066  -2.028  22.411  11.696
 2178POPC   C3A38067  -1.890  22.268  11.679
 2178POPC   C4A38068  -1.751  22.125  11.662
 2178POPC   C1B38069  -2.242  22.463  11.874
 2178POPC   C2B38070  -2.103  22.320  11.857
 2178POPC   C3B38071  -1.964  22.177  11.840
 2178POPC   C4B38072  -1.826  22.034  11.823
 2179POPC   NC338073  25.532  11.370   1.111
 2179POPC   PO438074  25.359  11.355   1.211
 2179POPC   GL138075  25.186  11.340   1.311
 2179POPC   GL238076  25.161  11.432   1.281
 2179POPC   C1A38077  25.014  11.325   1.411
 2179POPC   D2A38078  24.841  11.310   1.511
 2179POPC   C3A38079  24.669  11.295   1.611
 2179POPC   C4A38080  24.496  11.280   1.711
 2179POPC   C1B38081  24.926  11.248   1.249
 2179POPC   C2B38082  24.754  11.233   1.349
 2179POPC   C3B38083  24.581  11.218   1.449
 2179POPC   C4B38084  24.409  11.203   1.549
 2180POPC   NC338085   6.771  -7.719  11.541
 2180POPC   PO438086   6.803  -7.522  11.524
 2180POPC   GL138087   6.835  -7.325  11.507
 2180POPC   GL238088   6.837  -7.317  11.607
 2180POPC   C1A38089   6.867  -7.128  11.490
 2180POPC   D2A38090   6.898  -6.932  11.474
 2180POPC   C3A38091   6.930  -6.735  11.457
 2180POPC   C4A38092   6.962  -6.538  11.440
 2180POPC   C1B38093   7.064  -7.160  11.489
 2180POPC   C2B38094   7.096  -6.964  11.472
 2180POPC   C3B38095   7.128  -6.767  11.455
 2180POPC   C4B38096   7.159  -6.570  11.439
 2181POPC   NC338097  12.854  26.212   2.744
 2181POPC   PO438098  12.817  26.031   2.821
 2181POPC   GL138099  12.780  25.850   2.898
 2181POPC   GL238100  12.856  25.812   2.845
 2181POPC   C1A38101  12.743  25.669   2.975
 2181POPC   D2A38102  12.707  25.489   3.052
 2181POPC   C3A38103  12.670  25.308   3.129
 2181POPC   C4A38104  12.633  25.127   3.206
 2181POPC   C1B38105  12.868  25.709   3.127
 2181POPC   C2B38106  12.831  25.528   3.204
 2181POPC   C3B38107  12.794  25.347   3.281
 2181POPC   C4B38108  12.758  25.166   3.358
 2182POPC   NC338109   0.001  -1.580   0.230
 2182POPC   PO438110   0.104  -1.453   0.345
 2182POPC   GL138111   0.207  -1.326   0.460
 2182POPC   GL238112   0.138  -1.334   0.531
 2182POPC   C1A38113   0.311  -1.199   0.575
 2182POPC   D2A38114   0.414  -1.073   0.690
 2182POPC   C3A38115   0.518  -0.946   0.805
 2182POPC   C4A38116   0.621  -0.819   0.920
 2182POPC   C1B38117   0.411  -1.353   0.655
 2182POPC   C2B38118   0.514  -1.226   0.770
 2182POPC   C3B38119   0.617  -1.100   0.885
 2182POPC   C4B38120   0.721  -0.973   1.000
 2183POPC   NC338121   2.591  12.754  26.201
 2183POPC   PO438122   2.666  12.724  26.018
 2183POPC   GL138123   2.741  12.694  25.835
 2183POPC   GL238124   2.792  12.780  25.842
 2183POPC   C1A38125   2.816  12.665  25.652
 2183POPC   D2A38126   2.891  12.635  25.469
 2183POPC   C3A38127   2.966  12.606  25.286
 2183POPC   C4A38128   3.041  12.576  25.103
 2183POPC   C1B38129   2.971  12.566  25.731
 2183POPC   C2B38130   3.046  12.536  25.548
 2183POPC   C3B38131   3.121  12.507  25.365
 2183POPC   C4B38132   3.196  12.477  25.182
 2184POPC   NC338133   1.737  -4.005  17.971
 2184POPC   PO438134   1.827  -3.851  17.879
 2184POPC   GL138135   1.917  -3.697  17.787
 2184POPC   GL238136   1.924  -3.650  17.875
 2184POPC   C1A38137   2.006  -3.544  17.696
 2184POPC   D2A38138   2.096  -3.390  17.604
 2184POPC   C3A38139   2.185  -3.237  17.513
 2184POPC   C4A38140   2.275  -3.083  17.421
 2184POPC   C1B38141   2.184  -3.630  17.726
 2184POPC   C2B38142   2.274  -3.476  17.635
 2184POPC   C3B38143   2.363  -3.322  17.543
 2184POPC   C4B38144   2.453  -3.169  17.452
 2185POPC   NC338145  -6.787   9.298  16.856
 2185POPC   PO438146  -6.603   9.305  16.777
 2185POPC   GL138147  -6.419   9.312  16.698
 2185POPC   GL238148  -6.398   9.391  16.756
 2185POPC   C1A38149  -6.236   9.320  16.619
 2185POPC   D2A38150  -6.052   9.327  16.540
 2185POPC   C3A38151  -5.869   9.335  16.461
 2185POPC   C4A38152  -5.685   9.342  16.382
 2185POPC   C1B38153  -6.170   9.196  16.762
 2185POPC   C2B38154  -5.986   9.204  16.683
 2185POPC   C3B38155  -5.802   9.211  16.604
 2185POPC   C4B38156  -5.619   9.218  16.525
 2186POPC   NC338157  -0.435  24.229   6.201
 2186POPC   PO438158  -0.322  24.069   6.241
 2186POPC   GL138159  -0.209  23.909   6.281
 2186POPC   GL238160  -0.126  23.965   6.269
 2186POPC   C1A38161  -0.095  23.749   6.321
 2186POPC   D2A38162   0.018  23.590   6.361
 2186POPC   C3A38163   0.132  23.430   6.401
 2186POPC   C4A38164   0.245  23.270   6.441
 2186POPC   C1B38165  -0.099  23.795   6.516
 2186POPC   C2B38166   0.014  23.636   6.556
 2186POPC   C3B38167   0.128  23.476   6.596
 2186POPC   C4B38168   0.241  23.316   6.636
 2187POPC   NC338169  -4.919  18.335   3.877
 2187POPC   PO438170  -4.752  18.249   3.946
 2187POPC   GL138171  -4.585  18.163   4.015
 2187POPC   GL238172  -4.615  18.180   4.109
 2187POPC   C1A38173  -4.419  18.076   4.084
 2187POPC   D2A38174  -4.252  17.990   4.153
 2187POPC   C3A38175  -4.086  17.903   4.222
 2187POPC   C4A38176  -3.919  17.817   4.291
 2187POPC   C1B38177  -4.512  17.899   4.088
 2187POPC   C2B38178  -4.346  17.813   4.157
 2187POPC   C3B38179  -4.179  17.727   4.226
 2187POPC   C4B38180  -4.013  17.640   4.295
 2188POPC   NC338181   7.709  25.047   0.274
 2188POPC   PO438182   7.734  24.883   0.386
 2188POPC   GL138183   7.759  24.719   0.498
 2188POPC   GL238184   7.828  24.767   0.552
 2188POPC   C1A38185   7.784  24.555   0.609
 2188POPC   D2A38186   7.810  24.391   0.721
 2188POPC   C3A38187   7.835  24.227   0.832
 2188POPC   C4A38188   7.860  24.063   0.944
 2188POPC   C1B38189   7.642  24.619   0.735
 2188POPC   C2B38190   7.668  24.455   0.847
 2188POPC   C3B38191   7.693  24.291   0.958
 2188POPC   C4B38192   7.718  24.127   1.070
 2189POPC   NC338193  20.272  -1.091   0.199
 2189POPC   PO438194  20.155  -0.970   0.307
 2189POPC   GL138195  20.038  -0.849   0.415
 2189POPC   GL238196  19.964  -0.862   0.349
 2189POPC   C1A38197  19.921  -0.729   0.523
 2189POPC   D2A38198  19.803  -0.608   0.632
 2189POPC   C3A38199  19.686  -0.488   0.740
 2189POPC   C4A38200  19.569  -0.367   0.848
 2189POPC   C1B38201  19.854  -0.886   0.627
 2189POPC   C2B38202  19.737  -0.766   0.735
 2189POPC   C3B38203  19.620  -0.645   0.843
 2189POPC   C4B38204  19.502  -0.525   0.952
 2190POPC   NC338205  24.332  11.501  -0.652
 2190POPC   PO438206  24.173  11.487  -0.532
 2190POPC   GL138207  24.014  11.473  -0.412
 2190POPC   GL238208  23.960  11.526  -0.477
 2190POPC   C1A38209  23.855  11.459  -0.291
 2190POPC   D2A38210  23.695  11.445  -0.171
 2190POPC   C3A38211  23.536  11.431  -0.050
 2190POPC   C4A38212  23.377  11.417   0.070
 2190POPC   C1B38213  23.800  11.290  -0.383
 2190POPC   C2B38214  23.641  11.276  -0.262
 2190POPC   C3B38215  23.482  11.262  -0.142
 2190POPC   C4B38216  23.323  11.248  -0.022
 2191POPC   NC338217  21.571   1.131  20.406
 2191POPC   PO438218  21.443   1.227  20.287
 2191POPC   GL138219  21.315   1.323  20.168
 2191POPC   GL238220  21.383   1.325  20.095
 2191POPC   C1A38221  21.186   1.419  20.048
 2191POPC   D2A38222  21.058   1.516  19.929
 2191POPC   C3A38223  20.929   1.612  19.809
 2191POPC   C4A38224  20.801   1.708  19.690
 2191POPC   C1B38225  21.119   1.244  19.979
 2191POPC   C2B38226  20.991   1.340  19.860
 2191POPC   C3B38227  20.862   1.437  19.740
 2191POPC   C4B38228  20.734   1.533  19.621
 2192POPC   NC338229   1.766  19.150  23.210
 2192POPC   PO438230   1.859  19.050  23.064
 2192POPC   GL138231   1.952  18.950  22.918
 2192POPC   GL238232   2.002  18.897  22.986
 2192POPC   C1A38233   2.046  18.851  22.772
 2192POPC   D2A38234   2.139  18.751  22.625
 2192POPC   C3A38235   2.233  18.652  22.479
 2192POPC   C4A38236   2.326  18.552  22.333
 2192POPC   C1B38237   1.900  18.714  22.771
 2192POPC   C2B38238   1.993  18.614  22.625
 2192POPC   C3B38239   2.087  18.515  22.479
 2192POPC   C4B38240   2.180  18.415  22.333
 2193POPC   NC338241  26.430   3.070  11.848
 2193POPC   PO438242  26.246   3.145  11.826
 2193POPC   GL138243  26.062   3.220  11.804
 2193POPC   GL238244  26.064   3.198  11.706
 2193POPC   C1A38245  25.878   3.296  11.782
 2193POPC   D2A38246  25.694   3.371  11.760
 2193POPC   C3A38247  25.510   3.447  11.738
 2193POPC   C4A38248  25.326   3.522  11.716
 2193POPC   C1B38249  25.800   3.116  11.821
 2193POPC   C2B38250  25.616   3.191  11.799
 2193POPC   C3B38251  25.432   3.267  11.777
 2193POPC   C4B38252  25.248   3.342  11.755
 2194POPC   NC338253  24.032  11.586  21.025
 2194POPC   PO438254  23.877  11.569  20.900
 2194POPC   GL138255  23.722  11.552  20.775
 2194POPC   GL238256  23.767  11.614  20.711
 2194POPC   C1A38257  23.567  11.534  20.650
 2194POPC   D2A38258  23.412  11.517  20.524
 2194POPC   C3A38259  23.257  11.499  20.399
 2194POPC   C4A38260  23.102  11.482  20.274
 2194POPC   C1B38261  23.656  11.378  20.561
 2194POPC   C2B38262  23.501  11.361  20.436
 2194POPC   C3B38263  23.346  11.343  20.311
 2194POPC   C4B38264  23.191  11.326  20.186
 2195POPC   NC338265  11.264  17.980  26.038
 2195POPC   PO438266  11.243  17.897  25.857
 2195POPC   GL138267  11.222  17.814  25.676
 2195POPC   GL238268  11.318  17.832  25.657
 2195POPC   C1A38269  11.200  17.731  25.496
 2195POPC   D2A38270  11.179  17.647  25.315
 2195POPC   C3A38271  11.157  17.564  25.135
 2195POPC   C4A38272  11.136  17.481  24.954
 2195POPC   C1B38273  11.248  17.552  25.572
 2195POPC   C2B38274  11.227  17.469  25.392
 2195POPC   C3B38275  11.206  17.386  25.211
 2195POPC   C4B38276  11.184  17.303  25.030
 2196POPC   NC338277  -5.589   9.100  19.234
 2196POPC   PO438278  -5.419   9.109  19.129
 2196POPC   GL138279  -5.249   9.118  19.024
 2196POPC   GL238280  -5.228   9.023  19.050
 2196POPC   C1A38281  -5.079   9.126  18.918
 2196POPC   D2A38282  -4.910   9.135  18.813
 2196POPC   C3A38283  -4.740   9.143  18.707
 2196POPC   C4A38284  -4.570   9.152  18.602
 2196POPC   C1B38285  -5.176   9.059  18.757
 2196POPC   C2B38286  -5.007   9.068  18.651
 2196POPC   C3B38287  -4.837   9.077  18.546
 2196POPC   C4B38288  -4.667   9.085  18.440
 2197POPC   NC338289  14.587  16.344  -6.267
 2197POPC   PO438290  14.538  16.273  -6.087
 2197POPC   GL138291  14.489  16.202  -5.907
 2197POPC   GL238292  14.585  16.181  -5.889
 2197POPC   C1A38293  14.440  16.131  -5.726
 2197POPC   D2A38294  14.390  16.060  -5.546
 2197POPC   C3A38295  14.341  15.989  -5.365
 2197POPC   C4A38296  14.292  15.918  -5.185
 2197POPC   C1B38297  14.464  16.313  -5.648
 2197POPC   C2B38298  14.415  16.242  -5.467
 2197POPC   C3B38299  14.366  16.171  -5.287
 2197POPC   C4B38300  14.317  16.100  -5.107
 2198POPC   NC338301  -0.536   6.613  -4.453
 2198POPC   PO438302  -0.420   6.647  -4.294
 2198POPC   GL138303  -0.304   6.681  -4.135
 2198POPC   GL238304  -0.383   6.668  -4.074
 2198POPC   C1A38305  -0.188   6.716  -3.976
 2198POPC   D2A38306  -0.071   6.750  -3.816
 2198POPC   C3A38307   0.045   6.785  -3.657
 2198POPC   C4A38308   0.161   6.819  -3.498
 2198POPC   C1B38309  -0.146   6.521  -3.964
 2198POPC   C2B38310  -0.029   6.555  -3.805
 2198POPC   C3B38311   0.087   6.589  -3.646
 2198POPC   C4B38312   0.203   6.624  -3.486
 2199POPC   NC338313   8.895  -7.904   7.900
 2199POPC   PO438314   8.908  -7.705   7.919
 2199POPC   GL138315   8.921  -7.506   7.938
 2199POPC   GL238316   9.012  -7.508   7.897
 2199POPC   C1A38317   8.933  -7.308   7.958
 2199POPC   D2A38318   8.946  -7.109   7.977
 2199POPC   C3A38319   8.958  -6.911   7.997
 2199POPC   C4A38320   8.971  -6.712   8.016
 2199POPC   C1B38321   8.851  -7.285   7.777
 2199POPC   C2B38322   8.863  -7.086   7.796
 2199POPC   C3B38323   8.876  -6.888   7.816
 2199POPC   C4B38324   8.889  -6.689   7.835
 2200POPC   NC338325   8.352  23.828  21.433
 2200POPC   PO438326   8.372  23.678  21.302
 2200POPC   GL138327   8.392  23.528  21.171
 2200POPC   GL238328   8.441  23.475  21.239
 2200POPC   C1A38329   8.413  23.379  21.040
 2200POPC   D2A38330   8.433  23.229  20.908
 2200POPC   C3A38331   8.454  23.080  20.777
 2200POPC   C4A38332   8.474  22.930  20.646
 2200POPC   C1B38333   8.240  23.301  21.102
 2200POPC   C2B38334   8.260  23.151  20.971
 2200POPC   C3B38335   8.280  23.001  20.840
 2200POPC   C4B38336   8.301  22.852  20.708
 2201POPC   NC338337  -4.007   0.960  17.174
 2201POPC   PO438338  -3.853   1.061  17.097
 2201POPC   GL138339  -3.699   1.162  17.020
 2201POPC   GL238340  -3.653   1.076  16.997
 2201POPC   C1A38341  -3.544   1.263  16.943
 2201POPC   D2A38342  -3.390   1.364  16.866
 2201POPC   C3A38343  -3.235   1.465  16.789
 2201POPC   C4A38344  -3.081   1.566  16.712
 2201POPC   C1B38345  -3.634   1.263  16.764
 2201POPC   C2B38346  -3.479   1.364  16.687
 2201POPC   C3B38347  -3.325   1.465  16.610
 2201POPC   C4B38348  -3.170   1.566  16.533
 2202POPC   NC338349  18.304  -0.263  -2.335
 2202POPC   PO438350  18.209  -0.150  -2.200
 2202POPC   GL138351  18.114  -0.037  -2.065
 2202POPC   GL238352  18.089   0.027  -2.137
 2202POPC   C1A38353  18.019   0.076  -1.930
 2202POPC   D2A38354  17.923   0.188  -1.795
 2202POPC   C3A38355  17.828   0.301  -1.660
 2202POPC   C4A38356  17.733   0.414  -1.525
 2202POPC   C1B38357  17.850  -0.027  -1.963
 2202POPC   C2B38358  17.755   0.086  -1.828
 2202POPC   C3B38359  17.660   0.199  -1.693
 2202POPC   C4B38360  17.565   0.311  -1.558
 2203POPC   NC338361  14.691  22.629  -2.114
 2203POPC   PO438362  14.638  22.489  -1.981
 2203POPC   GL138363  14.585  22.349  -1.848
 2203POPC   GL238364  14.631  22.280  -1.903
 2203POPC   C1A38365  14.531  22.209  -1.715
 2203POPC   D2A38366  14.478  22.070  -1.583
 2203POPC   C3A38367  14.424  21.930  -1.450
 2203POPC   C4A38368  14.371  21.790  -1.317
 2203POPC   C1B38369  14.700  22.242  -1.613
 2203POPC   C2B38370  14.646  22.103  -1.480
 2203POPC   C3B38371  14.593  21.963  -1.347
 2203POPC   C4B38372  14.540  21.823  -1.214
 2204POPC   NC338373   2.052   5.894  25.704
 2204POPC   PO438374   2.141   5.943  25.532
 2204POPC   GL138375   2.230   5.992  25.360
 2204POPC   GL238376   2.279   5.905  25.360
 2204POPC   C1A38377   2.318   6.041  25.187
 2204POPC   D2A38378   2.407   6.091  25.015
 2204POPC   C3A38379   2.495   6.140  24.842
 2204POPC   C4A38380   2.584   6.189  24.670
 2204POPC   C1B38381   2.168   5.956  25.086
 2204POPC   C2B38382   2.257   6.005  24.914
 2204POPC   C3B38383   2.345   6.055  24.741
 2204POPC   C4B38384   2.434   6.104  24.569
 2205POPC   NC338385  21.101  -2.325   2.938
 2205POPC   PO438386  20.977  -2.189   3.015
 2205POPC   GL138387  20.853  -2.053   3.092
 2205POPC   GL238388  20.917  -1.980   3.068
 2205POPC   C1A38389  20.728  -1.917   3.170
 2205POPC   D2A38390  20.604  -1.781   3.247
 2205POPC   C3A38391  20.479  -1.645   3.325
 2205POPC   C4A38392  20.355  -1.509   3.402
 2205POPC   C1B38393  20.639  -1.898   2.992
 2205POPC   C2B38394  20.514  -1.762   3.069
 2205POPC   C3B38395  20.390  -1.626   3.147
 2205POPC   C4B38396  20.266  -1.490   3.224
 2206POPC   NC338397  24.006  -0.986   7.663
 2206POPC   PO438398  23.848  -0.866   7.689
 2206POPC   GL138399  23.690  -0.746   7.715
 2206POPC   GL238400  23.715  -0.695   7.632
 2206POPC   C1A38401  23.532  -0.626   7.740
 2206POPC   D2A38402  23.374  -0.506   7.766
 2206POPC   C3A38403  23.216  -0.386   7.791
 2206POPC   C4A38404  23.058  -0.266   7.817
 2206POPC   C1B38405  23.420  -0.749   7.629
 2206POPC   C2B38406  23.262  -0.629   7.655
 2206POPC   C3B38407  23.104  -0.509   7.681
 2206POPC   C4B38408  22.946  -0.389   7.706
 2207POPC   NC338409  -4.847   8.429  20.282
 2207POPC   PO438410  -4.684   8.443  20.167
 2207POPC   GL138411  -4.521   8.457  20.052
 2207POPC   GL238412  -4.492   8.537  20.103
 2207POPC   C1A38413  -4.358   8.470  19.936
 2207POPC   D2A38414  -4.196   8.484  19.821
 2207POPC   C3A38415  -4.033   8.497  19.705
 2207POPC   C4A38416  -3.870   8.511  19.590
 2207POPC   C1B38417  -4.258   8.353  20.063
 2207POPC   C2B38418  -4.096   8.366  19.948
 2207POPC   C3B38419  -3.933   8.380  19.833
 2207POPC   C4B38420  -3.770   8.393  19.717
 2208POPC   NC338421  13.433  13.837  -7.329
 2208POPC   PO438422  13.394  13.792  -7.138
 2208POPC   GL138423  13.355  13.747  -6.947
 2208POPC   GL238424  13.279  13.689  -6.976
 2208POPC   C1A38425  13.316  13.702  -6.756
 2208POPC   D2A38426  13.277  13.658  -6.565
 2208POPC   C3A38427  13.238  13.613  -6.374
 2208POPC   C4A38428  13.199  13.568  -6.183
 2208POPC   C1B38429  13.440  13.546  -6.767
 2208POPC   C2B38430  13.401  13.501  -6.576
 2208POPC   C3B38431  13.362  13.456  -6.385
 2208POPC   C4B38432  13.323  13.411  -6.194
 2209POPC   NC338433  10.311  -4.046  -1.432
 2209POPC   PO438434  10.308  -3.890  -1.307
 2209POPC   GL138435  10.305  -3.734  -1.182
 2209POPC   GL238436  10.325  -3.672  -1.259
 2209POPC   C1A38437  10.302  -3.577  -1.057
 2209POPC   D2A38438  10.299  -3.421  -0.933
 2209POPC   C3A38439  10.296  -3.264  -0.808
 2209POPC   C4A38440  10.293  -3.108  -0.683
 2209POPC   C1B38441  10.106  -3.554  -1.091
 2209POPC   C2B38442  10.103  -3.398  -0.966
 2209POPC   C3B38443  10.100  -3.242  -0.841
 2209POPC   C4B38444  10.097  -3.085  -0.716
 2210POPC   NC338445  10.544  -7.788   6.624
 2210POPC   PO438446  10.544  -7.591   6.656
 2210POPC   GL138447  10.544  -7.394   6.688
 2210POPC   GL238448  10.640  -7.398   6.716
 2210POPC   C1A38449  10.544  -7.196   6.721
 2210POPC   D2A38450  10.543  -6.999   6.753
 2210POPC   C3A38451  10.543  -6.801   6.786
 2210POPC   C4A38452  10.543  -6.604   6.818
 2210POPC   C1B38453  10.600  -7.165   6.531
 2210POPC   C2B38454  10.600  -6.968   6.564
 2210POPC   C3B38455  10.599  -6.770   6.596
 2210POPC   C4B38456  10.599  -6.573   6.629
 2211POPC   NC338457  27.132  12.947  14.113
 2211POPC   PO438458  26.941  12.914  14.065
 2211POPC   GL138459  26.750  12.881  14.017
 2211POPC   GL238460  26.739  12.978  13.993
 2211POPC   C1A38461  26.558  12.848  13.969
 2211POPC   D2A38462  26.367  12.816  13.920
 2211POPC   C3A38463  26.175  12.783  13.872
 2211POPC   C4A38464  25.984  12.750  13.824
 2211POPC   C1B38465  26.613  12.808  13.780
 2211POPC   C2B38466  26.421  12.775  13.732
 2211POPC   C3B38467  26.230  12.742  13.684
 2211POPC   C4B38468  26.038  12.709  13.636
 2212POPC   NC338469  20.565  -4.566   9.631
 2212POPC   PO438470  20.448  -4.404   9.633
 2212POPC   GL138471  20.331  -4.242   9.635
 2212POPC   GL238472  20.412  -4.183   9.625
 2212POPC   C1A38473  20.214  -4.079   9.636
 2212POPC   D2A38474  20.098  -3.917   9.638
 2212POPC   C3A38475  19.981  -3.754   9.639
 2212POPC   C4A38476  19.864  -3.592   9.641
 2212POPC   C1B38477  20.198  -4.089   9.437
 2212POPC   C2B38478  20.081  -3.927   9.439
 2212POPC   C3B38479  19.964  -3.764   9.440
 2212POPC   C4B38480  19.847  -3.602   9.442
 2213POPC   NC338481   8.811  -6.401  17.477
 2213POPC   PO438482   8.825  -6.220  17.394
 2213POPC   GL138483   8.839  -6.039  17.311
 2213POPC   GL238484   8.938  -6.049  17.304
 2213POPC   C1A38485   8.853  -5.857  17.228
 2213POPC   D2A38486   8.867  -5.676  17.145
 2213POPC   C3A38487   8.881  -5.494  17.062
 2213POPC   C4A38488   8.895  -5.313  16.979
 2213POPC   C1B38489   8.832  -5.939  17.046
 2213POPC   C2B38490   8.846  -5.757  16.963
 2213POPC   C3B38491   8.860  -5.576  16.880
 2213POPC   C4B38492   8.874  -5.394  16.797
 2214POPC   NC338493  23.823  -1.361   8.457
 2214POPC   PO438494  23.667  -1.237   8.474
 2214POPC   GL138495  23.511  -1.113   8.491
 2214POPC   GL238496  23.506  -1.105   8.392
 2214POPC   C1A38497  23.355  -0.989   8.509
 2214POPC   D2A38498  23.199  -0.865   8.526
 2214POPC   C3A38499  23.043  -0.741   8.544
 2214POPC   C4A38500  22.887  -0.617   8.561
 2214POPC   C1B38501  23.230  -1.145   8.503
 2214POPC   C2B38502  23.074  -1.021   8.521
 2214POPC   C3B38503  22.918  -0.897   8.538
 2214POPC   C4B38504  22.762  -0.773   8.556
 2215POPC   NC338505  -6.420   7.111  17.247
 2215POPC   PO438506  -6.239   7.136  17.166
 2215POPC   GL138507  -6.058   7.161  17.085
 2215POPC   GL238508  -6.019   7.097  17.151
 2215POPC   C1A38509  -5.877   7.187  17.003
 2215POPC   D2A38510  -5.696   7.212  16.922
 2215POPC   C3A38511  -5.515   7.238  16.840
 2215POPC   C4A38512  -5.334   7.263  16.759
 2215POPC   C1B38513  -5.913   7.036  16.877
 2215POPC   C2B38514  -5.732   7.062  16.795
 2215POPC   C3B38515  -5.551   7.087  16.714
 2215POPC   C4B38516  -5.370   7.112  16.632
 2216POPC   NC338517  -2.198   6.354  -3.022
 2216POPC   PO438518  -2.063   6.390  -2.879
 2216POPC   GL138519  -1.928   6.426  -2.736
 2216POPC   GL238520  -1.992   6.391  -2.667
 2216POPC   C1A38521  -1.793   6.462  -2.592
 2216POPC   D2A38522  -1.659   6.497  -2.449
 2216POPC   C3A38523  -1.524   6.533  -2.305
 2216POPC   C4A38524  -1.389   6.569  -2.162
 2216POPC   C1B38525  -1.719   6.277  -2.616
 2216POPC   C2B38526  -1.584   6.313  -2.473
 2216POPC   C3B38527  -1.449   6.349  -2.329
 2216POPC   C4B38528  -1.315   6.385  -2.186
 2217POPC   NC338529  -2.486  10.313  -3.159
 2217POPC   PO438530  -2.349  10.310  -3.013
 2217POPC   GL138531  -2.212  10.307  -2.867
 2217POPC   GL238532  -2.239  10.399  -2.840
 2217POPC   C1A38533  -2.075  10.303  -2.722
 2217POPC   D2A38534  -1.938  10.300  -2.576
 2217POPC   C3A38535  -1.801  10.296  -2.431
 2217POPC   C4A38536  -1.664  10.293  -2.285
 2217POPC   C1B38537  -2.210  10.226  -2.596
 2217POPC   C2B38538  -2.073  10.223  -2.451
 2217POPC   C3B38539  -1.936  10.220  -2.305
 2217POPC   C4B38540  -1.799  10.216  -2.159
 2218POPC   NC338541  14.823   7.495  -7.252
 2218POPC   PO438542  14.760   7.524  -7.064
 2218POPC   GL138543  14.697   7.553  -6.876
 2218POPC   GL238544  14.699   7.652  -6.891
 2218POPC   C1A38545  14.634   7.582  -6.689
 2218POPC   D2A38546  14.571   7.612  -6.501
 2218POPC   C3A38547  14.508   7.641  -6.314
 2218POPC   C4A38548  14.445   7.670  -6.126
 2218POPC   C1B38549  14.444   7.576  -6.752
 2218POPC   C2B38550  14.381   7.606  -6.564
 2218POPC   C3B38551  14.318   7.635  -6.376
 2218POPC   C4B38552  14.255   7.664  -6.189
 2219POPC   NC338553  25.662  11.919   1.444
 2219POPC   PO438554  25.488  11.898   1.540
 2219POPC   GL138555  25.314  11.877   1.636
 2219POPC   GL238556  25.296  11.975   1.624
 2219POPC   C1A38557  25.140  11.856   1.732
 2219POPC   D2A38558  24.965  11.835   1.827
 2219POPC   C3A38559  24.791  11.814   1.923
 2219POPC   C4A38560  24.617  11.793   2.019
 2219POPC   C1B38561  25.048  11.818   1.558
 2219POPC   C2B38562  24.874  11.797   1.653
 2219POPC   C3B38563  24.700  11.776   1.749
 2219POPC   C4B38564  24.526  11.755   1.845
 2220POPC   NC338565  13.031  27.056   5.183
 2220POPC   PO438566  12.992  26.868   5.238
 2220POPC   GL138567  12.953  26.680   5.293
 2220POPC   GL238568  13.041  26.676   5.342
 2220POPC   C1A38569  12.914  26.492   5.349
 2220POPC   D2A38570  12.876  26.303   5.404
 2220POPC   C3A38571  12.837  26.115   5.460
 2220POPC   C4A38572  12.798  25.927   5.515
 2220POPC   C1B38573  12.826  26.559   5.515
 2220POPC   C2B38574  12.787  26.371   5.571
 2220POPC   C3B38575  12.748  26.182   5.626
 2220POPC   C4B38576  12.710  25.994   5.681
 2221POPC   NC338577  23.117   2.939  -0.049
 2221POPC   PO438578  22.974   3.020   0.064
 2221POPC   GL138579  22.831   3.101   0.177
 2221POPC   GL238580  22.854   3.192   0.142
 2221POPC   C1A38581  22.688   3.182   0.291
 2221POPC   D2A38582  22.544   3.264   0.404
 2221POPC   C3A38583  22.401   3.345   0.518
 2221POPC   C4A38584  22.258   3.426   0.631
 2221POPC   C1B38585  22.556   3.159   0.142
 2221POPC   C2B38586  22.413   3.240   0.255
 2221POPC   C3B38587  22.270   3.321   0.369
 2221POPC   C4B38588  22.127   3.402   0.482
 2222POPC   NC338589  -1.948  14.352  22.812
 2222POPC   PO438590  -1.821  14.302  22.666
 2222POPC   GL138591  -1.694  14.252  22.520
 2222POPC   GL238592  -1.632  14.213  22.587
 2222POPC   C1A38593  -1.567  14.202  22.374
 2222POPC   D2A38594  -1.440  14.153  22.227
 2222POPC   C3A38595  -1.313  14.103  22.081
 2222POPC   C4A38596  -1.186  14.053  21.935
 2222POPC   C1B38597  -1.658  14.025  22.355
 2222POPC   C2B38598  -1.531  13.976  22.208
 2222POPC   C3B38599  -1.404  13.926  22.062
 2222POPC   C4B38600  -1.277  13.876  21.916
 2223POPC   NC338601  -3.472   1.566   0.993
 2223POPC   PO438602  -3.327   1.661   1.094
 2223POPC   GL138603  -3.182   1.756   1.195
 2223POPC   GL238604  -3.127   1.672   1.194
 2223POPC   C1A38605  -3.038   1.850   1.296
 2223POPC   D2A38606  -2.893   1.945   1.396
 2223POPC   C3A38607  -2.749   2.039   1.497
 2223POPC   C4A38608  -2.604   2.134   1.598
 2223POPC   C1B38609  -2.955   1.907   1.123
 2223POPC   C2B38610  -2.810   2.002   1.224
 2223POPC   C3B38611  -2.665   2.096   1.324
 2223POPC   C4B38612  -2.521   2.191   1.425
 2224POPC   NC338613   6.527  27.687  11.639
 2224POPC   PO438614   6.561  27.491  11.621
 2224POPC   GL138615   6.595  27.295  11.603
 2224POPC   GL238616   6.623  27.291  11.699
 2224POPC   C1A38617   6.630  27.099  11.584
 2224POPC   D2A38618   6.664  26.902  11.566
 2224POPC   C3A38619   6.699  26.706  11.547
 2224POPC   C4A38620   6.733  26.510  11.529
 2224POPC   C1B38621   6.441  27.061  11.637
 2224POPC   C2B38622   6.475  26.864  11.619
 2224POPC   C3B38623   6.510  26.668  11.601
 2224POPC   C4B38624   6.544  26.472  11.582
 2225POPC   NC338625  12.617  26.980  15.346
 2225POPC   PO438626  12.586  26.791  15.289
 2225POPC   GL138627  12.555  26.602  15.232
 2225POPC   GL238628  12.653  26.592  15.213
 2225POPC   C1A38629  12.524  26.413  15.174
 2225POPC   D2A38630  12.494  26.224  15.117
 2225POPC   C3A38631  12.463  26.035  15.059
 2225POPC   C4A38632  12.432  25.846  15.002
 2225POPC   C1B38633  12.554  26.351  15.362
 2225POPC   C2B38634  12.524  26.162  15.305
 2225POPC   C3B38635  12.493  25.973  15.247
 2225POPC   C4B38636  12.462  25.784  15.190
 2226POPC   NC338637  21.786  21.634  16.603
 2226POPC   PO438638  21.655  21.502  16.531
 2226POPC   GL138639  21.524  21.370  16.459
 2226POPC   GL238640  21.567  21.376  16.369
 2226POPC   C1A38641  21.392  21.237  16.387
 2226POPC   D2A38642  21.261  21.105  16.314
 2226POPC   C3A38643  21.129  20.972  16.242
 2226POPC   C4A38644  20.998  20.840  16.170
 2226POPC   C1B38645  21.516  21.088  16.435
 2226POPC   C2B38646  21.385  20.955  16.363
 2226POPC   C3B38647  21.253  20.823  16.291
 2226POPC   C4B38648  21.122  20.691  16.219
 2227POPC   NC338649   7.424  19.044  25.394
 2227POPC   PO438650   7.452  18.941  25.225
 2227POPC   GL138651   7.480  18.838  25.056
 2227POPC   GL238652   7.576  18.866  25.055
 2227POPC   C1A38653   7.509  18.735  24.887
 2227POPC   D2A38654   7.537  18.632  24.718
 2227POPC   C3A38655   7.566  18.529  24.549
 2227POPC   C4A38656   7.594  18.426  24.380
 2227POPC   C1B38657   7.556  18.573  24.994
 2227POPC   C2B38658   7.585  18.470  24.825
 2227POPC   C3B38659   7.613  18.367  24.656
 2227POPC   C4B38660   7.641  18.264  24.487
 2228POPC   NC338661  -1.245   2.931  -2.376
 2228POPC   PO438662  -1.126   3.013  -2.238
 2228POPC   GL138663  -1.007   3.095  -2.100
 2228POPC   GL238664  -1.087   3.112  -2.042
 2228POPC   C1A38665  -0.888   3.177  -1.962
 2228POPC   D2A38666  -0.770   3.260  -1.823
 2228POPC   C3A38667  -0.651   3.342  -1.685
 2228POPC   C4A38668  -0.532   3.424  -1.547
 2228POPC   C1B38669  -0.865   2.998  -1.876
 2228POPC   C2B38670  -0.746   3.081  -1.737
 2228POPC   C3B38671  -0.627   3.163  -1.599
 2228POPC   C4B38672  -0.508   3.245  -1.461
 2229POPC   NC338673  25.632  13.184   1.760
 2229POPC   PO438674  25.458  13.150   1.853
 2229POPC   GL138675  25.284  13.116   1.946
 2229POPC   GL238676  25.255  13.058   1.869
 2229POPC   C1A38677  25.110  13.081   2.039
 2229POPC   D2A38678  24.937  13.047   2.131
 2229POPC   C3A38679  24.763  13.012   2.224
 2229POPC   C4A38680  24.589  12.978   2.317
 2229POPC   C1B38681  25.190  12.921   2.128
 2229POPC   C2B38682  25.016  12.886   2.221
 2229POPC   C3B38683  24.842  12.852   2.313
 2229POPC   C4B38684  24.668  12.818   2.406
 2230POPC   NC338685  21.062  22.133  16.952
 2230POPC   PO438686  20.938  21.995  16.877
 2230POPC   GL138687  20.814  21.857  16.802
 2230POPC   GL238688  20.804  21.912  16.719
 2230POPC   C1A38689  20.690  21.720  16.727
 2230POPC   D2A38690  20.565  21.582  16.652
 2230POPC   C3A38691  20.441  21.445  16.577
 2230POPC   C4A38692  20.317  21.307  16.502
 2230POPC   C1B38693  20.845  21.624  16.645
 2230POPC   C2B38694  20.721  21.486  16.570
 2230POPC   C3B38695  20.597  21.349  16.495
 2230POPC   C4B38696  20.472  21.211  16.420
 2231POPC   NC338697   6.305  -3.461  21.457
 2231POPC   PO438698   6.346  -3.313  21.329
 2231POPC   GL138699   6.387  -3.165  21.201
 2231POPC   GL238700   6.412  -3.232  21.131
 2231POPC   C1A38701   6.427  -3.017  21.072
 2231POPC   D2A38702   6.468  -2.870  20.944
 2231POPC   C3A38703   6.508  -2.722  20.815
 2231POPC   C4A38704   6.549  -2.574  20.687
 2231POPC   C1B38705   6.238  -3.022  21.007
 2231POPC   C2B38706   6.279  -2.875  20.878
 2231POPC   C3B38707   6.319  -2.727  20.750
 2231POPC   C4B38708   6.360  -2.579  20.622
 2232POPC   NC338709   8.790  27.811   7.311
 2232POPC   PO438710   8.801  27.613   7.338
 2232POPC   GL138711   8.812  27.415   7.365
 2232POPC   GL238712   8.905  27.425   7.400
 2232POPC   C1A38713   8.822  27.217   7.392
 2232POPC   D2A38714   8.833  27.020   7.419
 2232POPC   C3A38715   8.843  26.822   7.446
 2232POPC   C4A38716   8.854  26.624   7.473
 2232POPC   C1B38717   8.750  27.239   7.577
 2232POPC   C2B38718   8.761  27.041   7.604
 2232POPC   C3B38719   8.771  26.843   7.631
 2232POPC   C4B38720   8.782  26.645   7.658
 2233POPC   NC338721  -8.232  10.114   9.624
 2233POPC   PO438722  -8.032  10.112   9.627
 2233POPC   GL138723  -7.832  10.110   9.630
 2233POPC   GL238724  -7.832  10.196   9.681
 2233POPC   C1A38725  -7.632  10.108   9.634
 2233POPC   D2A38726  -7.432  10.105   9.637
 2233POPC   C3A38727  -7.232  10.103   9.641
 2233POPC   C4A38728  -7.032  10.101   9.644
 2233POPC   C1B38729  -7.636  10.006   9.806
 2233POPC   C2B38730  -7.436  10.004   9.810
 2233POPC   C3B38731  -7.236  10.002   9.813
 2233POPC   C4B38732  -7.036  10.000   9.816
 2234POPC   NC338733   0.608  16.443  23.955
 2234POPC   PO438734   0.714  16.372  23.801
 2234POPC   GL138735   0.820  16.301  23.647
 2234POPC   GL238736   0.903  16.306  23.702
 2234POPC   C1A38737   0.926  16.229  23.493
 2234POPC   D2A38738   1.031  16.158  23.339
 2234POPC   C3A38739   1.137  16.086  23.185
 2234POPC   C4A38740   1.243  16.015  23.031
 2234POPC   C1B38741   0.895  16.043  23.558
 2234POPC   C2B38742   1.001  15.971  23.404
 2234POPC   C3B38743   1.107  15.900  23.250
 2234POPC   C4B38744   1.212  15.828  23.096
 2235POPC   NC338745  24.114  20.350   6.324
 2235POPC   PO438746  23.954  20.237   6.365
 2235POPC   GL138747  23.794  20.124   6.406
 2235POPC   GL238748  23.831  20.051   6.348
 2235POPC   C1A38749  23.635  20.011   6.448
 2235POPC   D2A38750  23.475  19.898   6.489
 2235POPC   C3A38751  23.316  19.785   6.531
 2235POPC   C4A38752  23.156  19.672   6.572
 2235POPC   C1B38753  23.731  19.933   6.605
 2235POPC   C2B38754  23.571  19.820   6.646
 2235POPC   C3B38755  23.412  19.707   6.688
 2235POPC   C4B38756  23.252  19.594   6.729
 2236POPC   NC338757  13.112  25.862  17.886
 2236POPC   PO438758  13.075  25.687  17.796
 2236POPC   GL138759  13.038  25.512  17.706
 2236POPC   GL238760  13.136  25.498  17.694
 2236POPC   C1A38761  13.001  25.337  17.617
 2236POPC   D2A38762  12.964  25.162  17.527
 2236POPC   C3A38763  12.927  24.987  17.438
 2236POPC   C4A38764  12.890  24.812  17.348
 2236POPC   C1B38765  13.010  25.244  17.794
 2236POPC   C2B38766  12.973  25.069  17.704
 2236POPC   C3B38767  12.936  24.894  17.615
 2236POPC   C4B38768  12.899  24.719  17.525
 2237POPC   NC338769   6.511  -7.187  14.472
 2237POPC   PO438770   6.549  -6.997  14.422
 2237POPC   GL138771   6.587  -6.807  14.372
 2237POPC   GL238772   6.682  -6.831  14.353
 2237POPC   C1A38773   6.625  -6.617  14.322
 2237POPC   D2A38774   6.662  -6.427  14.272
 2237POPC   C3A38775   6.700  -6.237  14.222
 2237POPC   C4A38776   6.738  -6.047  14.172
 2237POPC   C1B38777   6.578  -6.658  14.132
 2237POPC   C2B38778   6.615  -6.468  14.082
 2237POPC   C3B38779   6.653  -6.278  14.032
 2237POPC   C4B38780   6.691  -6.088  13.982
 2238POPC   NC338781  19.411  -5.325  10.194
 2238POPC   PO438782  19.307  -5.154  10.189
 2238POPC   GL138783  19.203  -4.983  10.184
 2238POPC   GL238784  19.284  -4.935  10.152
 2238POPC   C1A38785  19.098  -4.813  10.179
 2238POPC   D2A38786  18.994  -4.642  10.175
 2238POPC   C3A38787  18.889  -4.472  10.170
 2238POPC   C4A38788  18.785  -4.301  10.165
 2238POPC   C1B38789  19.046  -4.850   9.990
 2238POPC   C2B38790  18.942  -4.679   9.985
 2238POPC   C3B38791  18.837  -4.509   9.980
 2238POPC   C4B38792  18.733  -4.338   9.975
 2239POPC   NC338793  18.181  25.807  12.133
 2239POPC   PO438794  18.093  25.628  12.119
 2239POPC   GL138795  18.005  25.449  12.105
 2239POPC   GL238796  18.067  25.413  12.173
 2239POPC   C1A38797  17.916  25.270  12.091
 2239POPC   D2A38798  17.828  25.092  12.076
 2239POPC   C3A38799  17.739  24.913  12.062
 2239POPC   C4A38800  17.651  24.734  12.048
 2239POPC   C1B38801  17.788  25.322  12.235
 2239POPC   C2B38802  17.700  25.143  12.221
 2239POPC   C3B38803  17.611  24.965  12.207
 2239POPC   C4B38804  17.523  24.786  12.193
 2240POPC   NC338805  -4.505   6.097  20.212
 2240POPC   PO438806  -4.348   6.136  20.095
 2240POPC   GL138807  -4.191   6.175  19.978
 2240POPC   GL238808  -4.131   6.175  20.058
 2240POPC   C1A38809  -4.034   6.215  19.860
 2240POPC   D2A38810  -3.877   6.254  19.743
 2240POPC   C3A38811  -3.720   6.294  19.625
 2240POPC   C4A38812  -3.563   6.333  19.508
 2240POPC   C1B38813  -4.003   6.019  19.835
 2240POPC   C2B38814  -3.846   6.058  19.718
 2240POPC   C3B38815  -3.689   6.098  19.601
 2240POPC   C4B38816  -3.532   6.137  19.483
 2241POPC   NC338817  11.759   4.449  -7.120
 2241POPC   PO438818  11.742   4.510  -6.930
 2241POPC   GL138819  11.725   4.571  -6.740
 2241POPC   GL238820  11.757   4.662  -6.767
 2241POPC   C1A38821  11.708   4.632  -6.551
 2241POPC   D2A38822  11.691   4.693  -6.361
 2241POPC   C3A38823  11.674   4.754  -6.172
 2241POPC   C4A38824  11.657   4.815  -5.982
 2241POPC   C1B38825  11.519   4.688  -6.586
 2241POPC   C2B38826  11.502   4.749  -6.396
 2241POPC   C3B38827  11.485   4.810  -6.207
 2241POPC   C4B38828  11.468   4.871  -6.017
 2242POPC   NC338829  21.413   0.763  -0.365
 2242POPC   PO438830  21.284   0.863  -0.249
 2242POPC   GL138831  21.155   0.963  -0.133
 2242POPC   GL238832  21.227   1.028  -0.109
 2242POPC   C1A38833  21.027   1.062  -0.016
 2242POPC   D2A38834  20.898   1.162   0.100
 2242POPC   C3A38835  20.770   1.261   0.217
 2242POPC   C4A38836  20.641   1.361   0.333
 2242POPC   C1B38837  20.974   1.176  -0.172
 2242POPC   C2B38838  20.846   1.276  -0.055
 2242POPC   C3B38839  20.717   1.375   0.061
 2242POPC   C4B38840  20.588   1.475   0.177
 2243POPC   NC338841  14.554  -2.429  22.087
 2243POPC   PO438842  14.506  -2.290  21.951
 2243POPC   GL138843  14.458  -2.151  21.815
 2243POPC   GL238844  14.469  -2.219  21.742
 2243POPC   C1A38845  14.410  -2.013  21.679
 2243POPC   D2A38846  14.363  -1.874  21.542
 2243POPC   C3A38847  14.315  -1.736  21.406
 2243POPC   C4A38848  14.267  -1.597  21.270
 2243POPC   C1B38849  14.217  -2.062  21.696
 2243POPC   C2B38850  14.170  -1.923  21.560
 2243POPC   C3B38851  14.122  -1.785  21.424
 2243POPC   C4B38852  14.074  -1.646  21.288
 2244POPC   NC338853  15.303  14.114  26.686
 2244POPC   PO438854  15.247  14.065  26.500
 2244POPC   GL138855  15.191  14.016  26.314
 2244POPC   GL238856  15.247  14.091  26.278
 2244POPC   C1A38857  15.135  13.967  26.128
 2244POPC   D2A38858  15.080  13.919  25.943
 2244POPC   C3A38859  15.024  13.870  25.757
 2244POPC   C4A38860  14.968  13.821  25.571
 2244POPC   C1B38861  15.292  13.844  26.114
 2244POPC   C2B38862  15.236  13.795  25.928
 2244POPC   C3B38863  15.180  13.746  25.742
 2244POPC   C4B38864  15.124  13.697  25.557
 2245POPC   NC338865   5.727  -7.456  12.099
 2245POPC   PO438866   5.772  -7.263  12.076
 2245POPC   GL138867   5.817  -7.070  12.053
 2245POPC   GL238868   5.844  -7.064  12.149
 2245POPC   C1A38869   5.863  -6.876  12.029
 2245POPC   D2A38870   5.908  -6.683  12.006
 2245POPC   C3A38871   5.954  -6.489  11.982
 2245POPC   C4A38872   5.999  -6.296  11.959
 2245POPC   C1B38873   6.050  -6.926  11.980
 2245POPC   C2B38874   6.096  -6.733  11.957
 2245POPC   C3B38875   6.141  -6.539  11.933
 2245POPC   C4B38876   6.186  -6.346  11.910
 2246POPC   NC338877   2.115  16.161  25.031
 2246POPC   PO438878   2.210  16.094  24.868
 2246POPC   GL138879   2.305  16.027  24.705
 2246POPC   GL238880   2.363  16.109  24.706
 2246POPC   C1A38881   2.400  15.961  24.542
 2246POPC   D2A38882   2.495  15.894  24.380
 2246POPC   C3A38883   2.590  15.828  24.217
 2246POPC   C4A38884   2.685  15.761  24.054
 2246POPC   C1B38885   2.532  15.866  24.658
 2246POPC   C2B38886   2.627  15.799  24.496
 2246POPC   C3B38887   2.722  15.732  24.333
 2246POPC   C4B38888   2.817  15.666  24.170
 2247POPC   NC338889  16.607  12.939  -6.575
 2247POPC   PO438890  16.532  12.909  -6.392
 2247POPC   GL138891  16.457  12.879  -6.209
 2247POPC   GL238892  16.418  12.792  -6.239
 2247POPC   C1A38893  16.382  12.849  -6.026
 2247POPC   D2A38894  16.307  12.819  -5.843
 2247POPC   C3A38895  16.232  12.789  -5.660
 2247POPC   C4A38896  16.157  12.759  -5.477
 2247POPC   C1B38897  16.550  12.755  -5.972
 2247POPC   C2B38898  16.475  12.725  -5.789
 2247POPC   C3B38899  16.400  12.695  -5.606
 2247POPC   C4B38900  16.325  12.665  -5.423
 2248POPC   NC338901  -1.422  -0.119   0.090
 2248POPC   PO438902  -1.303  -0.008   0.206
 2248POPC   GL138903  -1.184   0.103   0.322
 2248POPC   GL238904  -1.175   0.026   0.386
 2248POPC   C1A38905  -1.064   0.213   0.438
 2248POPC   D2A38906  -0.945   0.324   0.555
 2248POPC   C3A38907  -0.825   0.434   0.671
 2248POPC   C4A38908  -0.706   0.545   0.787
 2248POPC   C1B38909  -0.905   0.146   0.338
 2248POPC   C2B38910  -0.785   0.257   0.455
 2248POPC   C3B38911  -0.666   0.367   0.571
 2248POPC   C4B38912  -0.546   0.478   0.687
 2249POPC   NC338913  24.581   1.152  15.587
 2249POPC   PO438914  24.418   1.251  15.527
 2249POPC   GL138915  24.255   1.350  15.467
 2249POPC   GL238916  24.296   1.364  15.377
 2249POPC   C1A38917  24.092   1.450  15.408
 2249POPC   D2A38918  23.929   1.549  15.348
 2249POPC   C3A38919  23.766   1.649  15.289
 2249POPC   C4A38920  23.603   1.748  15.229
 2249POPC   C1B38921  24.010   1.278  15.345
 2249POPC   C2B38922  23.847   1.378  15.285
 2249POPC   C3B38923  23.684   1.477  15.226
 2249POPC   C4B38924  23.521   1.577  15.166
 2250POPC   NC338925   6.667   0.750  25.098
 2250POPC   PO438926   6.700   0.846  24.925
 2250POPC   GL138927   6.733   0.942  24.752
 2250POPC   GL238928   6.827   0.961  24.781
 2250POPC   C1A38929   6.766   1.037  24.580
 2250POPC   D2A38930   6.799   1.133  24.407
 2250POPC   C3A38931   6.832   1.228  24.235
 2250POPC   C4A38932   6.865   1.324  24.062
 2250POPC   C1B38933   6.827   0.866  24.497
 2250POPC   C2B38934   6.860   0.961  24.324
 2250POPC   C3B38935   6.893   1.057  24.151
 2250POPC   C4B38936   6.926   1.153  23.979
 2251POPC   NC338937  18.724  22.249  19.749
 2251POPC   PO438938  18.624  22.109  19.647
 2251POPC   GL138939  18.524  21.969  19.545
 2251POPC   GL238940  18.511  22.033  19.470
 2251POPC   C1A38941  18.424  21.829  19.444
 2251POPC   D2A38942  18.324  21.688  19.342
 2251POPC   C3A38943  18.224  21.548  19.241
 2251POPC   C4A38944  18.124  21.408  19.139
 2251POPC   C1B38945  18.595  21.766  19.362
 2251POPC   C2B38946  18.495  21.626  19.260
 2251POPC   C3B38947  18.395  21.486  19.159
 2251POPC   C4B38948  18.295  21.345  19.057
 2252POPC   NC338949   8.556  23.661  21.648
 2252POPC   PO438950   8.574  23.513  21.515
 2252POPC   GL138951   8.592  23.365  21.382
 2252POPC   GL238952   8.642  23.310  21.449
 2252POPC   C1A38953   8.609  23.217  21.249
 2252POPC   D2A38954   8.627  23.068  21.116
 2252POPC   C3A38955   8.644  22.920  20.983
 2252POPC   C4A38956   8.662  22.772  20.850
 2252POPC   C1B38957   8.437  23.138  21.313
 2252POPC   C2B38958   8.454  22.990  21.180
 2252POPC   C3B38959   8.472  22.842  21.047
 2252POPC   C4B38960   8.490  22.694  20.914
 2253POPC   NC338961  24.617  20.359  10.663
 2253POPC   PO438962  24.453  20.245  10.655
 2253POPC   GL138963  24.289  20.131  10.647
 2253POPC   GL238964  24.343  20.051  10.674
 2253POPC   C1A38965  24.125  20.017  10.639
 2253POPC   D2A38966  23.961  19.902  10.632
 2253POPC   C3A38967  23.797  19.788  10.624
 2253POPC   C4A38968  23.633  19.674  10.616
 2253POPC   C1B38969  24.088  20.057  10.832
 2253POPC   C2B38970  23.924  19.943  10.824
 2253POPC   C3B38971  23.760  19.829  10.816
 2253POPC   C4B38972  23.596  19.714  10.808
 2254POPC   NC338973  -5.179   1.177   5.313
 2254POPC   PO438974  -5.012   1.275   5.363
 2254POPC   GL138975  -4.845   1.373   5.413
 2254POPC   GL238976  -4.848   1.332   5.504
 2254POPC   C1A38977  -4.678   1.471   5.462
 2254POPC   D2A38978  -4.510   1.568   5.512
 2254POPC   C3A38979  -4.343   1.666   5.561
 2254POPC   C4A38980  -4.176   1.764   5.611
 2254POPC   C1B38981  -4.568   1.316   5.398
 2254POPC   C2B38982  -4.401   1.414   5.448
 2254POPC   C3B38983  -4.234   1.512   5.497
 2254POPC   C4B38984  -4.067   1.609   5.547
 2255POPC   NC338985  22.857  -1.538  14.798
 2255POPC   PO438986  22.710  -1.413  14.746
 2255POPC   GL138987  22.563  -1.288  14.694
 2255POPC   GL238988  22.529  -1.355  14.628
 2255POPC   C1A38989  22.416  -1.163  14.641
 2255POPC   D2A38990  22.269  -1.038  14.589
 2255POPC   C3A38991  22.122  -0.913  14.536
 2255POPC   C4A38992  21.975  -0.788  14.484
 2255POPC   C1B38993  22.299  -1.242  14.783
 2255POPC   C2B38994  22.152  -1.117  14.731
 2255POPC   C3B38995  22.005  -0.992  14.678
 2255POPC   C4B38996  21.858  -0.867  14.626
 2256POPC   NC338997   4.999  15.362  26.509
 2256POPC   PO438998   5.051  15.314  26.322
 2256POPC   GL138999   5.103  15.266  26.135
 2256POPC   GL239000   5.160  15.348  26.130
 2256POPC   C1A39001   5.155  15.218  25.948
 2256POPC   D2A39002   5.207  15.169  25.761
 2256POPC   C3A39003   5.259  15.121  25.574
 2256POPC   C4A39004   5.311  15.073  25.387
 2256POPC   C1B39005   5.311  15.115  26.018
 2256POPC   C2B39006   5.363  15.066  25.831
 2256POPC   C3B39007   5.415  15.018  25.644
 2256POPC   C4B39008   5.467  14.970  25.457
 2257POPC   NC339009  18.647   1.532  -3.414
 2257POPC   PO439010  18.544   1.624  -3.269
 2257POPC   GL139011  18.441   1.716  -3.124
 2257POPC   GL239012  18.527   1.748  -3.084
 2257POPC   C1A39013  18.339   1.808  -2.979
 2257POPC   D2A39014  18.236   1.900  -2.834
 2257POPC   C3A39015  18.134   1.992  -2.689
 2257POPC   C4A39016  18.031   2.084  -2.544
 2257POPC   C1B39017  18.329   1.973  -3.091
 2257POPC   C2B39018  18.226   2.065  -2.946
 2257POPC   C3B39019  18.123   2.157  -2.801
 2257POPC   C4B39020  18.021   2.249  -2.656
 2258POPC   NC339021  24.672   0.517   5.865
 2258POPC   PO439022  24.508   0.623   5.907
 2258POPC   GL139023  24.344   0.729   5.949
 2258POPC   GL239024  24.361   0.787   5.870
 2258POPC   C1A39025  24.179   0.835   5.991
 2258POPC   D2A39026  24.015   0.940   6.034
 2258POPC   C3A39027  23.850   1.046   6.076
 2258POPC   C4A39028  23.686   1.152   6.118
 2258POPC   C1B39029  24.071   0.711   5.877
 2258POPC   C2B39030  23.906   0.817   5.919
 2258POPC   C3B39031  23.742   0.923   5.962
 2258POPC   C4B39032  23.577   1.029   6.004
 2259POPC   NC339033  18.444   1.065  -3.246
 2259POPC   PO439034  18.345   1.163  -3.103
 2259POPC   GL139035  18.246   1.261  -2.960
 2259POPC   GL239036  18.208   1.324  -3.028
 2259POPC   C1A39037  18.146   1.359  -2.817
 2259POPC   D2A39038  18.047   1.458  -2.673
 2259POPC   C3A39039  17.947   1.556  -2.530
 2259POPC   C4A39040  17.848   1.654  -2.387
 2259POPC   C1B39041  17.989   1.238  -2.842
 2259POPC   C2B39042  17.890   1.336  -2.699
 2259POPC   C3B39043  17.791   1.434  -2.556
 2259POPC   C4B39044  17.691   1.533  -2.413
 2260POPC   NC339045  12.259   7.292  -7.791
 2260POPC   PO439046  12.235   7.324  -7.595
 2260POPC   GL139047  12.211   7.356  -7.399
 2260POPC   GL239048  12.311   7.359  -7.387
 2260POPC   C1A39049  12.188   7.389  -7.203
 2260POPC   D2A39050  12.164   7.421  -7.007
 2260POPC   C3A39051  12.141   7.454  -6.811
 2260POPC   C4A39052  12.117   7.486  -6.615
 2260POPC   C1B39053  12.186   7.586  -7.236
 2260POPC   C2B39054  12.163   7.618  -7.040
 2260POPC   C3B39055  12.139   7.651  -6.844
 2260POPC   C4B39056  12.115   7.683  -6.648
 2261POPC   NC339057  13.870  17.030  26.002
 2261POPC   PO439058  13.829  16.952  25.822
 2261POPC   GL139059  13.788  16.874  25.642
 2261POPC   GL239060  13.853  16.800  25.659
 2261POPC   C1A39061  13.747  16.797  25.462
 2261POPC   D2A39062  13.707  16.719  25.283
 2261POPC   C3A39063  13.666  16.642  25.103
 2261POPC   C4A39064  13.625  16.564  24.923
 2261POPC   C1B39065  13.601  16.687  25.543
 2261POPC   C2B39066  13.560  16.609  25.363
 2261POPC   C3B39067  13.519  16.532  25.183
 2261POPC   C4B39068  13.479  16.454  25.004
 2262POPC   NC339069  16.622  10.313  -6.784
 2262POPC   PO439070  16.543  10.312  -6.600
 2262POPC   GL139071  16.464  10.311  -6.416
 2262POPC   GL239072  16.402  10.384  -6.442
 2262POPC   C1A39073  16.386  10.309  -6.232
 2262POPC   D2A39074  16.307  10.308  -6.048
 2262POPC   C3A39075  16.229  10.306  -5.864
 2262POPC   C4A39076  16.150  10.305  -5.680
 2262POPC   C1B39077  16.251  10.173  -6.290
 2262POPC   C2B39078  16.173  10.172  -6.106
 2262POPC   C3B39079  16.094  10.170  -5.922
 2262POPC   C4B39080  16.016  10.169  -5.738
 2263POPC   NC339081  13.680  25.806  17.741
 2263POPC   PO439082  13.637  25.632  17.653
 2263POPC   GL139083  13.594  25.458  17.565
 2263POPC   GL239084  13.675  25.416  17.608
 2263POPC   C1A39085  13.551  25.283  17.477
 2263POPC   D2A39086  13.509  25.109  17.390
 2263POPC   C3A39087  13.466  24.934  17.302
 2263POPC   C4A39088  13.423  24.760  17.214
 2263POPC   C1B39089  13.441  25.231  17.636
 2263POPC   C2B39090  13.398  25.056  17.548
 2263POPC   C3B39091  13.356  24.882  17.460
 2263POPC   C4B39092  13.313  24.707  17.372
 2264POPC   NC339093  18.478  18.775  -3.270
 2264POPC   PO439094  18.381  18.680  -3.123
 2264POPC   GL139095  18.284  18.585  -2.976
 2264POPC   GL239096  18.278  18.503  -3.033
 2264POPC   C1A39097  18.187  18.490  -2.829
 2264POPC   D2A39098  18.091  18.394  -2.683
 2264POPC   C3A39099  17.994  18.299  -2.536
 2264POPC   C4A39100  17.897  18.204  -2.389
 2264POPC   C1B39101  18.362  18.425  -2.756
 2264POPC   C2B39102  18.265  18.330  -2.609
 2264POPC   C3B39103  18.168  18.235  -2.463
 2264POPC   C4B39104  18.072  18.140  -2.316
 2265POPC   NC339105  -7.433   5.020  11.083
 2265POPC   PO439106  -7.241   5.075  11.068
 2265POPC   GL139107  -7.049   5.130  11.053
 2265POPC   GL239108  -7.021   5.042  11.090
 2265POPC   C1A39109  -6.858   5.186  11.039
 2265POPC   D2A39110  -6.666   5.241  11.024
 2265POPC   C3A39111  -6.475   5.297  11.010
 2265POPC   C4A39112  -6.283   5.352  10.995
 2265POPC   C1B39113  -6.851   5.112  10.853
 2265POPC   C2B39114  -6.659   5.167  10.839
 2265POPC   C3B39115  -6.467   5.222  10.824
 2265POPC   C4B39116  -6.276   5.278  10.809
 2266POPC   NC339117  10.263  -7.980   8.273
 2266POPC   PO439118  10.263  -7.781   8.287
 2266POPC   GL139119  10.263  -7.582   8.301
 2266POPC   GL239120  10.348  -7.578   8.248
 2266POPC   C1A39121  10.264  -7.382   8.316
 2266POPC   D2A39122  10.264  -7.183   8.330
 2266POPC   C3A39123  10.265  -6.983   8.345
 2266POPC   C4A39124  10.265  -6.784   8.359
 2266POPC   C1B39125  10.156  -7.370   8.148
 2266POPC   C2B39126  10.156  -7.170   8.162
 2266POPC   C3B39127  10.157  -6.971   8.177
 2266POPC   C4B39128  10.157  -6.772   8.191
 2267POPC   NC339129  17.731  -3.766  18.669
 2267POPC   PO439130  17.644  -3.615  18.571
 2267POPC   GL139131  17.557  -3.464  18.473
 2267POPC   GL239132  17.634  -3.460  18.410
 2267POPC   C1A39133  17.469  -3.313  18.375
 2267POPC   D2A39134  17.382  -3.163  18.277
 2267POPC   C3A39135  17.294  -3.012  18.179
 2267POPC   C4A39136  17.207  -2.861  18.081
 2267POPC   C1B39137  17.378  -3.444  18.254
 2267POPC   C2B39138  17.291  -3.294  18.156
 2267POPC   C3B39139  17.203  -3.143  18.058
 2267POPC   C4B39140  17.116  -2.992  17.960
 2268POPC   NC339141  -4.377   0.604   3.985
 2268POPC   PO439142  -4.217   0.709   4.044
 2268POPC   GL139143  -4.057   0.814   4.103
 2268POPC   GL239144  -4.055   0.763   4.189
 2268POPC   C1A39145  -3.898   0.920   4.162
 2268POPC   D2A39146  -3.738   1.025   4.220
 2268POPC   C3A39147  -3.579   1.131   4.279
 2268POPC   C4A39148  -3.419   1.236   4.338
 2268POPC   C1B39149  -3.777   0.784   4.078
 2268POPC   C2B39150  -3.618   0.889   4.137
 2268POPC   C3B39151  -3.458   0.994   4.196
 2268POPC   C4B39152  -3.298   1.100   4.255
 2269POPC   NC339153  -5.727   1.125   8.049
 2269POPC   PO439154  -5.552   1.220   8.071
 2269POPC   GL139155  -5.377   1.315   8.093
 2269POPC   GL239156  -5.420   1.378   8.158
 2269POPC   C1A39157  -5.203   1.410   8.116
 2269POPC   D2A39158  -5.028   1.505   8.138
 2269POPC   C3A39159  -4.854   1.600   8.161
 2269POPC   C4A39160  -4.679   1.695   8.183
 2269POPC   C1B39161  -5.155   1.287   8.266
 2269POPC   C2B39162  -4.981   1.382   8.289
 2269POPC   C3B39163  -4.806   1.477   8.311
 2269POPC   C4B39164  -4.632   1.572   8.334
 2270POPC   NC339165  26.796   4.464  12.833
 2270POPC   PO439166  26.608   4.525  12.801
 2270POPC   GL139167  26.420   4.586  12.769
 2270POPC   GL239168  26.448   4.680  12.787
 2270POPC   C1A39169  26.232   4.647  12.737
 2270POPC   D2A39170  26.045   4.708  12.705
 2270POPC   C3A39171  25.857   4.769  12.673
 2270POPC   C4A39172  25.669   4.830  12.641
 2270POPC   C1B39173  26.273   4.672  12.543
 2270POPC   C2B39174  26.086   4.733  12.511
 2270POPC   C3B39175  25.898   4.794  12.479
 2270POPC   C4B39176  25.710   4.855  12.447
 2271POPC   NC339177  16.550  26.690  10.571
 2271POPC   PO439178  16.470  26.507  10.565
 2271POPC   GL139179  16.390  26.324  10.559
 2271POPC   GL239180  16.477  26.287  10.525
 2271POPC   C1A39181  16.310  26.141  10.554
 2271POPC   D2A39182  16.230  25.957  10.548
 2271POPC   C3A39183  16.150  25.774  10.543
 2271POPC   C4A39184  16.070  25.591  10.537
 2271POPC   C1B39185  16.370  26.109  10.742
 2271POPC   C2B39186  16.290  25.925  10.736
 2271POPC   C3B39187  16.210  25.742  10.731
 2271POPC   C4B39188  16.130  25.559  10.725
 2272POPC   NC339189   6.996  27.740   8.220
 2272POPC   PO439190   7.023  27.543   8.239
 2272POPC   GL139191   7.050  27.346   8.258
 2272POPC   GL239192   7.095  27.360   8.346
 2272POPC   C1A39193   7.078  27.149   8.277
 2272POPC   D2A39194   7.105  26.951   8.296
 2272POPC   C3A39195   7.133  26.754   8.315
 2272POPC   C4A39196   7.160  26.557   8.334
 2272POPC   C1B39197   6.901  27.133   8.369
 2272POPC   C2B39198   6.928  26.936   8.388
 2272POPC   C3B39199   6.956  26.738   8.407
 2272POPC   C4B39200   6.983  26.541   8.426
 2273POPC   NC339201   8.242  24.987  19.893
 2273POPC   PO439202   8.261  24.822  19.782
 2273POPC   GL139203   8.280  24.657  19.671
 2273POPC   GL239204   8.379  24.658  19.686
 2273POPC   C1A39205   8.300  24.491  19.561
 2273POPC   D2A39206   8.319  24.326  19.450
 2273POPC   C3A39207   8.339  24.160  19.340
 2273POPC   C4A39208   8.358  23.995  19.229
 2273POPC   C1B39209   8.277  24.379  19.725
 2273POPC   C2B39210   8.296  24.214  19.614
 2273POPC   C3B39211   8.316  24.048  19.504
 2273POPC   C4B39212   8.335  23.883  19.393
 2274POPC   NC339213  24.383   9.289  -0.674
 2274POPC   PO439214  24.222   9.293  -0.556
 2274POPC   GL139215  24.061   9.297  -0.438
 2274POPC   GL239216  24.011   9.241  -0.504
 2274POPC   C1A39217  23.900   9.300  -0.319
 2274POPC   D2A39218  23.739   9.304  -0.201
 2274POPC   C3A39219  23.578   9.307  -0.082
 2274POPC   C4A39220  23.417   9.311   0.036
 2274POPC   C1B39221  23.964   9.134  -0.228
 2274POPC   C2B39222  23.803   9.138  -0.109
 2274POPC   C3B39223  23.642   9.141   0.009
 2274POPC   C4B39224  23.481   9.145   0.128
 2275POPC   NC339225   2.452   5.762  25.866
 2275POPC   PO439226   2.536   5.812  25.691
 2275POPC   GL139227   2.620   5.862  25.516
 2275POPC   GL239228   2.666   5.773  25.514
 2275POPC   C1A39229   2.704   5.911  25.342
 2275POPC   D2A39230   2.788   5.961  25.167
 2275POPC   C3A39231   2.872   6.010  24.993
 2275POPC   C4A39232   2.956   6.060  24.818
 2275POPC   C1B39233   2.548   5.833  25.244
 2275POPC   C2B39234   2.632   5.882  25.070
 2275POPC   C3B39235   2.716   5.932  24.895
 2275POPC   C4B39236   2.800   5.981  24.721
 2276POPC   NC339237  11.798  -4.285  20.731
 2276POPC   PO439238  11.772  -4.132  20.605
 2276POPC   GL139239  11.746  -3.979  20.479
 2276POPC   GL239240  11.763  -4.039  20.402
 2276POPC   C1A39241  11.720  -3.825  20.353
 2276POPC   D2A39242  11.694  -3.672  20.228
 2276POPC   C3A39243  11.668  -3.518  20.102
 2276POPC   C4A39244  11.642  -3.365  19.976
 2276POPC   C1B39245  11.525  -3.867  20.342
 2276POPC   C2B39246  11.499  -3.714  20.217
 2276POPC   C3B39247  11.473  -3.560  20.091
 2276POPC   C4B39248  11.447  -3.407  19.965
 2277POPC   NC339249  26.537   3.060  10.483
 2277POPC   PO439250  26.352   3.136  10.475
 2277POPC   GL139251  26.167   3.212  10.467
 2277POPC   GL239252  26.185   3.247  10.376
 2277POPC   C1A39253  25.982   3.288  10.460
 2277POPC   D2A39254  25.798   3.365  10.452
 2277POPC   C3A39255  25.613   3.441  10.445
 2277POPC   C4A39256  25.428   3.517  10.437
 2277POPC   C1B39257  25.915   3.117  10.381
 2277POPC   C2B39258  25.730   3.194  10.373
 2277POPC   C3B39259  25.546   3.270  10.366
 2277POPC   C4B39260  25.361   3.346  10.358
 2278POPC   NC339261   2.144  -0.388  22.581
 2278POPC   PO439262   2.234  -0.275  22.443
 2278POPC   GL139263   2.324  -0.162  22.305
 2278POPC   GL239264   2.373  -0.112  22.378
 2278POPC   C1A39265   2.415  -0.048  22.168
 2278POPC   D2A39266   2.505   0.065  22.030
 2278POPC   C3A39267   2.596   0.179  21.893
 2278POPC   C4A39268   2.686   0.292  21.755
 2278POPC   C1B39269   2.565  -0.180  22.157
 2278POPC   C2B39270   2.655  -0.067  22.020
 2278POPC   C3B39271   2.745   0.047  21.882
 2278POPC   C4B39272   2.836   0.160  21.745
 2279POPC   NC339273  -3.187   9.448  22.378
 2279POPC   PO439274  -3.042   9.449  22.241
 2279POPC   GL139275  -2.897   9.450  22.104
 2279POPC   GL239276  -2.830   9.472  22.175
 2279POPC   C1A39277  -2.751   9.451  21.966
 2279POPC   D2A39278  -2.606   9.453  21.829
 2279POPC   C3A39279  -2.460   9.454  21.691
 2279POPC   C4A39280  -2.315   9.455  21.554
 2279POPC   C1B39281  -2.720   9.256  21.997
 2279POPC   C2B39282  -2.575   9.257  21.860
 2279POPC   C3B39283  -2.430   9.259  21.722
 2279POPC   C4B39284  -2.284   9.260  21.585
 2280POPC   NC339285   5.757  -1.131  -3.691
 2280POPC   PO439286   5.803  -1.007  -3.541
 2280POPC   GL139287   5.849  -0.883  -3.391
 2280POPC   GL239288   5.797  -0.940  -3.328
 2280POPC   C1A39289   5.895  -0.758  -3.241
 2280POPC   D2A39290   5.941  -0.634  -3.092
 2280POPC   C3A39291   5.987  -0.509  -2.942
 2280POPC   C4A39292   6.033  -0.385  -2.792
 2280POPC   C1B39293   6.060  -0.865  -3.203
 2280POPC   C2B39294   6.106  -0.741  -3.053
 2280POPC   C3B39295   6.152  -0.616  -2.903
 2280POPC   C4B39296   6.198  -0.492  -2.754
 2281POPC   NC339297   3.462  -3.337  20.321
 2281POPC   PO439298   3.532  -3.189  20.205
 2281POPC   GL139299   3.602  -3.041  20.089
 2281POPC   GL239300   3.675  -3.101  20.057
 2281POPC   C1A39301   3.672  -2.894  19.974
 2281POPC   D2A39302   3.741  -2.746  19.858
 2281POPC   C3A39303   3.811  -2.599  19.743
 2281POPC   C4A39304   3.881  -2.451  19.627
 2281POPC   C1B39305   3.555  -2.956  19.824
 2281POPC   C2B39306   3.625  -2.809  19.708
 2281POPC   C3B39307   3.695  -2.661  19.592
 2281POPC   C4B39308   3.765  -2.514  19.477
 2282POPC   NC339309  -0.604  10.791  -4.669
 2282POPC   PO439310  -0.487  10.781  -4.507
 2282POPC   GL139311  -0.370  10.771  -4.345
 2282POPC   GL239312  -0.433  10.832  -4.296
 2282POPC   C1A39313  -0.254  10.760  -4.183
 2282POPC   D2A39314  -0.137  10.750  -4.020
 2282POPC   C3A39315  -0.021  10.739  -3.858
 2282POPC   C4A39316   0.096  10.729  -3.696
 2282POPC   C1B39317  -0.358  10.603  -4.118
 2282POPC   C2B39318  -0.242  10.592  -3.955
 2282POPC   C3B39319  -0.125  10.582  -3.793
 2282POPC   C4B39320  -0.008  10.571  -3.631
 2283POPC   NC339321   5.169  -6.766   5.128
 2283POPC   PO439322   5.220  -6.581   5.183
 2283POPC   GL139323   5.271  -6.396   5.238
 2283POPC   GL239324   5.345  -6.433   5.294
 2283POPC   C1A39325   5.322  -6.210   5.292
 2283POPC   D2A39326   5.374  -6.025   5.347
 2283POPC   C3A39327   5.425  -5.839   5.401
 2283POPC   C4A39328   5.476  -5.654   5.456
 2283POPC   C1B39329   5.447  -6.199   5.136
 2283POPC   C2B39330   5.498  -6.013   5.191
 2283POPC   C3B39331   5.550  -5.828   5.246
 2283POPC   C4B39332   5.601  -5.643   5.300
 2284POPC   NC339333  25.697   1.310  10.174
 2284POPC   PO439334  25.522   1.407  10.173
 2284POPC   GL139335  25.347   1.504  10.172
 2284POPC   GL239336  25.394   1.589  10.150
 2284POPC   C1A39337  25.172   1.601  10.172
 2284POPC   D2A39338  24.997   1.697  10.171
 2284POPC   C3A39339  24.822   1.794  10.171
 2284POPC   C4A39340  24.647   1.891  10.170
 2284POPC   C1B39341  25.151   1.561   9.977
 2284POPC   C2B39342  24.976   1.658   9.976
 2284POPC   C3B39343  24.801   1.755   9.976
 2284POPC   C4B39344  24.626   1.852   9.975
 2285POPC   NC339345  10.141  11.593  27.929
 2285POPC   PO439346  10.140  11.573  27.730
 2285POPC   GL139347  10.139  11.553  27.531
 2285POPC   GL239348  10.186  11.465  27.540
 2285POPC   C1A39349  10.139  11.533  27.332
 2285POPC   D2A39350  10.138  11.513  27.133
 2285POPC   C3A39351  10.138  11.493  26.934
 2285POPC   C4A39352  10.137  11.473  26.735
 2285POPC   C1B39353   9.961  11.441  27.342
 2285POPC   C2B39354   9.961  11.421  27.143
 2285POPC   C3B39355   9.960  11.401  26.944
 2285POPC   C4B39356   9.959  11.381  26.745
 2286POPC   NC339357  14.258   0.387  -4.719
 2286POPC   PO439358  14.215   0.496  -4.557
 2286POPC   GL139359  14.172   0.605  -4.395
 2286POPC   GL239360  14.267   0.634  -4.389
 2286POPC   C1A39361  14.129   0.714  -4.233
 2286POPC   D2A39362  14.085   0.824  -4.072
 2286POPC   C3A39363  14.042   0.933  -3.910
 2286POPC   C4A39364  13.999   1.042  -3.748
 2286POPC   C1B39365  14.088   0.872  -4.350
 2286POPC   C2B39366  14.045   0.981  -4.188
 2286POPC   C3B39367  14.002   1.090  -4.027
 2286POPC   C4B39368  13.959   1.199  -3.865
 2287POPC   NC339369  18.020  -5.638  13.776
 2287POPC   PO439370  17.929  -5.465  13.734
 2287POPC   GL139371  17.838  -5.292  13.692
 2287POPC   GL239372  17.889  -5.247  13.765
 2287POPC   C1A39373  17.746  -5.119  13.650
 2287POPC   D2A39374  17.655  -4.946  13.609
 2287POPC   C3A39375  17.563  -4.773  13.567
 2287POPC   C4A39376  17.472  -4.600  13.525
 2287POPC   C1B39377  17.891  -5.074  13.521
 2287POPC   C2B39378  17.800  -4.901  13.479
 2287POPC   C3B39379  17.709  -4.728  13.437
 2287POPC   C4B39380  17.617  -4.555  13.395
 2288POPC   NC339381  11.973  18.253  25.810
 2288POPC   PO439382  11.945  18.167  25.632
 2288POPC   GL139383  11.917  18.081  25.454
 2288POPC   GL239384  12.016  18.079  25.439
 2288POPC   C1A39385  11.889  17.994  25.276
 2288POPC   D2A39386  11.860  17.908  25.097
 2288POPC   C3A39387  11.832  17.821  24.919
 2288POPC   C4A39388  11.804  17.735  24.741
 2288POPC   C1B39389  11.900  17.814  25.361
 2288POPC   C2B39390  11.871  17.727  25.183
 2288POPC   C3B39391  11.843  17.641  25.005
 2288POPC   C4B39392  11.815  17.555  24.827
 2289POPC   NC339393  -2.535  22.329  14.444
 2289POPC   PO439394  -2.396  22.195  14.392
 2289POPC   GL139395  -2.257  22.061  14.340
 2289POPC   GL239396  -2.286  22.002  14.415
 2289POPC   C1A39397  -2.118  21.927  14.288
 2289POPC   D2A39398  -1.979  21.793  14.236
 2289POPC   C3A39399  -1.840  21.659  14.184
 2289POPC   C4A39400  -1.701  21.525  14.132
 2289POPC   C1B39401  -2.249  21.838  14.166
 2289POPC   C2B39402  -2.110  21.704  14.114
 2289POPC   C3B39403  -1.971  21.570  14.062
 2289POPC   C4B39404  -1.832  21.436  14.010
 2290POPC   NC339405  26.226   7.375   2.740
 2290POPC   PO439406  26.045   7.402   2.821
 2290POPC   GL139407  25.864   7.429   2.902
 2290POPC   GL239408  25.881   7.528   2.906
 2290POPC   C1A39409  25.683   7.456   2.983
 2290POPC   D2A39410  25.503   7.484   3.065
 2290POPC   C3A39411  25.322   7.511   3.146
 2290POPC   C4A39412  25.141   7.538   3.227
 2290POPC   C1B39413  25.604   7.476   2.801
 2290POPC   C2B39414  25.423   7.503   2.882
 2290POPC   C3B39415  25.243   7.530   2.963
 2290POPC   C4B39416  25.062   7.558   3.044
 2291POPC   NC339417  22.760   1.871  19.630
 2291POPC   PO439418  22.621   1.957  19.515
 2291POPC   GL139419  22.482   2.043  19.400
 2291POPC   GL239420  22.536   2.023  19.319
 2291POPC   C1A39421  22.342   2.129  19.286
 2291POPC   D2A39422  22.203   2.216  19.171
 2291POPC   C3A39423  22.063   2.302  19.057
 2291POPC   C4A39424  21.924   2.388  18.942
 2291POPC   C1B39425  22.249   1.953  19.266
 2291POPC   C2B39426  22.110   2.039  19.151
 2291POPC   C3B39427  21.971   2.126  19.037
 2291POPC   C4B39428  21.831   2.212  18.922
 2292POPC   NC339429  14.387  -5.456  18.149
 2292POPC   PO439430  14.333  -5.285  18.060
 2292POPC   GL139431  14.279  -5.114  17.971
 2292POPC   GL239432  14.371  -5.077  17.988
 2292POPC   C1A39433  14.226  -4.943  17.883
 2292POPC   D2A39434  14.172  -4.772  17.794
 2292POPC   C3A39435  14.119  -4.601  17.706
 2292POPC   C4A39436  14.065  -4.430  17.617
 2292POPC   C1B39437  14.288  -5.015  17.707
 2292POPC   C2B39438  14.234  -4.844  17.618
 2292POPC   C3B39439  14.181  -4.673  17.530
 2292POPC   C4B39440  14.127  -4.502  17.441
 2293POPC   NC339441  20.980   4.036  -2.938
 2293POPC   PO439442  20.857   4.106  -2.797
 2293POPC   GL139443  20.734   4.176  -2.656
 2293POPC   GL239444  20.800   4.247  -2.633
 2293POPC   C1A39445  20.611   4.246  -2.515
 2293POPC   D2A39446  20.487   4.315  -2.373
 2293POPC   C3A39447  20.364   4.385  -2.232
 2293POPC   C4A39448  20.241   4.455  -2.091
 2293POPC   C1B39449  20.527   4.368  -2.648
 2293POPC   C2B39450  20.403   4.438  -2.507
 2293POPC   C3B39451  20.280   4.508  -2.366
 2293POPC   C4B39452  20.157   4.578  -2.225
 2294POPC   NC339453   5.683   7.085  27.247
 2294POPC   PO439454   5.727   7.118  27.055
 2294POPC   GL139455   5.771   7.151  26.863
 2294POPC   GL239456   5.867   7.133  26.881
 2294POPC   C1A39457   5.814   7.184  26.670
 2294POPC   D2A39458   5.858   7.217  26.478
 2294POPC   C3A39459   5.901   7.250  26.285
 2294POPC   C4A39460   5.945   7.283  26.093
 2294POPC   C1B39461   5.785   6.990  26.630
 2294POPC   C2B39462   5.829   7.023  26.438
 2294POPC   C3B39463   5.872   7.056  26.246
 2294POPC   C4B39464   5.916   7.089  26.053
 2295POPC   NC339465  -7.015   5.355  14.277
 2295POPC   PO439466  -6.827   5.407  14.232
 2295POPC   GL139467  -6.639   5.459  14.187
 2295POPC   GL239468  -6.618   5.467  14.285
 2295POPC   C1A39469  -6.451   5.512  14.142
 2295POPC   D2A39470  -6.264   5.564  14.098
 2295POPC   C3A39471  -6.076   5.617  14.053
 2295POPC   C4A39472  -5.888   5.669  14.008
 2295POPC   C1B39473  -6.397   5.319  14.146
 2295POPC   C2B39474  -6.209   5.372  14.102
 2295POPC   C3B39475  -6.021   5.424  14.057
 2295POPC   C4B39476  -5.833   5.477  14.012
 2296POPC   NC339477   9.827  -7.474  14.667
 2296POPC   PO439478   9.825  -7.280  14.620
 2296POPC   GL139479   9.823  -7.086  14.573
 2296POPC   GL239480   9.920  -7.079  14.595
 2296POPC   C1A39481   9.821  -6.892  14.525
 2296POPC   D2A39482   9.818  -6.697  14.478
 2296POPC   C3A39483   9.816  -6.503  14.430
 2296POPC   C4A39484   9.814  -6.309  14.383
 2296POPC   C1B39485   9.868  -6.937  14.336
 2296POPC   C2B39486   9.865  -6.743  14.289
 2296POPC   C3B39487   9.863  -6.549  14.241
 2296POPC   C4B39488   9.861  -6.355  14.194
 2297POPC   NC339489  10.427  27.344   5.003
 2297POPC   PO439490  10.418  27.151   5.055
 2297POPC   GL139491  10.409  26.958   5.107
 2297POPC   GL239492  10.441  26.981   5.199
 2297POPC   C1A39493  10.400  26.765   5.159
 2297POPC   D2A39494  10.390  26.573   5.212
 2297POPC   C3A39495  10.381  26.380   5.264
 2297POPC   C4A39496  10.372  26.187   5.316
 2297POPC   C1B39497  10.211  26.791   5.220
 2297POPC   C2B39498  10.201  26.598   5.272
 2297POPC   C3B39499  10.192  26.405   5.324
 2297POPC   C4B39500  10.183  26.212   5.376
 2298POPC   NC339501  -6.199  18.046  11.823
 2298POPC   PO439502  -6.021  17.958  11.801
 2298POPC   GL139503  -5.843  17.870  11.779
 2298POPC   GL239504  -5.846  17.839  11.874
 2298POPC   C1A39505  -5.665  17.782  11.757
 2298POPC   D2A39506  -5.486  17.693  11.734
 2298POPC   C3A39507  -5.308  17.605  11.712
 2298POPC   C4A39508  -5.130  17.517  11.690
 2298POPC   C1B39509  -5.755  17.613  11.698
 2298POPC   C2B39510  -5.577  17.525  11.676
 2298POPC   C3B39511  -5.399  17.437  11.654
 2298POPC   C4B39512  -5.221  17.349  11.632
 2299POPC   NC339513  10.799  24.068  -1.301
 2299POPC   PO439514  10.792  23.912  -1.176
 2299POPC   GL139515  10.785  23.756  -1.051
 2299POPC   GL239516  10.867  23.790  -1.004
 2299POPC   C1A39517  10.778  23.600  -0.926
 2299POPC   D2A39518  10.772  23.445  -0.800
 2299POPC   C3A39519  10.765  23.289  -0.675
 2299POPC   C4A39520  10.758  23.133  -0.550
 2299POPC   C1B39521  10.663  23.706  -0.801
 2299POPC   C2B39522  10.656  23.550  -0.676
 2299POPC   C3B39523  10.649  23.394  -0.550
 2299POPC   C4B39524  10.642  23.238  -0.425
 2300POPC   NC339525   6.196  25.493  18.459
 2300POPC   PO439526   6.236  25.321  18.366
 2300POPC   GL139527   6.276  25.149  18.273
 2300POPC   GL239528   6.374  25.163  18.289
 2300POPC   C1A39529   6.316  24.976  18.180
 2300POPC   D2A39530   6.357  24.804  18.086
 2300POPC   C3A39531   6.397  24.631  17.993
 2300POPC   C4A39532   6.437  24.459  17.900
 2300POPC   C1B39533   6.301  24.879  18.354
 2300POPC   C2B39534   6.342  24.706  18.260
 2300POPC   C3B39535   6.382  24.534  18.167
 2300POPC   C4B39536   6.422  24.361  18.074
 2301POPC   NC339537   2.519  -4.610  17.657
 2301POPC   PO439538   2.600  -4.449  17.571
 2301POPC   GL139539   2.681  -4.288  17.485
 2301POPC   GL239540   2.756  -4.290  17.550
 2301POPC   C1A39541   2.761  -4.126  17.398
 2301POPC   D2A39542   2.842  -3.965  17.312
 2301POPC   C3A39543   2.922  -3.803  17.225
 2301POPC   C4A39544   3.003  -3.642  17.139
 2301POPC   C1B39545   2.865  -4.244  17.274
 2301POPC   C2B39546   2.945  -4.083  17.188
 2301POPC   C3B39547   3.026  -3.921  17.101
 2301POPC   C4B39548   3.106  -3.760  17.015
 2302POPC   NC339549  10.046   2.946  -6.656
 2302POPC   PO439550  10.046   3.021  -6.471
 2302POPC   GL139551  10.046   3.096  -6.286
 2302POPC   GL239552  10.117   3.161  -6.312
 2302POPC   C1A39553  10.047   3.171  -6.100
 2302POPC   D2A39554  10.047   3.245  -5.915
 2302POPC   C3A39555  10.048   3.320  -5.729
 2302POPC   C4A39556  10.048   3.395  -5.544
 2302POPC   C1B39557   9.906   3.302  -6.153
 2302POPC   C2B39558   9.906   3.377  -5.967
 2302POPC   C3B39559   9.906   3.452  -5.782
 2302POPC   C4B39560   9.907   3.526  -5.597
 2303POPC   NC339561  -3.804   0.881  17.467
 2303POPC   PO439562  -3.652   0.983  17.386
 2303POPC   GL139563  -3.500   1.085  17.305
 2303POPC   GL239564  -3.453   0.999  17.284
 2303POPC   C1A39565  -3.348   1.187  17.223
 2303POPC   D2A39566  -3.197   1.288  17.142
 2303POPC   C3A39567  -3.045   1.390  17.060
 2303POPC   C4A39568  -2.893   1.492  16.979
 2303POPC   C1B39569  -3.439   1.179  17.045
 2303POPC   C2B39570  -3.287   1.281  16.964
 2303POPC   C3B39571  -3.135   1.382  16.882
 2303POPC   C4B39572  -2.983   1.484  16.801
 2304POPC   NC339573  -1.687   4.297  -2.727
 2304POPC   PO439574  -1.563   4.364  -2.586
 2304POPC   GL139575  -1.439   4.431  -2.445
 2304POPC   GL239576  -1.482   4.370  -2.378
 2304POPC   C1A39577  -1.314   4.498  -2.303
 2304POPC   D2A39578  -1.190   4.566  -2.162
 2304POPC   C3A39579  -1.065   4.633  -2.020
 2304POPC   C4A39580  -0.941   4.700  -1.879
 2304POPC   C1B39581  -1.183   4.354  -2.350
 2304POPC   C2B39582  -1.059   4.422  -2.208
 2304POPC   C3B39583  -0.935   4.489  -2.067
 2304POPC   C4B39584  -0.810   4.556  -1.926
 2305POPC   NC339585  13.844  -7.588   8.285
 2305POPC   PO439586  13.796  -7.395   8.304
 2305POPC   GL139587  13.748  -7.202   8.323
 2305POPC   GL239588  13.791  -7.200   8.413
 2305POPC   C1A39589  13.700  -7.009   8.342
 2305POPC   D2A39590  13.651  -6.815   8.360
 2305POPC   C3A39591  13.603  -6.622   8.379
 2305POPC   C4A39592  13.555  -6.429   8.398
 2305POPC   C1B39593  13.873  -6.957   8.257
 2305POPC   C2B39594  13.825  -6.764   8.275
 2305POPC   C3B39595  13.777  -6.571   8.294
 2305POPC   C4B39596  13.729  -6.377   8.313
 2306POPC   NC339597   0.242  22.460   1.194
 2306POPC   PO439598   0.348  22.318   1.287
 2306POPC   GL139599   0.454  22.176   1.380
 2306POPC   GL239600   0.521  22.245   1.408
 2306POPC   C1A39601   0.560  22.034   1.473
 2306POPC   D2A39602   0.665  21.892   1.566
 2306POPC   C3A39603   0.771  21.750   1.659
 2306POPC   C4A39604   0.877  21.608   1.752
 2306POPC   C1B39605   0.455  22.066   1.641
 2306POPC   C2B39606   0.561  21.924   1.734
 2306POPC   C3B39607   0.667  21.782   1.827
 2306POPC   C4B39608   0.773  21.640   1.920
 2307POPC   NC339609   6.381   9.144  -7.753
 2307POPC   PO439610   6.419   9.153  -7.557
 2307POPC   GL139611   6.457   9.162  -7.361
 2307POPC   GL239612   6.360   9.178  -7.343
 2307POPC   C1A39613   6.495   9.171  -7.165
 2307POPC   D2A39614   6.533   9.180  -6.968
 2307POPC   C3A39615   6.571   9.189  -6.772
 2307POPC   C4A39616   6.609   9.198  -6.576
 2307POPC   C1B39617   6.466   8.974  -7.150
 2307POPC   C2B39618   6.504   8.983  -6.954
 2307POPC   C3B39619   6.542   8.992  -6.757
 2307POPC   C4B39620   6.580   9.001  -6.561
 2308POPC   NC339621  -4.731  20.650   8.843
 2308POPC   PO439622  -4.571  20.531   8.853
 2308POPC   GL139623  -4.411  20.412   8.863
 2308POPC   GL239624  -4.352  20.489   8.841
 2308POPC   C1A39625  -4.251  20.293   8.873
 2308POPC   D2A39626  -4.090  20.173   8.882
 2308POPC   C3A39627  -3.930  20.054   8.892
 2308POPC   C4A39628  -3.770  19.935   8.902
 2308POPC   C1B39629  -4.232  20.334   9.067
 2308POPC   C2B39630  -4.072  20.214   9.077
 2308POPC   C3B39631  -3.912  20.095   9.087
 2308POPC   C4B39632  -3.751  19.976   9.097
 2309POPC   NC339633  10.454  24.698  -0.487
 2309POPC   PO439634  10.451  24.537  -0.369
 2309POPC   GL139635  10.448  24.376  -0.251
 2309POPC   GL239636  10.457  24.317  -0.331
 2309POPC   C1A39637  10.445  24.214  -0.133
 2309POPC   D2A39638  10.441  24.053  -0.015
 2309POPC   C3A39639  10.438  23.891   0.103
 2309POPC   C4A39640  10.435  23.730   0.221
 2309POPC   C1B39641  10.644  24.223  -0.116
 2309POPC   C2B39642  10.640  24.062   0.002
 2309POPC   C3B39643  10.637  23.900   0.120
 2309POPC   C4B39644  10.634  23.739   0.238
 2310POPC   NC339645   9.614  22.020  -3.466
 2310POPC   PO439646   9.616  21.887  -3.317
 2310POPC   GL139647   9.618  21.754  -3.168
 2310POPC   GL239648   9.662  21.821  -3.108
 2310POPC   C1A39649   9.621  21.621  -3.019
 2310POPC   D2A39650   9.623  21.487  -2.869
 2310POPC   C3A39651   9.626  21.354  -2.720
 2310POPC   C4A39652   9.628  21.221  -2.571
 2310POPC   C1B39653   9.441  21.684  -2.959
 2310POPC   C2B39654   9.443  21.551  -2.810
 2310POPC   C3B39655   9.445  21.418  -2.661
 2310POPC   C4B39656   9.448  21.284  -2.512
 2311POPC   NC339657  13.244  23.747  21.046
 2311POPC   PO439658  13.208  23.593  20.923
 2311POPC   GL139659  13.172  23.439  20.800
 2311POPC   GL239660  13.215  23.377  20.865
 2311POPC   C1A39661  13.135  23.286  20.678
 2311POPC   D2A39662  13.099  23.132  20.555
 2311POPC   C3A39663  13.062  22.979  20.433
 2311POPC   C4A39664  13.026  22.825  20.310
 2311POPC   C1B39665  12.959  23.256  20.768
 2311POPC   C2B39666  12.923  23.102  20.645
 2311POPC   C3B39667  12.886  22.949  20.522
 2311POPC   C4B39668  12.850  22.795  20.400
 2312POPC   NC339669  -1.294  17.517  21.899
 2312POPC   PO439670  -1.173  17.435  21.763
 2312POPC   GL139671  -1.052  17.353  21.627
 2312POPC   GL239672  -0.973  17.393  21.673
 2312POPC   C1A39673  -0.930  17.271  21.491
 2312POPC   D2A39674  -0.809  17.188  21.355
 2312POPC   C3A39675  -0.687  17.106  21.219
 2312POPC   C4A39676  -0.566  17.024  21.083
 2312POPC   C1B39677  -0.914  17.107  21.604
 2312POPC   C2B39678  -0.792  17.025  21.468
 2312POPC   C3B39679  -0.671  16.942  21.332
 2312POPC   C4B39680  -0.550  16.860  21.196
 2313POPC   NC339681  20.935  -1.685  18.127
 2313POPC   PO439682  20.813  -1.556  18.035
 2313POPC   GL139683  20.691  -1.427  17.943
 2313POPC   GL239684  20.765  -1.361  17.936
 2313POPC   C1A39685  20.569  -1.299  17.850
 2313POPC   D2A39686  20.446  -1.170  17.758
 2313POPC   C3A39687  20.324  -1.042  17.665
 2313POPC   C4A39688  20.202  -0.913  17.573
 2313POPC   C1B39689  20.622  -1.375  17.673
 2313POPC   C2B39690  20.500  -1.246  17.581
 2313POPC   C3B39691  20.378  -1.118  17.488
 2313POPC   C4B39692  20.256  -0.989  17.396
 2314POPC   NC339693   6.453  18.614  -5.589
 2314POPC   PO439694   6.491  18.522  -5.415
 2314POPC   GL139695   6.529  18.430  -5.241
 2314POPC   GL239696   6.618  18.400  -5.277
 2314POPC   C1A39697   6.568  18.338  -5.068
 2314POPC   D2A39698   6.606  18.247  -4.894
 2314POPC   C3A39699   6.645  18.155  -4.721
 2314POPC   C4A39700   6.683  18.063  -4.547
 2314POPC   C1B39701   6.653  18.506  -4.998
 2314POPC   C2B39702   6.691  18.414  -4.825
 2314POPC   C3B39703   6.729  18.322  -4.651
 2314POPC   C4B39704   6.768  18.230  -4.477
 2315POPC   NC339705  15.701  26.383  14.733
 2315POPC   PO439706  15.634  26.202  14.679
 2315POPC   GL139707  15.567  26.021  14.625
 2315POPC   GL239708  15.653  26.004  14.577
 2315POPC   C1A39709  15.501  25.841  14.570
 2315POPC   D2A39710  15.434  25.660  14.516
 2315POPC   C3A39711  15.368  25.480  14.461
 2315POPC   C4A39712  15.301  25.299  14.407
 2315POPC   C1B39713  15.578  25.762  14.737
 2315POPC   C2B39714  15.511  25.582  14.683
 2315POPC   C3B39715  15.445  25.401  14.628
 2315POPC   C4B39716  15.378  25.220  14.574
 2316POPC   NC339717   2.204   0.947  -3.632
 2316POPC   PO439718   2.292   1.049  -3.484
 2316POPC   GL139719   2.380   1.151  -3.336
 2316POPC   GL239720   2.323   1.104  -3.269
 2316POPC   C1A39721   2.469   1.253  -3.189
 2316POPC   D2A39722   2.557   1.356  -3.041
 2316POPC   C3A39723   2.646   1.458  -2.894
 2316POPC   C4A39724   2.734   1.560  -2.746
 2316POPC   C1B39725   2.607   1.110  -3.172
 2316POPC   C2B39726   2.695   1.212  -3.024
 2316POPC   C3B39727   2.784   1.314  -2.877
 2316POPC   C4B39728   2.872   1.416  -2.729
 2317POPC   NC339729   0.483  16.970  -3.817
 2317POPC   PO439730   0.586  16.895  -3.663
 2317POPC   GL139731   0.689  16.820  -3.509
 2317POPC   GL239732   0.643  16.883  -3.447
 2317POPC   C1A39733   0.792  16.745  -3.355
 2317POPC   D2A39734   0.895  16.669  -3.201
 2317POPC   C3A39735   0.998  16.594  -3.047
 2317POPC   C4A39736   1.101  16.519  -2.893
 2317POPC   C1B39737   0.648  16.609  -3.325
 2317POPC   C2B39738   0.751  16.534  -3.171
 2317POPC   C3B39739   0.854  16.459  -3.017
 2317POPC   C4B39740   0.957  16.384  -2.863
 2318POPC   NC339741   4.639  -3.143  -1.299
 2318POPC   PO439742   4.699  -2.999  -1.174
 2318POPC   GL139743   4.759  -2.855  -1.049
 2318POPC   GL239744   4.783  -2.924  -0.981
 2318POPC   C1A39745   4.819  -2.711  -0.924
 2318POPC   D2A39746   4.879  -2.568  -0.798
 2318POPC   C3A39747   4.939  -2.424  -0.673
 2318POPC   C4A39748   4.999  -2.280  -0.548
 2318POPC   C1B39749   5.004  -2.722  -1.000
 2318POPC   C2B39750   5.064  -2.578  -0.875
 2318POPC   C3B39751   5.124  -2.434  -0.750
 2318POPC   C4B39752   5.184  -2.291  -0.624
 2319POPC   NC339753  14.276  23.550  -1.231
 2319POPC   PO439754  14.226  23.399  -1.110
 2319POPC   GL139755  14.176  23.248  -0.989
 2319POPC   GL239756  14.244  23.190  -1.033
 2319POPC   C1A39757  14.126  23.097  -0.867
 2319POPC   D2A39758  14.077  22.946  -0.746
 2319POPC   C3A39759  14.027  22.795  -0.624
 2319POPC   C4A39760  13.977  22.644  -0.503
 2319POPC   C1B39761  14.265  23.157  -0.736
 2319POPC   C2B39762  14.215  23.006  -0.614
 2319POPC   C3B39763  14.165  22.855  -0.493
 2319POPC   C4B39764  14.115  22.704  -0.372
 2320POPC   NC339765  21.001  22.842  15.668
 2320POPC   PO439766  20.876  22.701  15.601
 2320POPC   GL139767  20.751  22.560  15.534
 2320POPC   GL239768  20.796  22.492  15.592
 2320POPC   C1A39769  20.626  22.419  15.467
 2320POPC   D2A39770  20.502  22.277  15.399
 2320POPC   C3A39771  20.377  22.136  15.332
 2320POPC   C4A39772  20.252  21.995  15.265
 2320POPC   C1B39773  20.499  22.461  15.615
 2320POPC   C2B39774  20.374  22.320  15.547
 2320POPC   C3B39775  20.249  22.179  15.480
 2320POPC   C4B39776  20.124  22.037  15.413
 2321POPC   NC339777  21.451  -3.376  13.542
 2321POPC   PO439778  21.324  -3.227  13.502
 2321POPC   GL139779  21.197  -3.078  13.462
 2321POPC   GL239780  21.188  -3.111  13.368
 2321POPC   C1A39781  21.069  -2.929  13.422
 2321POPC   D2A39782  20.942  -2.780  13.381
 2321POPC   C3A39783  20.814  -2.631  13.341
 2321POPC   C4A39784  20.687  -2.482  13.301
 2321POPC   C1B39785  20.916  -3.045  13.476
 2321POPC   C2B39786  20.788  -2.896  13.435
 2321POPC   C3B39787  20.661  -2.747  13.395
 2321POPC   C4B39788  20.534  -2.598  13.355
 2322POPC   NC339789  -7.836  10.409   6.631
 2322POPC   PO439790  -7.640  10.402   6.672
 2322POPC   GL139791  -7.444  10.395   6.713
 2322POPC   GL239792  -7.463  10.339   6.794
 2322POPC   C1A39793  -7.249  10.388   6.755
 2322POPC   D2A39794  -7.053  10.381   6.796
 2322POPC   C3A39795  -6.858  10.374   6.838
 2322POPC   C4A39796  -6.662  10.367   6.879
 2322POPC   C1B39797  -7.231  10.223   6.644
 2322POPC   C2B39798  -7.036  10.216   6.685
 2322POPC   C3B39799  -6.840  10.209   6.727
 2322POPC   C4B39800  -6.644  10.202   6.768
 2323POPC   NC339801  -6.700   4.679   4.987
 2323POPC   PO439802  -6.517   4.741   5.038
 2323POPC   GL139803  -6.334   4.803   5.089
 2323POPC   GL239804  -6.373   4.855   5.165
 2323POPC   C1A39805  -6.151   4.865   5.140
 2323POPC   D2A39806  -5.967   4.926   5.191
 2323POPC   C3A39807  -5.784   4.988   5.242
 2323POPC   C4A39808  -5.601   5.050   5.293
 2323POPC   C1B39809  -6.130   4.705   5.259
 2323POPC   C2B39810  -5.947   4.767   5.310
 2323POPC   C3B39811  -5.763   4.829   5.361
 2323POPC   C4B39812  -5.580   4.890   5.412
 2324POPC   NC339813   3.489  13.788  -6.543
 2324POPC   PO439814   3.562  13.746  -6.362
 2324POPC   GL139815   3.635  13.704  -6.181
 2324POPC   GL239816   3.570  13.768  -6.140
 2324POPC   C1A39817   3.708  13.662  -5.999
 2324POPC   D2A39818   3.781  13.621  -5.818
 2324POPC   C3A39819   3.854  13.579  -5.636
 2324POPC   C4A39820   3.927  13.537  -5.455
 2324POPC   C1B39821   3.575  13.514  -5.980
 2324POPC   C2B39822   3.648  13.473  -5.798
 2324POPC   C3B39823   3.721  13.431  -5.617
 2324POPC   C4B39824   3.794  13.389  -5.436
 2325POPC   NC339825  -0.081   9.531  -5.073
 2325POPC   PO439826   0.032   9.532  -4.908
 2325POPC   GL139827   0.145   9.533  -4.743
 2325POPC   GL239828   0.065   9.558  -4.688
 2325POPC   C1A39829   0.258   9.534  -4.578
 2325POPC   D2A39830   0.370   9.534  -4.412
 2325POPC   C3A39831   0.483   9.535  -4.247
 2325POPC   C4A39832   0.596   9.536  -4.082
 2325POPC   C1B39833   0.216   9.340  -4.548
 2325POPC   C2B39834   0.329   9.341  -4.383
 2325POPC   C3B39835   0.442   9.342  -4.218
 2325POPC   C4B39836   0.555   9.343  -4.053
 2326POPC   NC339837  -2.450   8.099  -3.095
 2326POPC   PO439838  -2.312   8.116  -2.952
 2326POPC   GL139839  -2.174   8.133  -2.809
 2326POPC   GL239840  -2.161   8.033  -2.809
 2326POPC   C1A39841  -2.035   8.149  -2.665
 2326POPC   D2A39842  -1.897   8.166  -2.522
 2326POPC   C3A39843  -1.758   8.182  -2.378
 2326POPC   C4A39844  -1.620   8.199  -2.235
 2326POPC   C1B39845  -1.893   8.167  -2.805
 2326POPC   C2B39846  -1.755   8.184  -2.661
 2326POPC   C3B39847  -1.616   8.200  -2.518
 2326POPC   C4B39848  -1.478   8.217  -2.374
 2327POPC   NC339849  -8.193  11.156  10.161
 2327POPC   PO439850  -7.993  11.143  10.159
 2327POPC   GL139851  -7.793  11.130  10.157
 2327POPC   GL239852  -7.787  11.221  10.199
 2327POPC   C1A39853  -7.594  11.117  10.155
 2327POPC   D2A39854  -7.394  11.104  10.153
 2327POPC   C3A39855  -7.195  11.091  10.151
 2327POPC   C4A39856  -6.995  11.078  10.149
 2327POPC   C1B39857  -7.597  11.033  10.337
 2327POPC   C2B39858  -7.398  11.020  10.335
 2327POPC   C3B39859  -7.198  11.007  10.333
 2327POPC   C4B39860  -6.999  10.994  10.331
 2328POPC   NC339861   8.278   1.299  -5.835
 2328POPC   PO439862   8.290   1.392  -5.658
 2328POPC   GL139863   8.302   1.485  -5.481
 2328POPC   GL239864   8.402   1.485  -5.489
 2328POPC   C1A39865   8.314   1.578  -5.305
 2328POPC   D2A39866   8.327   1.671  -5.128
 2328POPC   C3A39867   8.339   1.764  -4.952
 2328POPC   C4A39868   8.351   1.857  -4.775
 2328POPC   C1B39869   8.307   1.755  -5.397
 2328POPC   C2B39870   8.319   1.848  -5.221
 2328POPC   C3B39871   8.331   1.941  -5.044
 2328POPC   C4B39872   8.344   2.034  -4.868
 2329POPC   NC339873  10.412   5.380  27.379
 2329POPC   PO439874  10.409   5.436  27.187
 2329POPC   GL139875  10.406   5.492  26.995
 2329POPC   GL239876  10.469   5.418  26.972
 2329POPC   C1A39877  10.403   5.547  26.803
 2329POPC   D2A39878  10.400   5.603  26.610
 2329POPC   C3A39879  10.397   5.658  26.418
 2329POPC   C4A39880  10.394   5.714  26.226
 2329POPC   C1B39881  10.248   5.425  26.770
 2329POPC   C2B39882  10.245   5.480  26.577
 2329POPC   C3B39883  10.242   5.536  26.385
 2329POPC   C4B39884  10.239   5.592  26.193
 2330POPC   NC339885  23.726  17.664   1.262
 2330POPC   PO439886  23.573  17.580   1.360
 2330POPC   GL139887  23.420  17.496   1.458
 2330POPC   GL239888  23.375  17.477   1.371
 2330POPC   C1A39889  23.268  17.412   1.557
 2330POPC   D2A39890  23.115  17.328   1.655
 2330POPC   C3A39891  22.963  17.244   1.754
 2330POPC   C4A39892  22.810  17.160   1.852
 2330POPC   C1B39893  23.360  17.235   1.549
 2330POPC   C2B39894  23.207  17.151   1.647
 2330POPC   C3B39895  23.055  17.067   1.745
 2330POPC   C4B39896  22.902  16.983   1.844
 2331POPC   NC339897  26.181   9.416  17.681
 2331POPC   PO439898  26.003   9.424  17.591
 2331POPC   GL139899  25.825   9.432  17.501
 2331POPC   GL239900  25.863   9.388  17.420
 2331POPC   C1A39901  25.646   9.441  17.411
 2331POPC   D2A39902  25.468   9.449  17.322
 2331POPC   C3A39903  25.289   9.458  17.232
 2331POPC   C4A39904  25.111   9.466  17.142
 2331POPC   C1B39905  25.599   9.262  17.488
 2331POPC   C2B39906  25.421   9.270  17.398
 2331POPC   C3B39907  25.243   9.279  17.308
 2331POPC   C4B39908  25.064   9.287  17.218
 2332POPC   NC339909  -5.665  17.348   4.578
 2332POPC   PO439910  -5.492  17.270   4.640
 2332POPC   GL139911  -5.319  17.192   4.702
 2332POPC   GL239912  -5.297  17.277   4.750
 2332POPC   C1A39913  -5.145  17.113   4.763
 2332POPC   D2A39914  -4.972  17.035   4.825
 2332POPC   C3A39915  -4.798  16.956   4.886
 2332POPC   C4A39916  -4.625  16.878   4.948
 2332POPC   C1B39917  -5.235  17.043   4.928
 2332POPC   C2B39918  -5.062  16.965   4.989
 2332POPC   C3B39919  -4.888  16.887   5.051
 2332POPC   C4B39920  -4.715  16.808   5.112
 2333POPC   NC339921  27.294  14.232  11.775
 2333POPC   PO439922  27.101  14.187  11.752
 2333POPC   GL139923  26.908  14.142  11.729
 2333POPC   GL239924  26.913  14.171  11.633
 2333POPC   C1A39925  26.714  14.097  11.705
 2333POPC   D2A39926  26.521  14.052  11.682
 2333POPC   C3A39927  26.327  14.007  11.658
 2333POPC   C4A39928  26.134  13.962  11.635
 2333POPC   C1B39929  26.764  13.911  11.652
 2333POPC   C2B39930  26.570  13.866  11.629
 2333POPC   C3B39931  26.377  13.821  11.606
 2333POPC   C4B39932  26.184  13.776  11.582
 2334POPC   NC339933  16.682  25.820  15.284
 2334POPC   PO439934  16.609  25.645  15.221
 2334POPC   GL139935  16.536  25.470  15.158
 2334POPC   GL239936  16.583  25.482  15.071
 2334POPC   C1A39937  16.463  25.295  15.095
 2334POPC   D2A39938  16.390  25.120  15.031
 2334POPC   C3A39939  16.317  24.945  14.968
 2334POPC   C4A39940  16.244  24.770  14.905
 2334POPC   C1B39941  16.623  25.201  15.169
 2334POPC   C2B39942  16.550  25.026  15.106
 2334POPC   C3B39943  16.477  24.851  15.042
 2334POPC   C4B39944  16.404  24.676  14.979
 2335POPC   NC339945  24.944   0.336   7.846
 2335POPC   PO439946  24.776   0.442   7.870
 2335POPC   GL139947  24.608   0.548   7.894
 2335POPC   GL239948  24.603   0.562   7.795
 2335POPC   C1A39949  24.440   0.653   7.918
 2335POPC   D2A39950  24.271   0.759   7.943
 2335POPC   C3A39951  24.103   0.864   7.967
 2335POPC   C4A39952  23.935   0.970   7.991
 2335POPC   C1B39953  24.332   0.486   7.899
 2335POPC   C2B39954  24.164   0.591   7.924
 2335POPC   C3B39955  23.995   0.697   7.948
 2335POPC   C4B39956  23.827   0.803   7.972
 2336POPC   NC339957  -6.189   4.455  16.145
 2336POPC   PO439958  -6.010   4.520  16.084
 2336POPC   GL139959  -5.831   4.585  16.023
 2336POPC   GL239960  -5.834   4.658  16.092
 2336POPC   C1A39961  -5.652   4.651  15.962
 2336POPC   D2A39962  -5.473   4.716  15.902
 2336POPC   C3A39963  -5.294   4.782  15.841
 2336POPC   C4A39964  -5.115   4.847  15.780
 2336POPC   C1B39965  -5.563   4.530  16.094
 2336POPC   C2B39966  -5.384   4.595  16.034
 2336POPC   C3B39967  -5.205   4.661  15.973
 2336POPC   C4B39968  -5.026   4.726  15.912
 2337POPC   NC339969  25.914   8.548   1.813
 2337POPC   PO439970  25.737   8.563   1.904
 2337POPC   GL139971  25.560   8.578   1.995
 2337POPC   GL239972  25.518   8.523   1.923
 2337POPC   C1A39973  25.382   8.593   2.086
 2337POPC   D2A39974  25.205   8.608   2.177
 2337POPC   C3A39975  25.027   8.623   2.268
 2337POPC   C4A39976  24.850   8.638   2.359
 2337POPC   C1B39977  25.421   8.426   2.189
 2337POPC   C2B39978  25.244   8.441   2.280
 2337POPC   C3B39979  25.066   8.456   2.371
 2337POPC   C4B39980  24.889   8.471   2.462
 2338POPC   NC339981  10.433  -7.665  13.697
 2338POPC   PO439982  10.425  -7.469  13.660
 2338POPC   GL139983  10.417  -7.273  13.623
 2338POPC   GL239984  10.471  -7.286  13.540
 2338POPC   C1A39985  10.409  -7.076  13.586
 2338POPC   D2A39986  10.401  -6.880  13.548
 2338POPC   C3A39987  10.393  -6.683  13.511
 2338POPC   C4A39988  10.385  -6.487  13.474
 2338POPC   C1B39989  10.241  -7.103  13.480
 2338POPC   C2B39990  10.233  -6.907  13.443
 2338POPC   C3B39991  10.225  -6.710  13.405
 2338POPC   C4B39992  10.217  -6.514  13.368
 2339POPC   NC339993  -1.142  21.380  18.631
 2339POPC   PO439994  -1.018  21.256  18.535
 2339POPC   GL139995  -0.894  21.132  18.439
 2339POPC   GL239996  -0.816  21.183  18.474
 2339POPC   C1A39997  -0.770  21.007  18.344
 2339POPC   D2A39998  -0.646  20.883  18.248
 2339POPC   C3A39999  -0.522  20.758  18.153
 2339POPC   C4A40000  -0.398  20.634  18.057
 2339POPC   C1B40001  -0.763  20.890  18.506
 2339POPC   C2B40002  -0.639  20.765  18.410
 2339POPC   C3B40003  -0.515  20.641  18.314
 2339POPC   C4B40004  -0.391  20.517  18.219
 2340POPC   NC340005  -5.671   4.589   2.326
 2340POPC   PO440006  -5.498   4.645   2.409
 2340POPC   GL140007  -5.325   4.701   2.492
 2340POPC   GL240008  -5.373   4.725   2.576
 2340POPC   C1A40009  -5.152   4.757   2.575
 2340POPC   D2A40010  -4.978   4.814   2.657
 2340POPC   C3A40011  -4.805   4.870   2.740
 2340POPC   C4A40012  -4.632   4.926   2.823
 2340POPC   C1B40013  -5.123   4.571   2.642
 2340POPC   C2B40014  -4.950   4.627   2.725
 2340POPC   C3B40015  -4.777   4.684   2.807
 2340POPC   C4B40016  -4.604   4.740   2.890
 2341POPC   NC340017   7.770  -2.752  -2.682
 2341POPC   PO440018   7.794  -2.611  -2.543
 2341POPC   GL140019   7.818  -2.470  -2.404
 2341POPC   GL240020   7.834  -2.541  -2.335
 2341POPC   C1A40021   7.843  -2.329  -2.264
 2341POPC   D2A40022   7.867  -2.187  -2.125
 2341POPC   C3A40023   7.892  -2.046  -1.985
 2341POPC   C4A40024   7.916  -1.905  -1.846
 2341POPC   C1B40025   8.039  -2.324  -2.303
 2341POPC   C2B40026   8.063  -2.183  -2.164
 2341POPC   C3B40027   8.088  -2.042  -2.024
 2341POPC   C4B40028   8.112  -1.900  -1.885
 2342POPC   NC340029  -7.861  13.530  10.706
 2342POPC   PO440030  -7.666  13.488  10.699
 2342POPC   GL140031  -7.471  13.446  10.692
 2342POPC   GL240032  -7.487  13.361  10.743
 2342POPC   C1A40033  -7.275  13.404  10.684
 2342POPC   D2A40034  -7.080  13.361  10.677
 2342POPC   C3A40035  -6.884  13.319  10.669
 2342POPC   C4A40036  -6.689  13.277  10.662
 2342POPC   C1B40037  -7.303  13.305  10.513
 2342POPC   C2B40038  -7.108  13.262  10.505
 2342POPC   C3B40039  -6.912  13.220  10.498
 2342POPC   C4B40040  -6.717  13.178  10.490
 2343POPC   NC340041  17.422  13.042  26.094
 2343POPC   PO440042  17.336  13.009  25.917
 2343POPC   GL140043  17.250  12.976  25.740
 2343POPC   GL240044  17.307  12.895  25.727
 2343POPC   C1A40045  17.163  12.943  25.562
 2343POPC   D2A40046  17.077  12.911  25.385
 2343POPC   C3A40047  16.990  12.878  25.207
 2343POPC   C4A40048  16.904  12.845  25.030
 2343POPC   C1B40049  17.024  12.831  25.651
 2343POPC   C2B40050  16.937  12.798  25.474
 2343POPC   C3B40051  16.851  12.765  25.296
 2343POPC   C4B40052  16.765  12.732  25.119
 2344POPC   NC340053  17.100   2.266  24.583
 2344POPC   PO440054  17.016   2.349  24.422
 2344POPC   GL140055  16.932   2.432  24.261
 2344POPC   GL240056  17.017   2.480  24.241
 2344POPC   C1A40057  16.848   2.515  24.099
 2344POPC   D2A40058  16.763   2.597  23.938
 2344POPC   C3A40059  16.679   2.680  23.776
 2344POPC   C4A40060  16.595   2.763  23.615
 2344POPC   C1B40061  16.909   2.360  23.988
 2344POPC   C2B40062  16.825   2.443  23.827
 2344POPC   C3B40063  16.740   2.526  23.665
 2344POPC   C4B40064  16.656   2.608  23.504
 2345POPC   NC340065  12.716   6.470  -7.571
 2345POPC   PO440066  12.687   6.512  -7.378
 2345POPC   GL140067  12.658   6.554  -7.185
 2345POPC   GL240068  12.637   6.649  -7.208
 2345POPC   C1A40069  12.628   6.596  -6.991
 2345POPC   D2A40070  12.599   6.638  -6.798
 2345POPC   C3A40071  12.569   6.680  -6.604
 2345POPC   C4A40072  12.540   6.722  -6.411
 2345POPC   C1B40073  12.435   6.549  -7.011
 2345POPC   C2B40074  12.405   6.591  -6.817
 2345POPC   C3B40075  12.376   6.633  -6.624
 2345POPC   C4B40076  12.346   6.675  -6.430
 2346POPC   NC340077  -7.687  12.025  13.762
 2346POPC   PO440078  -7.493  12.006  13.718
 2346POPC   GL140079  -7.299  11.987  13.674
 2346POPC   GL240080  -7.275  12.041  13.755
 2346POPC   C1A40081  -7.105  11.969  13.629
 2346POPC   D2A40082  -6.910  11.950  13.585
 2346POPC   C3A40083  -6.716  11.932  13.540
 2346POPC   C4A40084  -6.522  11.913  13.496
 2346POPC   C1B40085  -7.096  11.801  13.738
 2346POPC   C2B40086  -6.902  11.782  13.693
 2346POPC   C3B40087  -6.707  11.764  13.649
 2346POPC   C4B40088  -6.513  11.745  13.605
 2347POPC   NC340089  26.358  16.117   5.964
 2347POPC   PO440090  26.177  16.043   6.003
 2347POPC   GL140091  25.996  15.969   6.042
 2347POPC   GL240092  25.970  15.981   5.946
 2347POPC   C1A40093  25.814  15.894   6.081
 2347POPC   D2A40094  25.633  15.820   6.121
 2347POPC   C3A40095  25.451  15.745   6.160
 2347POPC   C4A40096  25.270  15.671   6.199
 2347POPC   C1B40097  25.881  15.710   6.041
 2347POPC   C2B40098  25.699  15.636   6.080
 2347POPC   C3B40099  25.518  15.561   6.119
 2347POPC   C4B40100  25.337  15.487   6.158
 2348POPC   NC340101  -6.471   9.433  17.587
 2348POPC   PO440102  -6.289   9.442  17.504
 2348POPC   GL140103  -6.107   9.451  17.421
 2348POPC   GL240104  -6.102   9.548  17.444
 2348POPC   C1A40105  -5.925   9.460  17.338
 2348POPC   D2A40106  -5.744   9.469  17.256
 2348POPC   C3A40107  -5.562   9.478  17.173
 2348POPC   C4A40108  -5.380   9.487  17.090
 2348POPC   C1B40109  -5.843   9.414  17.515
 2348POPC   C2B40110  -5.661   9.423  17.432
 2348POPC   C3B40111  -5.479   9.432  17.349
 2348POPC   C4B40112  -5.298   9.441  17.266
 2349POPC   NC340113   8.991  18.618  -5.920
 2349POPC   PO440114   8.998  18.524  -5.744
 2349POPC   GL140115   9.005  18.430  -5.568
 2349POPC   GL240116   9.105  18.433  -5.570
 2349POPC   C1A40117   9.013  18.336  -5.392
 2349POPC   D2A40118   9.020  18.241  -5.215
 2349POPC   C3A40119   9.028  18.147  -5.039
 2349POPC   C4A40120   9.035  18.053  -4.863
 2349POPC   C1B40121   9.009  18.512  -5.297
 2349POPC   C2B40122   9.016  18.418  -5.121
 2349POPC   C3B40123   9.024  18.324  -4.945
 2349POPC   C4B40124   9.031  18.229  -4.769
 2350POPC   NC340125  -1.235  22.687   3.649
 2350POPC   PO440126  -1.116  22.542   3.718
 2350POPC   GL140127  -0.997  22.397   3.787
 2350POPC   GL240128  -0.921  22.462   3.793
 2350POPC   C1A40129  -0.877  22.252   3.857
 2350POPC   D2A40130  -0.758  22.108   3.926
 2350POPC   C3A40131  -0.638  21.963   3.996
 2350POPC   C4A40132  -0.519  21.818   4.065
 2350POPC   C1B40133  -0.931  22.298   4.044
 2350POPC   C2B40134  -0.812  22.153   4.113
 2350POPC   C3B40135  -0.692  22.008   4.183
 2350POPC   C4B40136  -0.573  21.863   4.252
 2351POPC   NC340137   1.924   1.272  -3.683
 2351POPC   PO440138   2.015   1.371  -3.535
 2351POPC   GL140139   2.106   1.470  -3.387
 2351POPC   GL240140   2.060   1.412  -3.320
 2351POPC   C1A40141   2.197   1.569  -3.239
 2351POPC   D2A40142   2.289   1.669  -3.092
 2351POPC   C3A40143   2.380   1.768  -2.944
 2351POPC   C4A40144   2.471   1.867  -2.796
 2351POPC   C1B40145   2.350   1.440  -3.247
 2351POPC   C2B40146   2.441   1.540  -3.099
 2351POPC   C3B40147   2.532   1.639  -2.951
 2351POPC   C4B40148   2.624   1.738  -2.804
 2352POPC   NC340149  19.129  22.052  19.610
 2352POPC   PO440150  19.025  21.914  19.510
 2352POPC   GL140151  18.921  21.776  19.410
 2352POPC   GL240152  18.902  21.842  19.338
 2352POPC   C1A40153  18.817  21.637  19.310
 2352POPC   D2A40154  18.712  21.499  19.210
 2352POPC   C3A40155  18.608  21.360  19.110
 2352POPC   C4A40156  18.504  21.222  19.010
 2352POPC   C1B40157  18.983  21.580  19.215
 2352POPC   C2B40158  18.879  21.442  19.115
 2352POPC   C3B40159  18.775  21.304  19.015
 2352POPC   C4B40160  18.671  21.165  18.915
 2353POPC   NC340161  -3.617   8.453  21.852
 2353POPC   PO440162  -3.466   8.467  21.722
 2353POPC   GL140163  -3.315   8.481  21.592
 2353POPC   GL240164  -3.250   8.458  21.664
 2353POPC   C1A40165  -3.164   8.496  21.461
 2353POPC   D2A40166  -3.013   8.510  21.331
 2353POPC   C3A40167  -2.862   8.525  21.200
 2353POPC   C4A40168  -2.711   8.539  21.070
 2353POPC   C1B40169  -3.184   8.302  21.416
 2353POPC   C2B40170  -3.033   8.316  21.286
 2353POPC   C3B40171  -2.882   8.331  21.156
 2353POPC   C4B40172  -2.731   8.345  21.025
 2354POPC   NC340173   3.215  -6.462  13.284
 2354POPC   PO440174   3.289  -6.280  13.249
 2354POPC   GL140175   3.363  -6.098  13.214
 2354POPC   GL240176   3.406  -6.131  13.130
 2354POPC   C1A40177   3.437  -5.915  13.179
 2354POPC   D2A40178   3.511  -5.733  13.143
 2354POPC   C3A40179   3.585  -5.550  13.108
 2354POPC   C4A40180   3.659  -5.368  13.073
 2354POPC   C1B40181   3.272  -5.868  13.075
 2354POPC   C2B40182   3.346  -5.686  13.040
 2354POPC   C3B40183   3.420  -5.504  13.005
 2354POPC   C4B40184   3.494  -5.321  12.970
 2355POPC   NC340185  12.153  -0.910  -4.249
 2355POPC   PO440186  12.127  -0.791  -4.091
 2355POPC   GL140187  12.101  -0.672  -3.933
 2355POPC   GL240188  12.197  -0.643  -3.939
 2355POPC   C1A40189  12.075  -0.552  -3.775
 2355POPC   D2A40190  12.048  -0.433  -3.616
 2355POPC   C3A40191  12.022  -0.313  -3.458
 2355POPC   C4A40192  11.996  -0.194  -3.300
 2355POPC   C1B40193  12.023  -0.402  -3.896
 2355POPC   C2B40194  11.996  -0.283  -3.738
 2355POPC   C3B40195  11.970  -0.164  -3.580
 2355POPC   C4B40196  11.944  -0.044  -3.422
 2356POPC   NC340197  25.746   3.085   4.737
 2356POPC   PO440198  25.569   3.162   4.791
 2356POPC   GL140199  25.392   3.239   4.845
 2356POPC   GL240200  25.436   3.327   4.863
 2356POPC   C1A40201  25.216   3.316   4.899
 2356POPC   D2A40202  25.039   3.392   4.953
 2356POPC   C3A40203  24.863   3.469   5.007
 2356POPC   C4A40204  24.686   3.546   5.061
 2356POPC   C1B40205  25.182   3.372   4.710
 2356POPC   C2B40206  25.006   3.449   4.764
 2356POPC   C3B40207  24.829   3.525   4.818
 2356POPC   C4B40208  24.653   3.602   4.872
 2357POPC   NC340209   0.907  25.040   5.895
 2357POPC   PO440210   1.009  24.874   5.938
 2357POPC   GL140211   1.111  24.708   5.981
 2357POPC   GL240212   1.197  24.755   5.959
 2357POPC   C1A40213   1.214  24.542   6.024
 2357POPC   D2A40214   1.316  24.375   6.067
 2357POPC   C3A40215   1.419  24.209   6.110
 2357POPC   C4A40216   1.521  24.043   6.153
 2357POPC   C1B40217   1.230  24.601   6.214
 2357POPC   C2B40218   1.332  24.434   6.257
 2357POPC   C3B40219   1.435  24.268   6.300
 2357POPC   C4B40220   1.537  24.102   6.343
 2358POPC   NC340221  -2.700  17.563  -0.652
 2358POPC   PO440222  -2.561  17.477  -0.536
 2358POPC   GL140223  -2.422  17.391  -0.420
 2358POPC   GL240224  -2.368  17.475  -0.424
 2358POPC   C1A40225  -2.283  17.305  -0.305
 2358POPC   D2A40226  -2.145  17.219  -0.189
 2358POPC   C3A40227  -2.006  17.133  -0.074
 2358POPC   C4A40228  -1.867  17.047   0.042
 2358POPC   C1B40229  -2.377  17.373  -0.142
 2358POPC   C2B40230  -2.238  17.287  -0.026
 2358POPC   C3B40231  -2.100  17.201   0.089
 2358POPC   C4B40232  -1.961  17.115   0.205
 2359POPC   NC340233  -3.639  20.816  15.047
 2359POPC   PO440234  -3.488  20.697  14.992
 2359POPC   GL140235  -3.337  20.578  14.937
 2359POPC   GL240236  -3.297  20.653  14.885
 2359POPC   C1A40237  -3.186  20.458  14.882
 2359POPC   D2A40238  -3.036  20.339  14.828
 2359POPC   C3A40239  -2.885  20.219  14.773
 2359POPC   C4A40240  -2.734  20.100  14.718
 2359POPC   C1B40241  -3.083  20.515  15.044
 2359POPC   C2B40242  -2.932  20.396  14.989
 2359POPC   C3B40243  -2.781  20.276  14.934
 2359POPC   C4B40244  -2.630  20.157  14.879
 2360POPC   NC340245  -4.696   5.319   0.239
 2360POPC   PO440246  -4.535   5.365   0.348
 2360POPC   GL140247  -4.374   5.411   0.457
 2360POPC   GL240248  -4.406   5.350   0.530
 2360POPC   C1A40249  -4.213   5.457   0.567
 2360POPC   D2A40250  -4.052   5.502   0.676
 2360POPC   C3A40251  -3.891   5.548   0.786
 2360POPC   C4A40252  -3.730   5.594   0.895
 2360POPC   C1B40253  -4.113   5.305   0.483
 2360POPC   C2B40254  -3.952   5.351   0.592
 2360POPC   C3B40255  -3.791   5.397   0.702
 2360POPC   C4B40256  -3.630   5.443   0.811
 2361POPC   NC340257  -6.400   2.207   9.522
 2361POPC   PO440258  -6.219   2.291   9.530
 2361POPC   GL140259  -6.038   2.375   9.538
 2361POPC   GL240260  -5.998   2.293   9.497
 2361POPC   C1A40261  -5.857   2.460   9.546
 2361POPC   D2A40262  -5.675   2.544   9.553
 2361POPC   C3A40263  -5.494   2.629   9.561
 2361POPC   C4A40264  -5.313   2.713   9.569
 2361POPC   C1B40265  -5.885   2.537   9.363
 2361POPC   C2B40266  -5.704   2.622   9.371
 2361POPC   C3B40267  -5.523   2.706   9.379
 2361POPC   C4B40268  -5.341   2.790   9.387
 2362POPC   NC340269  26.926  13.662  14.382
 2362POPC   PO440270  26.737  13.622  14.330
 2362POPC   GL140271  26.548  13.582  14.278
 2362POPC   GL240272  26.540  13.673  14.237
 2362POPC   C1A40273  26.359  13.543  14.226
 2362POPC   D2A40274  26.170  13.503  14.175
 2362POPC   C3A40275  25.981  13.464  14.123
 2362POPC   C4A40276  25.792  13.424  14.071
 2362POPC   C1B40277  26.422  13.470  14.051
 2362POPC   C2B40278  26.233  13.430  14.000
 2362POPC   C3B40279  26.044  13.390  13.948
 2362POPC   C4B40280  25.855  13.351  13.896
 2363POPC   NC340281  12.957   6.257  -7.484
 2363POPC   PO440282  12.924   6.301  -7.292
 2363POPC   GL140283  12.891   6.345  -7.100
 2363POPC   GL240284  12.858   6.436  -7.126
 2363POPC   C1A40285  12.858   6.389  -6.908
 2363POPC   D2A40286  12.826   6.434  -6.715
 2363POPC   C3A40287  12.793   6.478  -6.523
 2363POPC   C4A40288  12.760   6.522  -6.331
 2363POPC   C1B40289  12.673   6.317  -6.923
 2363POPC   C2B40290  12.640   6.361  -6.730
 2363POPC   C3B40291  12.607   6.405  -6.538
 2363POPC   C4B40292  12.574   6.449  -6.346
 2364POPC   NC340293  24.645  14.444   0.594
 2364POPC   PO440294  24.481  14.396   0.698
 2364POPC   GL140295  24.317  14.348   0.802
 2364POPC   GL240296  24.260  14.395   0.734
 2364POPC   C1A40297  24.153  14.301   0.906
 2364POPC   D2A40298  23.989  14.253   1.010
 2364POPC   C3A40299  23.825  14.206   1.114
 2364POPC   C4A40300  23.661  14.158   1.218
 2364POPC   C1B40301  24.137  14.130   0.802
 2364POPC   C2B40302  23.973  14.083   0.906
 2364POPC   C3B40303  23.809  14.035   1.010
 2364POPC   C4B40304  23.645  13.988   1.114
 2365POPC   NC340305  20.438   8.465  -4.607
 2365POPC   PO440306  20.324   8.483  -4.444
 2365POPC   GL140307  20.210   8.501  -4.281
 2365POPC   GL240308  20.131   8.523  -4.338
 2365POPC   C1A40309  20.096   8.519  -4.118
 2365POPC   D2A40310  19.981   8.537  -3.954
 2365POPC   C3A40311  19.867   8.555  -3.791
 2365POPC   C4A40312  19.753   8.573  -3.628
 2365POPC   C1B40313  20.050   8.325  -4.128
 2365POPC   C2B40314  19.936   8.343  -3.965
 2365POPC   C3B40315  19.821   8.361  -3.802
 2365POPC   C4B40316  19.707   8.379  -3.639
 2366POPC   NC340317  22.002  19.723   0.844
 2366POPC   PO440318  21.870  19.610   0.944
 2366POPC   GL140319  21.738  19.497   1.044
 2366POPC   GL240320  21.695  19.471   0.957
 2366POPC   C1A40321  21.606  19.385   1.144
 2366POPC   D2A40322  21.475  19.272   1.243
 2366POPC   C3A40323  21.343  19.160   1.343
 2366POPC   C4A40324  21.211  19.047   1.443
 2366POPC   C1B40325  21.730  19.228   1.130
 2366POPC   C2B40326  21.598  19.115   1.230
 2366POPC   C3B40327  21.466  19.003   1.330
 2366POPC   C4B40328  21.334  18.890   1.429
 2367POPC   NC340329   9.437  27.885   7.693
 2367POPC   PO440330   9.442  27.686   7.716
 2367POPC   GL140331   9.447  27.487   7.739
 2367POPC   GL240332   9.543  27.493   7.765
 2367POPC   C1A40333   9.451  27.289   7.762
 2367POPC   D2A40334   9.456  27.090   7.785
 2367POPC   C3A40335   9.460  26.892   7.808
 2367POPC   C4A40336   9.465  26.693   7.831
 2367POPC   C1B40337   9.398  27.310   7.954
 2367POPC   C2B40338   9.403  27.111   7.977
 2367POPC   C3B40339   9.407  26.913   8.000
 2367POPC   C4B40340   9.412  26.714   8.023
 2368POPC   NC340341  -5.851   3.693   3.515
 2368POPC   PO440342  -5.676   3.765   3.582
 2368POPC   GL140343  -5.501   3.837   3.649
 2368POPC   GL240344  -5.549   3.882   3.724
 2368POPC   C1A40345  -5.327   3.908   3.715
 2368POPC   D2A40346  -5.152   3.980   3.782
 2368POPC   C3A40347  -4.978   4.051   3.848
 2368POPC   C4A40348  -4.803   4.123   3.915
 2368POPC   C1B40349  -5.303   3.745   3.828
 2368POPC   C2B40350  -5.128   3.816   3.895
 2368POPC   C3B40351  -4.954   3.888   3.961
 2368POPC   C4B40352  -4.779   3.960   4.028
 2369POPC   NC340353  23.942   6.346  -0.806
 2369POPC   PO440354  23.786   6.385  -0.687
 2369POPC   GL140355  23.630   6.424  -0.568
 2369POPC   GL240356  23.572   6.438  -0.649
 2369POPC   C1A40357  23.474   6.463  -0.449
 2369POPC   D2A40358  23.318   6.502  -0.331
 2369POPC   C3A40359  23.162   6.541  -0.212
 2369POPC   C4A40360  23.006   6.580  -0.093
 2369POPC   C1B40361  23.426   6.269  -0.449
 2369POPC   C2B40362  23.270   6.308  -0.330
 2369POPC   C3B40363  23.114   6.347  -0.211
 2369POPC   C4B40364  22.958   6.386  -0.092
 2370POPC   NC340365  19.899  23.193  16.799
 2370POPC   PO440366  19.784  23.048  16.723
 2370POPC   GL140367  19.669  22.903  16.647
 2370POPC   GL240368  19.653  22.959  16.565
 2370POPC   C1A40369  19.555  22.758  16.570
 2370POPC   D2A40370  19.440  22.612  16.494
 2370POPC   C3A40371  19.326  22.467  16.417
 2370POPC   C4A40372  19.211  22.322  16.341
 2370POPC   C1B40373  19.715  22.677  16.482
 2370POPC   C2B40374  19.601  22.532  16.406
 2370POPC   C3B40375  19.486  22.387  16.329
 2370POPC   C4B40376  19.372  22.242  16.253
 2371POPC   NC340377   6.340  -4.450  -0.306
 2371POPC   PO440378   6.376  -4.289  -0.193
 2371POPC   GL140379   6.412  -4.128  -0.080
 2371POPC   GL240380   6.508  -4.130  -0.107
 2371POPC   C1A40381   6.448  -3.967   0.033
 2371POPC   D2A40382   6.484  -3.805   0.146
 2371POPC   C3A40383   6.520  -3.644   0.259
 2371POPC   C4A40384   6.556  -3.483   0.372
 2371POPC   C1B40385   6.406  -3.848  -0.123
 2371POPC   C2B40386   6.442  -3.687  -0.010
 2371POPC   C3B40387   6.478  -3.526   0.103
 2371POPC   C4B40388   6.514  -3.365   0.216
 2372POPC   NC340389  -3.717  -1.449  13.327
 2372POPC   PO440390  -3.567  -1.323  13.289
 2372POPC   GL140391  -3.417  -1.197  13.251
 2372POPC   GL240392  -3.370  -1.227  13.334
 2372POPC   C1A40393  -3.266  -1.071  13.213
 2372POPC   D2A40394  -3.116  -0.944  13.174
 2372POPC   C3A40395  -2.965  -0.818  13.136
 2372POPC   C4A40396  -2.815  -0.692  13.098
 2372POPC   C1B40397  -3.173  -1.213  13.108
 2372POPC   C2B40398  -3.022  -1.087  13.070
 2372POPC   C3B40399  -2.872  -0.961  13.032
 2372POPC   C4B40400  -2.722  -0.835  12.993
 2373POPC   NC340401  25.609   1.958  13.694
 2373POPC   PO440402  25.435   2.047  13.652
 2373POPC   GL140403  25.261   2.136  13.610
 2373POPC   GL240404  25.258   2.088  13.522
 2373POPC   C1A40405  25.086   2.224  13.569
 2373POPC   D2A40406  24.912   2.313  13.527
 2373POPC   C3A40407  24.737   2.401  13.486
 2373POPC   C4A40408  24.563   2.490  13.444
 2373POPC   C1B40409  24.988   2.072  13.654
 2373POPC   C2B40410  24.814   2.161  13.612
 2373POPC   C3B40411  24.640   2.249  13.571
 2373POPC   C4B40412  24.465   2.338  13.529
 2374POPC   NC340413  -4.624  20.792  10.446
 2374POPC   PO440414  -4.465  20.671  10.437
 2374POPC   GL140415  -4.306  20.550  10.428
 2374POPC   GL240416  -4.249  20.627  10.403
 2374POPC   C1A40417  -4.148  20.428  10.419
 2374POPC   D2A40418  -3.989  20.307  10.410
 2374POPC   C3A40419  -3.831  20.185  10.401
 2374POPC   C4A40420  -3.672  20.064  10.392
 2374POPC   C1B40421  -4.111  20.462  10.612
 2374POPC   C2B40422  -3.952  20.341  10.603
 2374POPC   C3B40423  -3.793  20.220  10.594
 2374POPC   C4B40424  -3.635  20.098  10.585
 2375POPC   NC340425  24.048  19.972   5.177
 2375POPC   PO440426  23.889  19.861   5.227
 2375POPC   GL140427  23.730  19.750   5.277
 2375POPC   GL240428  23.734  19.704   5.188
 2375POPC   C1A40429  23.572  19.639   5.327
 2375POPC   D2A40430  23.413  19.528   5.378
 2375POPC   C3A40431  23.255  19.417   5.428
 2375POPC   C4A40432  23.096  19.306   5.478
 2375POPC   C1B40433  23.693  19.500   5.404
 2375POPC   C2B40434  23.535  19.389   5.454
 2375POPC   C3B40435  23.376  19.278   5.504
 2375POPC   C4B40436  23.218  19.167   5.554
 2376POPC   NC340437  15.284  17.311  -5.642
 2376POPC   PO440438  15.226  17.229  -5.469
 2376POPC   GL140439  15.168  17.147  -5.296
 2376POPC   GL240440  15.203  17.059  -5.326
 2376POPC   C1A40441  15.110  17.066  -5.123
 2376POPC   D2A40442  15.053  16.984  -4.949
 2376POPC   C3A40443  14.995  16.903  -4.776
 2376POPC   C4A40444  14.937  16.821  -4.603
 2376POPC   C1B40445  15.289  17.108  -5.043
 2376POPC   C2B40446  15.231  17.026  -4.870
 2376POPC   C3B40447  15.174  16.945  -4.697
 2376POPC   C4B40448  15.116  16.863  -4.524
 2377POPC   NC340449   8.001  -4.721  -0.343
 2377POPC   PO440450   8.024  -4.557  -0.230
 2377POPC   GL140451   8.047  -4.393  -0.117
 2377POPC   GL240452   8.094  -4.448  -0.048
 2377POPC   C1A40453   8.070  -4.229  -0.005
 2377POPC   D2A40454   8.092  -4.066   0.108
 2377POPC   C3A40455   8.115  -3.902   0.220
 2377POPC   C4A40456   8.138  -3.738   0.333
 2377POPC   C1B40457   8.244  -4.192  -0.095
 2377POPC   C2B40458   8.267  -4.028   0.018
 2377POPC   C3B40459   8.290  -3.864   0.130
 2377POPC   C4B40460   8.313  -3.700   0.243
 2378POPC   NC340461   0.108  23.711  16.399
 2378POPC   PO440462   0.213  23.556  16.330
 2378POPC   GL140463   0.318  23.401  16.261
 2378POPC   GL240464   0.314  23.357  16.351
 2378POPC   C1A40465   0.423  23.245  16.192
 2378POPC   D2A40466   0.529  23.090  16.123
 2378POPC   C3A40467   0.634  22.934  16.054
 2378POPC   C4A40468   0.739  22.779  15.985
 2378POPC   C1B40469   0.254  23.154  16.139
 2378POPC   C2B40470   0.359  22.998  16.070
 2378POPC   C3B40471   0.464  22.843  16.001
 2378POPC   C4B40472   0.569  22.687  15.932
 2379POPC   NC340473  21.989   9.574  -3.425
 2379POPC   PO440474  21.852   9.578  -3.279
 2379POPC   GL140475  21.715   9.582  -3.133
 2379POPC   GL240476  21.680   9.668  -3.169
 2379POPC   C1A40477  21.578   9.586  -2.987
 2379POPC   D2A40478  21.441   9.589  -2.842
 2379POPC   C3A40479  21.304   9.593  -2.696
 2379POPC   C4A40480  21.167   9.597  -2.550
 2379POPC   C1B40481  21.451   9.485  -3.105
 2379POPC   C2B40482  21.314   9.489  -2.959
 2379POPC   C3B40483  21.177   9.493  -2.813
 2379POPC   C4B40484  21.040   9.497  -2.667
 2380POPC   NC340485   8.565   3.730  -6.912
 2380POPC   PO440486   8.575   3.798  -6.724
 2380POPC   GL140487   8.585   3.866  -6.536
 2380POPC   GL240488   8.679   3.897  -6.552
 2380POPC   C1A40489   8.596   3.933  -6.348
 2380POPC   D2A40490   8.606   4.001  -6.160
 2380POPC   C3A40491   8.617   4.068  -5.972
 2380POPC   C4A40492   8.627   4.136  -5.784
 2380POPC   C1B40493   8.527   4.111  -6.408
 2380POPC   C2B40494   8.537   4.179  -6.220
 2380POPC   C3B40495   8.547   4.246  -6.032
 2380POPC   C4B40496   8.558   4.314  -5.844
 2381POPC   NC340497   4.394   7.262  26.947
 2381POPC   PO440498   4.450   7.293  26.757
 2381POPC   GL140499   4.506   7.324  26.567
 2381POPC   GL240500   4.600   7.301  26.591
 2381POPC   C1A40501   4.561   7.355  26.378
 2381POPC   D2A40502   4.617   7.385  26.188
 2381POPC   C3A40503   4.672   7.416  25.999
 2381POPC   C4A40504   4.728   7.447  25.809
 2381POPC   C1B40505   4.525   7.163  26.336
 2381POPC   C2B40506   4.580   7.193  26.146
 2381POPC   C3B40507   4.636   7.224  25.957
 2381POPC   C4B40508   4.691   7.255  25.767
 2382POPC   NC340509  -7.367   6.641  14.074
 2382POPC   PO440510  -7.175   6.679  14.031
 2382POPC   GL140511  -6.983   6.717  13.988
 2382POPC   GL240512  -6.960   6.708  14.085
 2382POPC   C1A40513  -6.792   6.755  13.945
 2382POPC   D2A40514  -6.600   6.792  13.901
 2382POPC   C3A40515  -6.409   6.830  13.858
 2382POPC   C4A40516  -6.217   6.868  13.815
 2382POPC   C1B40517  -6.759   6.559  13.919
 2382POPC   C2B40518  -6.567   6.597  13.876
 2382POPC   C3B40519  -6.376   6.635  13.833
 2382POPC   C4B40520  -6.184   6.672  13.789
 2383POPC   NC340521  -7.728   6.028  10.595
 2383POPC   PO440522  -7.534   6.074  10.585
 2383POPC   GL140523  -7.340   6.120  10.575
 2383POPC   GL240524  -7.317   6.036  10.623
 2383POPC   C1A40525  -7.145   6.166  10.565
 2383POPC   D2A40526  -6.951   6.213  10.554
 2383POPC   C3A40527  -6.756   6.259  10.544
 2383POPC   C4A40528  -6.562   6.305  10.534
 2383POPC   C1B40529  -7.132   6.070  10.390
 2383POPC   C2B40530  -6.937   6.116  10.380
 2383POPC   C3B40531  -6.743   6.162  10.370
 2383POPC   C4B40532  -6.548   6.209  10.359
 2384POPC   NC340533  25.010   4.548   1.653
 2384POPC   PO440534  24.843   4.608   1.745
 2384POPC   GL140535  24.676   4.668   1.837
 2384POPC   GL240536  24.629   4.672   1.749
 2384POPC   C1A40537  24.509   4.728   1.930
 2384POPC   D2A40538  24.343   4.789   2.022
 2384POPC   C3A40539  24.176   4.849   2.115
 2384POPC   C4A40540  24.009   4.909   2.207
 2384POPC   C1B40541  24.453   4.538   1.951
 2384POPC   C2B40542  24.286   4.598   2.044
 2384POPC   C3B40543  24.119   4.658   2.136
 2384POPC   C4B40544  23.952   4.718   2.229
 2385POPC   NC340545   7.667  -7.489  14.033
 2385POPC   PO440546   7.692  -7.294  13.993
 2385POPC   GL140547   7.717  -7.099  13.953
 2385POPC   GL240548   7.807  -7.102  13.997
 2385POPC   C1A40549   7.741  -6.905  13.914
 2385POPC   D2A40550   7.766  -6.710  13.874
 2385POPC   C3A40551   7.790  -6.516  13.835
 2385POPC   C4A40552   7.815  -6.321  13.795
 2385POPC   C1B40553   7.825  -6.951  13.738
 2385POPC   C2B40554   7.850  -6.757  13.699
 2385POPC   C3B40555   7.874  -6.562  13.659
 2385POPC   C4B40556   7.899  -6.367  13.619
 2386POPC   NC340557  24.954   3.932  17.803
 2386POPC   PO440558  24.786   3.992  17.712
 2386POPC   GL140559  24.618   4.052  17.621
 2386POPC   GL240560  24.638   4.147  17.648
 2386POPC   C1A40561  24.450   4.112  17.531
 2386POPC   D2A40562  24.283   4.173  17.440
 2386POPC   C3A40563  24.115   4.233  17.350
 2386POPC   C4A40564  23.947   4.293  17.259
 2386POPC   C1B40565  24.552   4.138  17.360
 2386POPC   C2B40566  24.384   4.199  17.270
 2386POPC   C3B40567  24.216   4.259  17.179
 2386POPC   C4B40568  24.048   4.319  17.089
 2387POPC   NC340569  17.839  19.039  -3.502
 2387POPC   PO440570  17.749  18.941  -3.352
 2387POPC   GL140571  17.659  18.843  -3.202
 2387POPC   GL240572  17.677  18.757  -3.249
 2387POPC   C1A40573  17.569  18.746  -3.053
 2387POPC   D2A40574  17.479  18.648  -2.903
 2387POPC   C3A40575  17.389  18.551  -2.754
 2387POPC   C4A40576  17.299  18.453  -2.604
 2387POPC   C1B40577  17.744  18.731  -2.957
 2387POPC   C2B40578  17.654  18.633  -2.808
 2387POPC   C3B40579  17.564  18.536  -2.658
 2387POPC   C4B40580  17.474  18.438  -2.508
 2388POPC   NC340581  16.727  -5.453   3.692
 2388POPC   PO440582  16.650  -5.281   3.760
 2388POPC   GL140583  16.573  -5.109   3.828
 2388POPC   GL240584  16.648  -5.102   3.894
 2388POPC   C1A40585  16.496  -4.938   3.896
 2388POPC   D2A40586  16.419  -4.766   3.965
 2388POPC   C3A40587  16.342  -4.595   4.033
 2388POPC   C4A40588  16.265  -4.423   4.101
 2388POPC   C1B40589  16.604  -4.836   3.762
 2388POPC   C2B40590  16.527  -4.664   3.830
 2388POPC   C3B40591  16.450  -4.493   3.898
 2388POPC   C4B40592  16.373  -4.321   3.967
 2389POPC   NC340593  -0.024  17.693  22.848
 2389POPC   PO440594   0.087  17.609  22.704
 2389POPC   GL140595   0.198  17.525  22.560
 2389POPC   GL240596   0.281  17.547  22.611
 2389POPC   C1A40597   0.308  17.442  22.416
 2389POPC   D2A40598   0.419  17.358  22.271
 2389POPC   C3A40599   0.529  17.275  22.127
 2389POPC   C4A40600   0.640  17.191  21.983
 2389POPC   C1B40601   0.296  17.265  22.509
 2389POPC   C2B40602   0.407  17.182  22.365
 2389POPC   C3B40603   0.518  17.098  22.221
 2389POPC   C4B40604   0.628  17.015  22.076
 2390POPC   NC340605   4.960  18.653  25.048
 2390POPC   PO440606   5.013  18.553  24.883
 2390POPC   GL140607   5.066  18.453  24.718
 2390POPC   GL240608   5.121  18.390  24.774
 2390POPC   C1A40609   5.119  18.352  24.554
 2390POPC   D2A40610   5.173  18.252  24.389
 2390POPC   C3A40611   5.226  18.151  24.225
 2390POPC   C4A40612   5.279  18.051  24.060
 2390POPC   C1B40613   4.961  18.232  24.576
 2390POPC   C2B40614   5.014  18.131  24.412
 2390POPC   C3B40615   5.068  18.031  24.247
 2390POPC   C4B40616   5.121  17.931  24.082
 2391POPC   NC340617  -0.422  23.544  15.931
 2391POPC   PO440618  -0.311  23.391  15.866
 2391POPC   GL140619  -0.200  23.238  15.801
 2391POPC   GL240620  -0.187  23.207  15.895
 2391POPC   C1A40621  -0.089  23.085  15.735
 2391POPC   D2A40622   0.021  22.931  15.670
 2391POPC   C3A40623   0.132  22.778  15.604
 2391POPC   C4A40624   0.243  22.625  15.539
 2391POPC   C1B40625  -0.254  22.972  15.721
 2391POPC   C2B40626  -0.143  22.818  15.656
 2391POPC   C3B40627  -0.032  22.665  15.591
 2391POPC   C4B40628   0.079  22.512  15.525
 2392POPC   NC340629  -3.016  10.992  22.521
 2392POPC   PO440630  -2.870  10.984  22.384
 2392POPC   GL140631  -2.724  10.976  22.247
 2392POPC   GL240632  -2.656  10.987  22.320
 2392POPC   C1A40633  -2.578  10.968  22.111
 2392POPC   D2A40634  -2.433  10.959  21.974
 2392POPC   C3A40635  -2.287  10.951  21.838
 2392POPC   C4A40636  -2.141  10.943  21.701
 2392POPC   C1B40637  -2.569  10.769  22.133
 2392POPC   C2B40638  -2.423  10.761  21.996
 2392POPC   C3B40639  -2.277  10.753  21.860
 2392POPC   C4B40640  -2.131  10.744  21.723
 2393POPC   NC340641  27.318   6.891  13.352
 2393POPC   PO440642  27.124   6.925  13.317
 2393POPC   GL140643  26.930   6.959  13.282
 2393POPC   GL240644  26.934   6.898  13.203
 2393POPC   C1A40645  26.736   6.993  13.247
 2393POPC   D2A40646  26.542   7.027  13.211
 2393POPC   C3A40647  26.348   7.061  13.176
 2393POPC   C4A40648  26.154   7.095  13.141
 2393POPC   C1B40649  26.688   6.838  13.364
 2393POPC   C2B40650  26.494   6.872  13.329
 2393POPC   C3B40651  26.300   6.906  13.294
 2393POPC   C4B40652  26.106   6.940  13.258
 2394POPC   NC340653  27.629   7.054  10.309
 2394POPC   PO440654  27.431   7.081  10.307
 2394POPC   GL140655  27.233   7.108  10.305
 2394POPC   GL240656  27.220   7.013  10.278
 2394POPC   C1A40657  27.035   7.135  10.302
 2394POPC   D2A40658  26.836   7.163  10.300
 2394POPC   C3A40659  26.638   7.190  10.297
 2394POPC   C4A40660  26.440   7.217  10.295
 2394POPC   C1B40661  27.025   7.083  10.495
 2394POPC   C2B40662  26.827   7.110  10.493
 2394POPC   C3B40663  26.629   7.137  10.490
 2394POPC   C4B40664  26.430   7.164  10.488
 2395POPC   NC340665  22.835   0.993  18.799
 2395POPC   PO440666  22.694   1.091  18.696
 2395POPC   GL140667  22.553   1.189  18.593
 2395POPC   GL240668  22.598   1.276  18.615
 2395POPC   C1A40669  22.413   1.288  18.490
 2395POPC   D2A40670  22.272   1.386  18.388
 2395POPC   C3A40671  22.132   1.485  18.285
 2395POPC   C4A40672  21.991   1.583  18.182
 2395POPC   C1B40673  22.524   1.273  18.325
 2395POPC   C2B40674  22.383   1.371  18.222
 2395POPC   C3B40675  22.242   1.469  18.119
 2395POPC   C4B40676  22.102   1.568  18.016
 2396POPC   NC340677  16.652   0.777  -4.113
 2396POPC   PO440678  16.576   0.881  -3.960
 2396POPC   GL140679  16.500   0.985  -3.807
 2396POPC   GL240680  16.424   1.015  -3.864
 2396POPC   C1A40681  16.424   1.089  -3.653
 2396POPC   D2A40682  16.349   1.192  -3.500
 2396POPC   C3A40683  16.273   1.296  -3.346
 2396POPC   C4A40684  16.197   1.400  -3.193
 2396POPC   C1B40685  16.319   0.928  -3.597
 2396POPC   C2B40686  16.243   1.032  -3.443
 2396POPC   C3B40687  16.167   1.136  -3.290
 2396POPC   C4B40688  16.092   1.240  -3.137
 2397POPC   NC340689  24.751  16.065   1.707
 2397POPC   PO440690  24.587  15.999   1.801
 2397POPC   GL140691  24.423  15.933   1.895
 2397POPC   GL240692  24.367  15.964   1.818
 2397POPC   C1A40693  24.259  15.868   1.989
 2397POPC   D2A40694  24.095  15.802   2.082
 2397POPC   C3A40695  23.931  15.737   2.176
 2397POPC   C4A40696  23.767  15.671   2.270
 2397POPC   C1B40697  24.281  15.689   1.901
 2397POPC   C2B40698  24.117  15.624   1.995
 2397POPC   C3B40699  23.953  15.558   2.089
 2397POPC   C4B40700  23.789  15.492   2.183
 2398POPC   NC340701  27.231   7.084  13.952
 2398POPC   PO440702  27.038   7.116  13.910
 2398POPC   GL140703  26.845   7.148  13.868
 2398POPC   GL240704  26.848   7.077  13.798
 2398POPC   C1A40705  26.652   7.181  13.826
 2398POPC   D2A40706  26.460   7.213  13.784
 2398POPC   C3A40707  26.267   7.246  13.742
 2398POPC   C4A40708  26.074   7.278  13.700
 2398POPC   C1B40709  26.600   7.044  13.963
 2398POPC   C2B40710  26.407   7.077  13.921
 2398POPC   C3B40711  26.214   7.109  13.879
 2398POPC   C4B40712  26.021   7.142  13.837
 2399POPC   NC340713  -0.817  -4.533   8.740
 2399POPC   PO440714  -0.697  -4.374   8.750
 2399POPC   GL140715  -0.577  -4.215   8.760
 2399POPC   GL240716  -0.497  -4.275   8.761
 2399POPC   C1A40717  -0.457  -4.055   8.770
 2399POPC   D2A40718  -0.336  -3.896   8.781
 2399POPC   C3A40719  -0.216  -3.736   8.791
 2399POPC   C4A40720  -0.096  -3.577   8.801
 2399POPC   C1B40721  -0.449  -4.048   8.571
 2399POPC   C2B40722  -0.329  -3.889   8.581
 2399POPC   C3B40723  -0.209  -3.729   8.591
 2399POPC   C4B40724  -0.088  -3.570   8.601
 2400POPC   NC340725   1.231  -0.883  -1.483
 2400POPC   PO440726   1.325  -0.760  -1.356
 2400POPC   GL140727   1.419  -0.637  -1.229
 2400POPC   GL240728   1.501  -0.641  -1.286
 2400POPC   C1A40729   1.513  -0.515  -1.102
 2400POPC   D2A40730   1.606  -0.392  -0.974
 2400POPC   C3A40731   1.700  -0.270  -0.847
 2400POPC   C4A40732   1.794  -0.147  -0.720
 2400POPC   C1B40733   1.447  -0.357  -1.205
 2400POPC   C2B40734   1.541  -0.234  -1.078
 2400POPC   C3B40735   1.634  -0.112  -0.951
 2400POPC   C4B40736   1.728   0.011  -0.823
 2401POPC   NC340737   3.182  24.642  18.099
 2401POPC   PO440738   3.259  24.480  18.011
 2401POPC   GL140739   3.336  24.318  17.923
 2401POPC   GL240740   3.319  24.265  18.006
 2401POPC   C1A40741   3.412  24.156  17.834
 2401POPC   D2A40742   3.489  23.993  17.746
 2401POPC   C3A40743   3.565  23.831  17.657
 2401POPC   C4A40744   3.642  23.669  17.569
 2401POPC   C1B40745   3.230  24.106  17.767
 2401POPC   C2B40746   3.307  23.944  17.679
 2401POPC   C3B40747   3.384  23.782  17.590
 2401POPC   C4B40748   3.460  23.620  17.502
 2402POPC   NC340749   0.638  16.375  -4.199
 2402POPC   PO440750   0.741  16.305  -4.042
 2402POPC   GL140751   0.844  16.235  -3.885
 2402POPC   GL240752   0.771  16.267  -3.824
 2402POPC   C1A40753   0.946  16.165  -3.728
 2402POPC   D2A40754   1.049  16.095  -3.572
 2402POPC   C3A40755   1.151  16.025  -3.415
 2402POPC   C4A40756   1.254  15.955  -3.258
 2402POPC   C1B40757   0.853  15.989  -3.746
 2402POPC   C2B40758   0.956  15.919  -3.590
 2402POPC   C3B40759   1.059  15.849  -3.433
 2402POPC   C4B40760   1.161  15.779  -3.276
 2403POPC   NC340761   8.061  -5.638  18.821
 2403POPC   PO440762   8.081  -5.465  18.722
 2403POPC   GL140763   8.101  -5.292  18.623
 2403POPC   GL240764   8.175  -5.332  18.568
 2403POPC   C1A40765   8.122  -5.120  18.524
 2403POPC   D2A40766   8.142  -4.947  18.426
 2403POPC   C3A40767   8.163  -4.775  18.327
 2403POPC   C4A40768   8.183  -4.602  18.228
 2403POPC   C1B40769   7.987  -5.181  18.390
 2403POPC   C2B40770   8.008  -5.008  18.291
 2403POPC   C3B40771   8.028  -4.836  18.192
 2403POPC   C4B40772   8.049  -4.663  18.093
 2404POPC   NC340773  17.202  -6.379   8.078
 2404POPC   PO440774  17.121  -6.198   8.100
 2404POPC   GL140775  17.040  -6.017   8.122
 2404POPC   GL240776  17.131  -5.975   8.115
 2404POPC   C1A40777  16.959  -5.835   8.145
 2404POPC   D2A40778  16.878  -5.654   8.167
 2404POPC   C3A40779  16.797  -5.472   8.190
 2404POPC   C4A40780  16.716  -5.291   8.212
 2404POPC   C1B40781  16.937  -5.821   7.947
 2404POPC   C2B40782  16.856  -5.639   7.969
 2404POPC   C3B40783  16.775  -5.458   7.991
 2404POPC   C4B40784  16.694  -5.277   8.014
 2405POPC   NC340785  23.160   6.901  -1.922
 2405POPC   PO440786  23.012   6.933  -1.791
 2405POPC   GL140787  22.864   6.965  -1.660
 2405POPC   GL240788  22.812   7.014  -1.731
 2405POPC   C1A40789  22.716   6.998  -1.529
 2405POPC   D2A40790  22.569   7.030  -1.399
 2405POPC   C3A40791  22.421   7.063  -1.268
 2405POPC   C4A40792  22.273   7.095  -1.137
 2405POPC   C1B40793  22.630   6.826  -1.584
 2405POPC   C2B40794  22.483   6.858  -1.453
 2405POPC   C3B40795  22.335   6.890  -1.322
 2405POPC   C4B40796  22.187   6.923  -1.192
 2406POPC   NC340797  13.869  19.972  -4.558
 2406POPC   PO440798  13.827  19.863  -4.395
 2406POPC   GL140799  13.785  19.754  -4.232
 2406POPC   GL240800  13.859  19.800  -4.183
 2406POPC   C1A40801  13.744  19.646  -4.070
 2406POPC   D2A40802  13.702  19.537  -3.907
 2406POPC   C3A40803  13.661  19.429  -3.745
 2406POPC   C4A40804  13.619  19.320  -3.582
 2406POPC   C1B40805  13.615  19.786  -4.009
 2406POPC   C2B40806  13.574  19.678  -3.846
 2406POPC   C3B40807  13.532  19.569  -3.684
 2406POPC   C4B40808  13.490  19.461  -3.521
 2407POPC   NC340809   9.620  -7.906   7.588
 2407POPC   PO440810   9.627  -7.707   7.610
 2407POPC   GL140811   9.634  -7.508   7.632
 2407POPC   GL240812   9.731  -7.509   7.607
 2407POPC   C1A40813   9.641  -7.310   7.654
 2407POPC   D2A40814   9.647  -7.111   7.677
 2407POPC   C3A40815   9.654  -6.913   7.699
 2407POPC   C4A40816   9.661  -6.714   7.721
 2407POPC   C1B40817   9.591  -7.287   7.462
 2407POPC   C2B40818   9.598  -7.088   7.484
 2407POPC   C3B40819   9.604  -6.889   7.506
 2407POPC   C4B40820   9.611  -6.691   7.529
 2408POPC   NC340821  11.131  -5.725  18.796
 2408POPC   PO440822  11.118  -5.553  18.695
 2408POPC   GL140823  11.105  -5.381  18.594
 2408POPC   GL240824  11.191  -5.402  18.547
 2408POPC   C1A40825  11.093  -5.209  18.493
 2408POPC   D2A40826  11.080  -5.037  18.391
 2408POPC   C3A40827  11.068  -4.865  18.290
 2408POPC   C4A40828  11.055  -4.693  18.189
 2408POPC   C1B40829  10.991  -5.302  18.347
 2408POPC   C2B40830  10.979  -5.130  18.246
 2408POPC   C3B40831  10.966  -4.958  18.145
 2408POPC   C4B40832  10.954  -4.786  18.044
 2409POPC   NC340833  24.353  20.007   6.327
 2409POPC   PO440834  24.191  19.897   6.368
 2409POPC   GL140835  24.029  19.787   6.409
 2409POPC   GL240836  24.060  19.717   6.344
 2409POPC   C1A40837  23.867  19.676   6.450
 2409POPC   D2A40838  23.706  19.566   6.491
 2409POPC   C3A40839  23.544  19.455   6.532
 2409POPC   C4A40840  23.382  19.345   6.573
 2409POPC   C1B40841  23.968  19.584   6.596
 2409POPC   C2B40842  23.806  19.473   6.637
 2409POPC   C3B40843  23.644  19.363   6.678
 2409POPC   C4B40844  23.482  19.252   6.719
 2410POPC   NC340845  11.293  26.997  15.839
 2410POPC   PO440846  11.275  26.808  15.777
 2410POPC   GL140847  11.257  26.619  15.715
 2410POPC   GL240848  11.356  26.614  15.701
 2410POPC   C1A40849  11.238  26.430  15.652
 2410POPC   D2A40850  11.220  26.240  15.590
 2410POPC   C3A40851  11.201  26.051  15.527
 2410POPC   C4A40852  11.183  25.862  15.465
 2410POPC   C1B40853  11.260  26.365  15.840
 2410POPC   C2B40854  11.242  26.176  15.778
 2410POPC   C3B40855  11.224  25.987  15.715
 2410POPC   C4B40856  11.205  25.798  15.653
 2411POPC   NC340857  26.900   8.822  15.905
 2411POPC   PO440858  26.712   8.836  15.839
 2411POPC   GL140859  26.524   8.850  15.773
 2411POPC   GL240860  26.541   8.776  15.709
 2411POPC   C1A40861  26.335   8.864  15.708
 2411POPC   D2A40862  26.147   8.878  15.642
 2411POPC   C3A40863  25.958   8.892  15.577
 2411POPC   C4A40864  25.770   8.906  15.511
 2411POPC   C1B40865  26.277   8.731  15.845
 2411POPC   C2B40866  26.089   8.745  15.780
 2411POPC   C3B40867  25.901   8.759  15.714
 2411POPC   C4B40868  25.712   8.773  15.649
 2412POPC   NC340869  15.824  13.760  -6.703
 2412POPC   PO440870  15.762  13.718  -6.518
 2412POPC   GL140871  15.700  13.676  -6.333
 2412POPC   GL240872  15.654  13.594  -6.367
 2412POPC   C1A40873  15.638  13.634  -6.147
 2412POPC   D2A40874  15.577  13.591  -5.962
 2412POPC   C3A40875  15.515  13.549  -5.776
 2412POPC   C4A40876  15.453  13.507  -5.591
 2412POPC   C1B40877  15.805  13.527  -6.116
 2412POPC   C2B40878  15.743  13.485  -5.930
 2412POPC   C3B40879  15.681  13.443  -5.745
 2412POPC   C4B40880  15.620  13.401  -5.560
 2413POPC   NC340881  13.937  15.954  -6.582
 2413POPC   PO440882  13.894  15.886  -6.399
 2413POPC   GL140883  13.851  15.818  -6.216
 2413POPC   GL240884  13.945  15.836  -6.187
 2413POPC   C1A40885  13.807  15.751  -6.033
 2413POPC   D2A40886  13.764  15.683  -5.849
 2413POPC   C3A40887  13.720  15.616  -5.666
 2413POPC   C4A40888  13.677  15.548  -5.483
 2413POPC   C1B40889  13.755  15.936  -5.977
 2413POPC   C2B40890  13.712  15.868  -5.794
 2413POPC   C3B40891  13.669  15.800  -5.610
 2413POPC   C4B40892  13.625  15.733  -5.427
 2414POPC   NC340893  -3.808   5.065  -0.835
 2414POPC   PO440894  -3.658   5.117  -0.714
 2414POPC   GL140895  -3.508   5.169  -0.593
 2414POPC   GL240896  -3.561   5.139  -0.514
 2414POPC   C1A40897  -3.357   5.221  -0.472
 2414POPC   D2A40898  -3.207   5.272  -0.350
 2414POPC   C3A40899  -3.056   5.324  -0.229
 2414POPC   C4A40900  -2.906   5.376  -0.108
 2414POPC   C1B40901  -3.280   5.037  -0.489
 2414POPC   C2B40902  -3.129   5.089  -0.368
 2414POPC   C3B40903  -2.979   5.141  -0.247
 2414POPC   C4B40904  -2.829   5.192  -0.125
 2415POPC   NC340905  22.574  19.701  18.283
 2415POPC   PO440906  22.435  19.588  18.194
 2415POPC   GL140907  22.296  19.475  18.105
 2415POPC   GL240908  22.368  19.424  18.058
 2415POPC   C1A40909  22.157  19.362  18.017
 2415POPC   D2A40910  22.017  19.249  17.928
 2415POPC   C3A40911  21.878  19.136  17.840
 2415POPC   C4A40912  21.739  19.023  17.751
 2415POPC   C1B40913  22.164  19.233  18.169
 2415POPC   C2B40914  22.025  19.120  18.081
 2415POPC   C3B40915  21.886  19.007  17.992
 2415POPC   C4B40916  21.747  18.894  17.904
 2416POPC   NC340917   2.533  26.384   8.133
 2416POPC   PO440918   2.622  26.206   8.154
 2416POPC   GL140919   2.711  26.028   8.175
 2416POPC   GL240920   2.760  26.042   8.089
 2416POPC   C1A40921   2.800  25.850   8.196
 2416POPC   D2A40922   2.888  25.672   8.216
 2416POPC   C3A40923   2.977  25.494   8.237
 2416POPC   C4A40924   3.066  25.316   8.258
 2416POPC   C1B40925   2.950  25.937   8.296
 2416POPC   C2B40926   3.038  25.759   8.317
 2416POPC   C3B40927   3.127  25.581   8.337
 2416POPC   C4B40928   3.216  25.403   8.358
 2417POPC   NC340929  24.232   0.910  16.102
 2417POPC   PO440930  24.073   1.012  16.037
 2417POPC   GL140931  23.914   1.114  15.972
 2417POPC   GL240932  23.964   1.140  15.890
 2417POPC   C1A40933  23.754   1.216  15.908
 2417POPC   D2A40934  23.595   1.318  15.843
 2417POPC   C3A40935  23.435   1.420  15.779
 2417POPC   C4A40936  23.276   1.522  15.714
 2417POPC   C1B40937  23.686   1.052  15.816
 2417POPC   C2B40938  23.527   1.154  15.751
 2417POPC   C3B40939  23.368   1.256  15.687
 2417POPC   C4B40940  23.208   1.358  15.622
 2418POPC   NC340941   0.413  23.445  17.394
 2418POPC   PO440942   0.516  23.292  17.316
 2418POPC   GL140943   0.619  23.139  17.238
 2418POPC   GL240944   0.691  23.153  17.305
 2418POPC   C1A40945   0.721  22.986  17.159
 2418POPC   D2A40946   0.824  22.834  17.081
 2418POPC   C3A40947   0.926  22.681  17.002
 2418POPC   C4A40948   1.029  22.528  16.924
 2418POPC   C1B40949   0.628  22.860  17.284
 2418POPC   C2B40950   0.731  22.707  17.205
 2418POPC   C3B40951   0.834  22.555  17.127
 2418POPC   C4B40952   0.936  22.402  17.048
 2419POPC   NC340953  20.769  24.022   6.581
 2419POPC   PO440954  20.650  23.864   6.614
 2419POPC   GL140955  20.531  23.706   6.647
 2419POPC   GL240956  20.501  23.709   6.552
 2419POPC   C1A40957  20.412  23.549   6.680
 2419POPC   D2A40958  20.294  23.391   6.712
 2419POPC   C3A40959  20.175  23.234   6.745
 2419POPC   C4A40960  20.056  23.076   6.778
 2419POPC   C1B40961  20.561  23.426   6.628
 2419POPC   C2B40962  20.443  23.268   6.661
 2419POPC   C3B40963  20.324  23.110   6.694
 2419POPC   C4B40964  20.205  22.953   6.727
 2420POPC   NC340965  -5.587   1.224  13.086
 2420POPC   PO440966  -5.415   1.319  13.049
 2420POPC   GL140967  -5.243   1.414  13.012
 2420POPC   GL240968  -5.277   1.494  13.062
 2420POPC   C1A40969  -5.071   1.509  12.976
 2420POPC   D2A40970  -4.898   1.604  12.939
 2420POPC   C3A40971  -4.726   1.699  12.903
 2420POPC   C4A40972  -4.554   1.794  12.866
 2420POPC   C1B40973  -4.995   1.437  13.146
 2420POPC   C2B40974  -4.822   1.532  13.109
 2420POPC   C3B40975  -4.650   1.627  13.073
 2420POPC   C4B40976  -4.478   1.722  13.036
 2421POPC   NC340977  20.411  -4.539   7.859
 2421POPC   PO440978  20.296  -4.377   7.883
 2421POPC   GL140979  20.181  -4.215   7.907
 2421POPC   GL240980  20.139  -4.232   7.817
 2421POPC   C1A40981  20.065  -4.054   7.930
 2421POPC   D2A40982  19.950  -3.892   7.954
 2421POPC   C3A40983  19.834  -3.731   7.977
 2421POPC   C4A40984  19.719  -3.569   8.001
 2421POPC   C1B40985  19.924  -4.167   8.016
 2421POPC   C2B40986  19.809  -4.005   8.040
 2421POPC   C3B40987  19.694  -3.844   8.063
 2421POPC   C4B40988  19.578  -3.682   8.087
 2422POPC   NC340989  14.401  -5.307  18.420
 2422POPC   PO440990  14.348  -5.138  18.327
 2422POPC   GL140991  14.295  -4.969  18.234
 2422POPC   GL240992  14.381  -4.927  18.262
 2422POPC   C1A40993  14.242  -4.800  18.142
 2422POPC   D2A40994  14.188  -4.630  18.049
 2422POPC   C3A40995  14.135  -4.461  17.957
 2422POPC   C4A40996  14.082  -4.292  17.864
 2422POPC   C1B40997  14.326  -4.865  17.973
 2422POPC   C2B40998  14.273  -4.696  17.880
 2422POPC   C3B40999  14.220  -4.527  17.788
 2422POPC   C4B41000  14.167  -4.358  17.695
 2423POPC   NC341001  22.342   8.329  -3.011
 2423POPC   PO441002  22.203   8.343  -2.868
 2423POPC   GL141003  22.064   8.357  -2.725
 2423POPC   GL241004  22.037   8.447  -2.760
 2423POPC   C1A41005  21.925   8.372  -2.582
 2423POPC   D2A41006  21.785   8.386  -2.440
 2423POPC   C3A41007  21.646   8.401  -2.297
 2423POPC   C4A41008  21.507   8.415  -2.154
 2423POPC   C1B41009  21.791   8.285  -2.703
 2423POPC   C2B41010  21.652   8.299  -2.561
 2423POPC   C3B41011  21.513   8.313  -2.418
 2423POPC   C4B41012  21.374   8.328  -2.275
 2424POPC   NC341013  -2.347   6.912  22.867
 2424POPC   PO441014  -2.216   6.951  22.721
 2424POPC   GL141015  -2.085   6.990  22.575
 2424POPC   GL241016  -2.022   7.029  22.642
 2424POPC   C1A41017  -1.953   7.028  22.429
 2424POPC   D2A41018  -1.822   7.067  22.284
 2424POPC   C3A41019  -1.690   7.105  22.138
 2424POPC   C4A41020  -1.559   7.144  21.992
 2424POPC   C1B41021  -1.871   6.848  22.456
 2424POPC   C2B41022  -1.739   6.887  22.310
 2424POPC   C3B41023  -1.608   6.925  22.165
 2424POPC   C4B41024  -1.476   6.964  22.019
 2425POPC   NC341025  -2.870  20.889   3.193
 2425POPC   PO441026  -2.731  20.766   3.269
 2425POPC   GL141027  -2.592  20.643   3.345
 2425POPC   GL241028  -2.627  20.661   3.437
 2425POPC   C1A41029  -2.454  20.521   3.421
 2425POPC   D2A41030  -2.315  20.398   3.496
 2425POPC   C3A41031  -2.177  20.276   3.572
 2425POPC   C4A41032  -2.038  20.153   3.648
 2425POPC   C1B41033  -2.581  20.367   3.403
 2425POPC   C2B41034  -2.442  20.244   3.479
 2425POPC   C3B41035  -2.303  20.122   3.555
 2425POPC   C4B41036  -2.165  19.999   3.631
 2426POPC   NC341037  -5.331   1.691   4.855
 2426POPC   PO441038  -5.162   1.784   4.908
 2426POPC   GL141039  -4.993   1.877   4.961
 2426POPC   GL241040  -4.995   1.830   5.049
 2426POPC   C1A41041  -4.824   1.969   5.013
 2426POPC   D2A41042  -4.654   2.062   5.066
 2426POPC   C3A41043  -4.485   2.154   5.118
 2426POPC   C4A41044  -4.316   2.247   5.171
 2426POPC   C1B41045  -4.717   1.819   4.935
 2426POPC   C2B41046  -4.548   1.911   4.988
 2426POPC   C3B41047  -4.379   2.004   5.041
 2426POPC   C4B41048  -4.210   2.097   5.093
 2427POPC   NC341049   4.431   3.183  25.759
 2427POPC   PO441050   4.484   3.256  25.580
 2427POPC   GL141051   4.537   3.329  25.401
 2427POPC   GL241052   4.549   3.236  25.367
 2427POPC   C1A41053   4.589   3.402  25.223
 2427POPC   D2A41054   4.642   3.475  25.044
 2427POPC   C3A41055   4.694   3.548  24.866
 2427POPC   C4A41056   4.747   3.621  24.687
 2427POPC   C1B41057   4.398   3.397  25.165
 2427POPC   C2B41058   4.450   3.470  24.986
 2427POPC   C3B41059   4.503   3.543  24.807
 2427POPC   C4B41060   4.556   3.616  24.629
 2428POPC   NC341061  27.379   5.646  10.427
 2428POPC   PO441062  27.184   5.691  10.421
 2428POPC   GL141063  26.989   5.736  10.415
 2428POPC   GL241064  26.983   5.698  10.322
 2428POPC   C1A41065  26.794   5.781  10.408
 2428POPC   D2A41066  26.600   5.826  10.402
 2428POPC   C3A41067  26.405   5.871  10.395
 2428POPC   C4A41068  26.210   5.916  10.389
 2428POPC   C1B41069  26.750   5.602  10.485
 2428POPC   C2B41070  26.556   5.647  10.479
 2428POPC   C3B41071  26.361   5.692  10.473
 2428POPC   C4B41072  26.166   5.737  10.466
 2429POPC   NC341073  21.253  15.310  -3.035
 2429POPC   PO441074  21.129  15.251  -2.890
 2429POPC   GL141075  21.005  15.192  -2.745
 2429POPC   GL241076  21.016  15.097  -2.773
 2429POPC   C1A41077  20.881  15.133  -2.599
 2429POPC   D2A41078  20.756  15.075  -2.454
 2429POPC   C3A41079  20.632  15.016  -2.308
 2429POPC   C4A41080  20.508  14.957  -2.163
 2429POPC   C1B41081  21.036  15.115  -2.474
 2429POPC   C2B41082  20.911  15.056  -2.329
 2429POPC   C3B41083  20.787  14.997  -2.183
 2429POPC   C4B41084  20.663  14.938  -2.038
 2430POPC   NC341085  17.956  -2.573  -0.222
 2430POPC   PO441086  17.867  -2.434  -0.109
 2430POPC   GL141087  17.778  -2.295   0.004
 2430POPC   GL241088  17.779  -2.231  -0.073
 2430POPC   C1A41089  17.688  -2.156   0.117
 2430POPC   D2A41090  17.599  -2.018   0.230
 2430POPC   C3A41091  17.509  -1.879   0.343
 2430POPC   C4A41092  17.420  -1.740   0.456
 2430POPC   C1B41093  17.509  -2.224   0.058
 2430POPC   C2B41094  17.420  -2.085   0.171
 2430POPC   C3B41095  17.331  -1.946   0.284
 2430POPC   C4B41096  17.241  -1.807   0.397
 2431POPC   NC341097  18.142  -2.925   0.383
 2431POPC   PO441098  18.050  -2.782   0.489
 2431POPC   GL141099  17.958  -2.639   0.595
 2431POPC   GL241100  17.999  -2.569   0.536
 2431POPC   C1A41101  17.866  -2.497   0.701
 2431POPC   D2A41102  17.775  -2.354   0.806
 2431POPC   C3A41103  17.683  -2.212   0.912
 2431POPC   C4A41104  17.591  -2.069   1.018
 2431POPC   C1B41105  17.708  -2.508   0.578
 2431POPC   C2B41106  17.617  -2.365   0.684
 2431POPC   C3B41107  17.525  -2.223   0.790
 2431POPC   C4B41108  17.433  -2.080   0.896
 2432POPC   NC341109   3.366  20.849  22.800
 2432POPC   PO441110   3.435  20.727  22.658
 2432POPC   GL141111   3.504  20.605  22.516
 2432POPC   GL241112   3.539  20.543  22.586
 2432POPC   C1A41113   3.573  20.483  22.373
 2432POPC   D2A41114   3.643  20.361  22.231
 2432POPC   C3A41115   3.712  20.239  22.088
 2432POPC   C4A41116   3.781  20.117  21.946
 2432POPC   C1B41117   3.399  20.385  22.372
 2432POPC   C2B41118   3.468  20.263  22.230
 2432POPC   C3B41119   3.537  20.141  22.087
 2432POPC   C4B41120   3.606  20.019  21.945
 2433POPC   NC341121  14.803  24.118  -0.206
 2433POPC   PO441122  14.746  23.960  -0.098
 2433POPC   GL141123  14.689  23.802   0.010
 2433POPC   GL241124  14.655  23.757  -0.073
 2433POPC   C1A41125  14.632  23.643   0.118
 2433POPC   D2A41126  14.574  23.485   0.225
 2433POPC   C3A41127  14.517  23.326   0.333
 2433POPC   C4A41128  14.460  23.168   0.441
 2433POPC   C1B41129  14.811  23.559   0.090
 2433POPC   C2B41130  14.754  23.401   0.198
 2433POPC   C3B41131  14.697  23.243   0.305
 2433POPC   C4B41132  14.639  23.084   0.413
 2434POPC   NC341133  -7.386   7.642   5.126
 2434POPC   PO441134  -7.195   7.660   5.182
 2434POPC   GL141135  -7.004   7.678   5.238
 2434POPC   GL241136  -7.025   7.636   5.326
 2434POPC   C1A41137  -6.813   7.697   5.294
 2434POPC   D2A41138  -6.621   7.715   5.350
 2434POPC   C3A41139  -6.430   7.734   5.406
 2434POPC   C4A41140  -6.239   7.752   5.462
 2434POPC   C1B41141  -6.772   7.517   5.216
 2434POPC   C2B41142  -6.581   7.535   5.272
 2434POPC   C3B41143  -6.390   7.554   5.328
 2434POPC   C4B41144  -6.199   7.572   5.384
 2435POPC   NC341145  21.400  -2.372   3.538
 2435POPC   PO441146  21.272  -2.235   3.608
 2435POPC   GL141147  21.144  -2.098   3.678
 2435POPC   GL241148  21.081  -2.119   3.603
 2435POPC   C1A41149  21.016  -1.961   3.748
 2435POPC   D2A41150  20.887  -1.825   3.817
 2435POPC   C3A41151  20.759  -1.688   3.887
 2435POPC   C4A41152  20.631  -1.551   3.957
 2435POPC   C1B41153  20.927  -2.101   3.860
 2435POPC   C2B41154  20.799  -1.965   3.929
 2435POPC   C3B41155  20.671  -1.828   3.999
 2435POPC   C4B41156  20.543  -1.691   4.069
 2436POPC   NC341157   3.815  20.495  23.302
 2436POPC   PO441158   3.879  20.376  23.155
 2436POPC   GL141159   3.943  20.257  23.008
 2436POPC   GL241160   3.977  20.192  23.075
 2436POPC   C1A41161   4.007  20.138  22.861
 2436POPC   D2A41162   4.072  20.019  22.713
 2436POPC   C3A41163   4.136  19.900  22.566
 2436POPC   C4A41164   4.200  19.781  22.419
 2436POPC   C1B41165   3.831  20.045  22.859
 2436POPC   C2B41166   3.895  19.926  22.712
 2436POPC   C3B41167   3.959  19.807  22.565
 2436POPC   C4B41168   4.023  19.688  22.417
 2437POPC   NC341169  22.327  19.719  18.634
 2437POPC   PO441170  22.190  19.607  18.541
 2437POPC   GL141171  22.053  19.495  18.448
 2437POPC   GL241172  22.126  19.447  18.399
 2437POPC   C1A41173  21.916  19.383  18.354
 2437POPC   D2A41174  21.779  19.272  18.261
 2437POPC   C3A41175  21.642  19.160  18.167
 2437POPC   C4A41176  21.505  19.048  18.074
 2437POPC   C1B41177  21.925  19.249  18.502
 2437POPC   C2B41178  21.788  19.137  18.408
 2437POPC   C3B41179  21.651  19.025  18.315
 2437POPC   C4B41180  21.514  18.913  18.222
 2438POPC   NC341181   6.191  -6.849  15.401
 2438POPC   PO441182   6.230  -6.663  15.340
 2438POPC   GL141183   6.269  -6.477  15.279
 2438POPC   GL241184   6.361  -6.483  15.319
 2438POPC   C1A41185   6.308  -6.290  15.219
 2438POPC   D2A41186   6.348  -6.104  15.158
 2438POPC   C3A41187   6.387  -5.917  15.098
 2438POPC   C4A41188   6.426  -5.731  15.037
 2438POPC   C1B41189   6.378  -6.361  15.045
 2438POPC   C2B41190   6.417  -6.175  14.985
 2438POPC   C3B41191   6.456  -5.988  14.924
 2438POPC   C4B41192   6.495  -5.802  14.863
 2439POPC   NC341193  12.704  -1.563  -3.630
 2439POPC   PO441194  12.673  -1.437  -3.478
 2439POPC   GL141195  12.642  -1.311  -3.326
 2439POPC   GL241196  12.734  -1.273  -3.338
 2439POPC   C1A41197  12.610  -1.184  -3.174
 2439POPC   D2A41198  12.579  -1.058  -3.023
 2439POPC   C3A41199  12.547  -0.931  -2.871
 2439POPC   C4A41200  12.516  -0.805  -2.719
 2439POPC   C1B41201  12.539  -1.048  -3.302
 2439POPC   C2B41202  12.507  -0.922  -3.151
 2439POPC   C3B41203  12.476  -0.795  -2.999
 2439POPC   C4B41204  12.445  -0.669  -2.847
 2440POPC   NC341205   2.364  23.427   0.539
 2440POPC   PO441206   2.448  23.277   0.641
 2440POPC   GL141207   2.532  23.127   0.743
 2440POPC   GL241208   2.573  23.193   0.806
 2440POPC   C1A41209   2.616  22.977   0.846
 2440POPC   D2A41210   2.700  22.828   0.948
 2440POPC   C3A41211   2.784  22.678   1.051
 2440POPC   C4A41212   2.868  22.528   1.153
 2440POPC   C1B41213   2.455  22.967   0.963
 2440POPC   C2B41214   2.539  22.817   1.066
 2440POPC   C3B41215   2.623  22.668   1.168
 2440POPC   C4B41216   2.707  22.518   1.271
 2441POPC   NC341217  27.606   8.004   7.655
 2441POPC   PO441218  27.408   8.024   7.678
 2441POPC   GL141219  27.210   8.044   7.701
 2441POPC   GL241220  27.199   7.945   7.690
 2441POPC   C1A41221  27.012   8.064   7.723
 2441POPC   D2A41222  26.815   8.084   7.746
 2441POPC   C3A41223  26.617   8.104   7.768
 2441POPC   C4A41224  26.419   8.124   7.791
 2441POPC   C1B41225  27.033   8.041   7.921
 2441POPC   C2B41226  26.835   8.061   7.943
 2441POPC   C3B41227  26.637   8.081   7.966
 2441POPC   C4B41228  26.439   8.101   7.989
 2442POPC   NC341229  12.895   5.490  -7.299
 2442POPC   PO441230  12.865   5.544  -7.109
 2442POPC   GL141231  12.835   5.598  -6.919
 2442POPC   GL241232  12.793   5.683  -6.949
 2442POPC   C1A41233  12.806   5.651  -6.728
 2442POPC   D2A41234  12.776   5.705  -6.538
 2442POPC   C3A41235  12.747   5.758  -6.347
 2442POPC   C4A41236  12.717   5.812  -6.157
 2442POPC   C1B41237  12.627   5.562  -6.731
 2442POPC   C2B41238  12.597   5.616  -6.541
 2442POPC   C3B41239  12.568   5.669  -6.350
 2442POPC   C4B41240  12.538   5.723  -6.160
 2443POPC   NC341241  -5.032  12.749  19.748
 2443POPC   PO441242  -4.868  12.724  19.636
 2443POPC   GL141243  -4.704  12.699  19.524
 2443POPC   GL241244  -4.657  12.768  19.578
 2443POPC   C1A41245  -4.540  12.674  19.412
 2443POPC   D2A41246  -4.376  12.649  19.301
 2443POPC   C3A41247  -4.212  12.624  19.189
 2443POPC   C4A41248  -4.048  12.599  19.077
 2443POPC   C1B41249  -4.476  12.532  19.538
 2443POPC   C2B41250  -4.312  12.507  19.426
 2443POPC   C3B41251  -4.148  12.482  19.314
 2443POPC   C4B41252  -3.984  12.457  19.203
 2444POPC   NC341253  12.333  27.660   7.269
 2444POPC   PO441254  12.305  27.464   7.301
 2444POPC   GL141255  12.277  27.268   7.333
 2444POPC   GL241256  12.350  27.269   7.401
 2444POPC   C1A41257  12.249  27.073   7.364
 2444POPC   D2A41258  12.222  26.877   7.396
 2444POPC   C3A41259  12.194  26.682   7.427
 2444POPC   C4A41260  12.166  26.486   7.459
 2444POPC   C1B41261  12.115  27.115   7.506
 2444POPC   C2B41262  12.087  26.919   7.537
 2444POPC   C3B41263  12.059  26.724   7.569
 2444POPC   C4B41264  12.031  26.528   7.601
 2445POPC   NC341265  18.165  25.893   8.965
 2445POPC   PO441266  18.072  25.716   8.974
 2445POPC   GL141267  17.979  25.539   8.983
 2445POPC   GL241268  18.049  25.499   8.923
 2445POPC   C1A41269  17.887  25.362   8.992
 2445POPC   D2A41270  17.794  25.185   9.001
 2445POPC   C3A41271  17.702  25.008   9.010
 2445POPC   C4A41272  17.609  24.831   9.019
 2445POPC   C1B41273  17.996  25.313   9.152
 2445POPC   C2B41274  17.903  25.136   9.161
 2445POPC   C3B41275  17.811  24.959   9.170
 2445POPC   C4B41276  17.718  24.782   9.179
 2446POPC   NC341277   8.025  27.918   9.039
 2446POPC   PO441278   8.042  27.719   9.050
 2446POPC   GL141279   8.059  27.520   9.061
 2446POPC   GL241280   8.150  27.525   9.019
 2446POPC   C1A41281   8.076  27.321   9.072
 2446POPC   D2A41282   8.092  27.122   9.083
 2446POPC   C3A41283   8.109  26.923   9.094
 2446POPC   C4A41284   8.126  26.724   9.105
 2446POPC   C1B41285   8.158  27.338   9.254
 2446POPC   C2B41286   8.175  27.139   9.265
 2446POPC   C3B41287   8.191  26.940   9.276
 2446POPC   C4B41288   8.208  26.741   9.287
 2447POPC   NC341289   4.620  -6.868  13.764
 2447POPC   PO441290   4.679  -6.681  13.723
 2447POPC   GL141291   4.738  -6.494  13.682
 2447POPC   GL241292   4.818  -6.507  13.741
 2447POPC   C1A41293   4.796  -6.307  13.642
 2447POPC   D2A41294   4.855  -6.121  13.601
 2447POPC   C3A41295   4.913  -5.934  13.561
 2447POPC   C4A41296   4.972  -5.747  13.520
 2447POPC   C1B41297   4.901  -6.374  13.485
 2447POPC   C2B41298   4.959  -6.187  13.444
 2447POPC   C3B41299   5.018  -6.001  13.404
 2447POPC   C4B41300   5.076  -5.814  13.363
 2448POPC   NC341301  15.374   9.020  -7.228
 2448POPC   PO441302  15.305   9.033  -7.041
 2448POPC   GL141303  15.236   9.046  -6.854
 2448POPC   GL241304  15.145   9.019  -6.885
 2448POPC   C1A41305  15.167   9.059  -6.667
 2448POPC   D2A41306  15.097   9.073  -6.479
 2448POPC   C3A41307  15.028   9.086  -6.292
 2448POPC   C4A41308  14.959   9.099  -6.105
 2448POPC   C1B41309  15.214   8.868  -6.636
 2448POPC   C2B41310  15.145   8.881  -6.448
 2448POPC   C3B41311  15.075   8.894  -6.261
 2448POPC   C4B41312  15.006   8.907  -6.074
 2449POPC   NC341313  19.060   4.312  -4.501
 2449POPC   PO441314  18.958   4.375  -4.341
 2449POPC   GL141315  18.856   4.438  -4.181
 2449POPC   GL241316  18.926   4.508  -4.164
 2449POPC   C1A41317  18.755   4.501  -4.020
 2449POPC   D2A41318  18.653   4.564  -3.860
 2449POPC   C3A41319  18.552   4.627  -3.699
 2449POPC   C4A41320  18.450   4.690  -3.539
 2449POPC   C1B41321  18.654   4.630  -4.135
 2449POPC   C2B41322  18.552   4.693  -3.974
 2449POPC   C3B41323  18.451   4.756  -3.814
 2449POPC   C4B41324  18.349   4.819  -3.654
 2450POPC   NC341325  -5.239   8.435   0.169
 2450POPC   PO441326  -5.073   8.452   0.279
 2450POPC   GL141327  -4.907   8.469   0.389
 2450POPC   GL241328  -4.926   8.566   0.402
 2450POPC   C1A41329  -4.740   8.486   0.498
 2450POPC   D2A41330  -4.574   8.503   0.608
 2450POPC   C3A41331  -4.407   8.520   0.717
 2450POPC   C4A41332  -4.241   8.537   0.827
 2450POPC   C1B41333  -4.844   8.443   0.663
 2450POPC   C2B41334  -4.678   8.460   0.773
 2450POPC   C3B41335  -4.512   8.477   0.882
 2450POPC   C4B41336  -4.345   8.494   0.992
 2451POPC   NC341337  -2.286  18.019  20.594
 2451POPC   PO441338  -2.154  17.930  20.473
 2451POPC   GL141339  -2.022  17.841  20.352
 2451POPC   GL241340  -1.959  17.918  20.365
 2451POPC   C1A41341  -1.889  17.753  20.231
 2451POPC   D2A41342  -1.757  17.664  20.111
 2451POPC   C3A41343  -1.624  17.576  19.990
 2451POPC   C4A41344  -1.492  17.487  19.869
 2451POPC   C1B41345  -1.808  17.660  20.389
 2451POPC   C2B41346  -1.675  17.572  20.268
 2451POPC   C3B41347  -1.543  17.483  20.147
 2451POPC   C4B41348  -1.410  17.394  20.026
 2452POPC   NC341349  14.928  26.856   6.146
 2452POPC   PO441350  14.872  26.669   6.192
 2452POPC   GL141351  14.816  26.482   6.238
 2452POPC   GL241352  14.889  26.446   6.180
 2452POPC   C1A41353  14.760  26.296   6.283
 2452POPC   D2A41354  14.705  26.109   6.329
 2452POPC   C3A41355  14.649  25.923   6.374
 2452POPC   C4A41356  14.593  25.736   6.420
 2452POPC   C1B41357  14.885  26.297   6.440
 2452POPC   C2B41358  14.829  26.110   6.486
 2452POPC   C3B41359  14.773  25.924   6.531
 2452POPC   C4B41360  14.717  25.737   6.577
 2453POPC   NC341361  19.839  20.283  -1.015
 2453POPC   PO441362  19.727  20.166  -0.898
 2453POPC   GL141363  19.615  20.049  -0.781
 2453POPC   GL241364  19.695  19.992  -0.761
 2453POPC   C1A41365  19.503  19.932  -0.663
 2453POPC   D2A41366  19.392  19.814  -0.546
 2453POPC   C3A41367  19.280  19.697  -0.428
 2453POPC   C4A41368  19.168  19.580  -0.311
 2453POPC   C1B41369  19.547  20.047  -0.506
 2453POPC   C2B41370  19.436  19.930  -0.389
 2453POPC   C3B41371  19.324  19.813  -0.271
 2453POPC   C4B41372  19.212  19.696  -0.154
 2454POPC   NC341373   2.610  12.465  26.254
 2454POPC   PO441374   2.684  12.438  26.070
 2454POPC   GL141375   2.758  12.411  25.886
 2454POPC   GL241376   2.811  12.495  25.895
 2454POPC   C1A41377   2.832  12.384  25.702
 2454POPC   D2A41378   2.905  12.357  25.518
 2454POPC   C3A41379   2.979  12.330  25.334
 2454POPC   C4A41380   3.053  12.303  25.150
 2454POPC   C1B41381   2.984  12.280  25.778
 2454POPC   C2B41382   3.058  12.253  25.594
 2454POPC   C3B41383   3.132  12.226  25.410
 2454POPC   C4B41384   3.205  12.199  25.226
 2455POPC   NC341385   5.362  -6.320   3.643
 2455POPC   PO441386   5.410  -6.139   3.713
 2455POPC   GL141387   5.458  -5.958   3.783
 2455POPC   GL241388   5.539  -5.997   3.827
 2455POPC   C1A41389   5.506  -5.777   3.853
 2455POPC   D2A41390   5.555  -5.596   3.923
 2455POPC   C3A41391   5.603  -5.415   3.993
 2455POPC   C4A41392   5.651  -5.234   4.063
 2455POPC   C1B41393   5.614  -5.742   3.688
 2455POPC   C2B41394   5.662  -5.561   3.758
 2455POPC   C3B41395   5.710  -5.380   3.828
 2455POPC   C4B41396   5.758  -5.199   3.898
 2456POPC   NC341397   8.809  -2.861  22.574
 2456POPC   PO441398   8.816  -2.717  22.435
 2456POPC   GL141399   8.823  -2.573  22.296
 2456POPC   GL241400   8.826  -2.643  22.224
 2456POPC   C1A41401   8.830  -2.429  22.157
 2456POPC   D2A41402   8.838  -2.286  22.019
 2456POPC   C3A41403   8.845  -2.142  21.880
 2456POPC   C4A41404   8.852  -1.998  21.741
 2456POPC   C1B41405   8.631  -2.428  22.149
 2456POPC   C2B41406   8.638  -2.284  22.010
 2456POPC   C3B41407   8.645  -2.140  21.871
 2456POPC   C4B41408   8.652  -1.996  21.732
 2457POPC   NC341409  -6.810  11.645  16.773
 2457POPC   PO441410  -6.625  11.630  16.697
 2457POPC   GL141411  -6.440  11.615  16.621
 2457POPC   GL241412  -6.421  11.539  16.684
 2457POPC   C1A41413  -6.256  11.600  16.546
 2457POPC   D2A41414  -6.071  11.584  16.470
 2457POPC   C3A41415  -5.887  11.569  16.395
 2457POPC   C4A41416  -5.702  11.554  16.319
 2457POPC   C1B41417  -6.323  11.470  16.409
 2457POPC   C2B41418  -6.138  11.455  16.333
 2457POPC   C3B41419  -5.953  11.440  16.258
 2457POPC   C4B41420  -5.769  11.425  16.182
 2458POPC   NC341421  27.711  12.473  10.105
 2458POPC   PO441422  27.512  12.451  10.101
 2458POPC   GL141423  27.313  12.429  10.097
 2458POPC   GL241424  27.308  12.494  10.021
 2458POPC   C1A41425  27.114  12.408  10.093
 2458POPC   D2A41426  26.916  12.386  10.089
 2458POPC   C3A41427  26.717  12.365  10.085
 2458POPC   C4A41428  26.518  12.343  10.081
 2458POPC   C1B41429  27.133  12.256   9.964
 2458POPC   C2B41430  26.935  12.235   9.960
 2458POPC   C3B41431  26.736  12.213   9.956
 2458POPC   C4B41432  26.537  12.191   9.952
 2459POPC   NC341433  16.999  23.236  19.889
 2459POPC   PO441434  16.919  23.087  19.782
 2459POPC   GL141435  16.839  22.938  19.675
 2459POPC   GL241436  16.876  22.872  19.740
 2459POPC   C1A41437  16.759  22.789  19.568
 2459POPC   D2A41438  16.678  22.640  19.462
 2459POPC   C3A41439  16.598  22.491  19.355
 2459POPC   C4A41440  16.518  22.342  19.248
 2459POPC   C1B41441  16.591  22.802  19.677
 2459POPC   C2B41442  16.511  22.653  19.570
 2459POPC   C3B41443  16.431  22.504  19.463
 2459POPC   C4B41444  16.350  22.355  19.356
 2460POPC   NC341445  -3.940  20.980  13.683
 2460POPC   PO441446  -3.786  20.860  13.641
 2460POPC   GL141447  -3.632  20.740  13.599
 2460POPC   GL241448  -3.640  20.698  13.689
 2460POPC   C1A41449  -3.478  20.619  13.557
 2460POPC   D2A41450  -3.324  20.499  13.515
 2460POPC   C3A41451  -3.170  20.378  13.473
 2460POPC   C4A41452  -3.016  20.258  13.431
 2460POPC   C1B41453  -3.604  20.483  13.483
 2460POPC   C2B41454  -3.450  20.363  13.441
 2460POPC   C3B41455  -3.296  20.242  13.399
 2460POPC   C4B41456  -3.142  20.122  13.357
 2461POPC   NC341457   2.983  23.914   0.777
 2461POPC   PO441458   3.060  23.760   0.879
 2461POPC   GL141459   3.137  23.606   0.981
 2461POPC   GL241460   3.178  23.669   1.046
 2461POPC   C1A41461   3.214  23.452   1.082
 2461POPC   D2A41462   3.290  23.297   1.184
 2461POPC   C3A41463   3.367  23.143   1.285
 2461POPC   C4A41464   3.444  22.989   1.387
 2461POPC   C1B41465   3.048  23.443   1.194
 2461POPC   C2B41466   3.125  23.289   1.296
 2461POPC   C3B41467   3.202  23.135   1.398
 2461POPC   C4B41468   3.279  22.981   1.499
 2462POPC   NC341469   5.053  14.193  26.778
 2462POPC   PO441470   5.102  14.158  26.587
 2462POPC   GL141471   5.151  14.123  26.396
 2462POPC   GL241472   5.164  14.221  26.382
 2462POPC   C1A41473   5.200  14.088  26.205
 2462POPC   D2A41474   5.249  14.053  26.015
 2462POPC   C3A41475   5.298  14.018  25.824
 2462POPC   C4A41476   5.347  13.983  25.633
 2462POPC   C1B41477   5.392  14.071  26.258
 2462POPC   C2B41478   5.441  14.036  26.067
 2462POPC   C3B41479   5.490  14.001  25.876
 2462POPC   C4B41480   5.539  13.966  25.686
 2463POPC   NC341481  22.571   8.332  22.649
 2463POPC   PO441482  22.429   8.352  22.510
 2463POPC   GL141483  22.287   8.372  22.371
 2463POPC   GL241484  22.350   8.422  22.313
 2463POPC   C1A41485  22.145   8.391  22.232
 2463POPC   D2A41486  22.002   8.411  22.092
 2463POPC   C3A41487  21.860   8.430  21.953
 2463POPC   C4A41488  21.718   8.450  21.814
 2463POPC   C1B41489  22.204   8.220  22.147
 2463POPC   C2B41490  22.062   8.240  22.008
 2463POPC   C3B41491  21.920   8.259  21.868
 2463POPC   C4B41492  21.777   8.279  21.729
 2464POPC   NC341493  13.569  21.287  -3.676
 2464POPC   PO441494  13.534  21.165  -3.522
 2464POPC   GL141495  13.499  21.043  -3.368
 2464POPC   GL241496  13.473  20.970  -3.431
 2464POPC   C1A41497  13.463  20.920  -3.214
 2464POPC   D2A41498  13.428  20.798  -3.059
 2464POPC   C3A41499  13.392  20.675  -2.905
 2464POPC   C4A41500  13.357  20.553  -2.751
 2464POPC   C1B41501  13.653  20.858  -3.219
 2464POPC   C2B41502  13.618  20.736  -3.065
 2464POPC   C3B41503  13.583  20.614  -2.911
 2464POPC   C4B41504  13.547  20.491  -2.756
 2465POPC   NC341505  26.431   7.927   3.043
 2465POPC   PO441506  26.248   7.949   3.120
 2465POPC   GL141507  26.065   7.971   3.197
 2465POPC   GL241508  26.071   8.070   3.185
 2465POPC   C1A41509  25.882   7.992   3.274
 2465POPC   D2A41510  25.698   8.014   3.351
 2465POPC   C3A41511  25.515   8.035   3.428
 2465POPC   C4A41512  25.332   8.057   3.505
 2465POPC   C1B41513  25.803   7.975   3.091
 2465POPC   C2B41514  25.619   7.996   3.168
 2465POPC   C3B41515  25.436   8.018   3.245
 2465POPC   C4B41516  25.253   8.040   3.322
 2466POPC   NC341517  -1.066  20.532  19.717
 2466POPC   PO441518  -0.944  20.417  19.608
 2466POPC   GL141519  -0.822  20.302  19.499
 2466POPC   GL241520  -0.750  20.372  19.506
 2466POPC   C1A41521  -0.699  20.187  19.391
 2466POPC   D2A41522  -0.577  20.073  19.282
 2466POPC   C3A41523  -0.454  19.958  19.174
 2466POPC   C4A41524  -0.332  19.843  19.065
 2466POPC   C1B41525  -0.632  20.101  19.558
 2466POPC   C2B41526  -0.509  19.986  19.450
 2466POPC   C3B41527  -0.387  19.872  19.341
 2466POPC   C4B41528  -0.264  19.757  19.232
 2467POPC   NC341529  -0.102  24.015  15.327
 2467POPC   PO441530   0.005  23.858  15.265
 2467POPC   GL141531   0.112  23.701  15.203
 2467POPC   GL241532   0.139  23.682  15.298
 2467POPC   C1A41533   0.219  23.543  15.142
 2467POPC   D2A41534   0.326  23.386  15.080
 2467POPC   C3A41535   0.433  23.228  15.019
 2467POPC   C4A41536   0.540  23.071  14.957
 2467POPC   C1B41537   0.059  23.426  15.163
 2467POPC   C2B41538   0.166  23.268  15.102
 2467POPC   C3B41539   0.273  23.111  15.040
 2467POPC   C4B41540   0.380  22.954  14.979
 2468POPC   NC341541  20.268  -0.301  -0.619
 2468POPC   PO441542  20.150  -0.190  -0.502
 2468POPC   GL141543  20.032  -0.079  -0.385
 2468POPC   GL241544  19.955  -0.096  -0.446
 2468POPC   C1A41545  19.914   0.032  -0.267
 2468POPC   D2A41546  19.795   0.142  -0.150
 2468POPC   C3A41547  19.677   0.253  -0.032
 2468POPC   C4A41548  19.559   0.364   0.085
 2468POPC   C1B41549  19.865  -0.132  -0.162
 2468POPC   C2B41550  19.747  -0.021  -0.045
 2468POPC   C3B41551  19.629   0.090   0.073
 2468POPC   C4B41552  19.511   0.201   0.190
 2469POPC   NC341553  -2.176   3.468  21.608
 2469POPC   PO441554  -2.047   3.540  21.473
 2469POPC   GL141555  -1.918   3.612  21.338
 2469POPC   GL241556  -1.884   3.519  21.321
 2469POPC   C1A41557  -1.789   3.684  21.204
 2469POPC   D2A41558  -1.659   3.755  21.069
 2469POPC   C3A41559  -1.530   3.827  20.935
 2469POPC   C4A41560  -1.401   3.899  20.800
 2469POPC   C1B41561  -1.926   3.661  21.060
 2469POPC   C2B41562  -1.796   3.733  20.925
 2469POPC   C3B41563  -1.667   3.804  20.791
 2469POPC   C4B41564  -1.538   3.876  20.656
 2470POPC   NC341565   0.620   4.268  24.274
 2470POPC   PO441566   0.728   4.334  24.119
 2470POPC   GL141567   0.836   4.400  23.964
 2470POPC   GL241568   0.882   4.311  23.958
 2470POPC   C1A41569   0.944   4.466  23.809
 2470POPC   D2A41570   1.051   4.531  23.653
 2470POPC   C3A41571   1.159   4.597  23.498
 2470POPC   C4A41572   1.267   4.663  23.343
 2470POPC   C1B41573   0.802   4.400  23.683
 2470POPC   C2B41574   0.910   4.466  23.528
 2470POPC   C3B41575   1.018   4.532  23.372
 2470POPC   C4B41576   1.126   4.598  23.217
 2471POPC   NC341577  -7.767  11.764   6.734
 2471POPC   PO441578  -7.572  11.745   6.773
 2471POPC   GL141579  -7.377  11.726   6.812
 2471POPC   GL241580  -7.399  11.690   6.903
 2471POPC   C1A41581  -7.182  11.707   6.851
 2471POPC   D2A41582  -6.986  11.687   6.890
 2471POPC   C3A41583  -6.791  11.668   6.929
 2471POPC   C4A41584  -6.596  11.649   6.968
 2471POPC   C1B41585  -7.185  11.521   6.776
 2471POPC   C2B41586  -6.990  11.502   6.815
 2471POPC   C3B41587  -6.795  11.483   6.854
 2471POPC   C4B41588  -6.599  11.463   6.893
 2472POPC   NC341589   5.003   0.764  -4.864
 2472POPC   PO441590   5.061   0.870  -4.704
 2472POPC   GL141591   5.119   0.976  -4.544
 2472POPC   GL241592   5.195   0.913  -4.530
 2472POPC   C1A41593   5.176   1.082  -4.385
 2472POPC   D2A41594   5.234   1.188  -4.225
 2472POPC   C3A41595   5.291   1.294  -4.066
 2472POPC   C4A41596   5.349   1.400  -3.906
 2472POPC   C1B41597   5.292   1.196  -4.502
 2472POPC   C2B41598   5.349   1.302  -4.342
 2472POPC   C3B41599   5.407   1.408  -4.183
 2472POPC   C4B41600   5.465   1.514  -4.023
 2473POPC   NC341601   3.882  27.023   8.811
 2473POPC   PO441602   3.950  26.835   8.823
 2473POPC   GL141603   4.018  26.647   8.835
 2473POPC   GL241604   4.022  26.655   8.935
 2473POPC   C1A41605   4.086  26.460   8.847
 2473POPC   D2A41606   4.155  26.272   8.859
 2473POPC   C3A41607   4.223  26.085   8.871
 2473POPC   C4A41608   4.291  25.897   8.883
 2473POPC   C1B41609   3.899  26.392   8.859
 2473POPC   C2B41610   3.967  26.205   8.871
 2473POPC   C3B41611   4.035  26.017   8.883
 2473POPC   C4B41612   4.103  25.829   8.895
 2474POPC   NC341613   0.408  24.980  13.433
 2474POPC   PO441614   0.509  24.813  13.388
 2474POPC   GL141615   0.610  24.646  13.343
 2474POPC   GL241616   0.689  24.701  13.319
 2474POPC   C1A41617   0.710  24.479  13.299
 2474POPC   D2A41618   0.811  24.312  13.254
 2474POPC   C3A41619   0.911  24.145  13.210
 2474POPC   C4A41620   1.012  23.978  13.165
 2474POPC   C1B41621   0.776  24.468  13.487
 2474POPC   C2B41622   0.877  24.301  13.443
 2474POPC   C3B41623   0.977  24.134  13.398
 2474POPC   C4B41624   1.078  23.967  13.353
 2475POPC   NC341625   4.316  21.525  22.624
 2475POPC   PO441626   4.374  21.395  22.483
 2475POPC   GL141627   4.432  21.265  22.342
 2475POPC   GL241628   4.467  21.341  22.287
 2475POPC   C1A41629   4.490  21.136  22.201
 2475POPC   D2A41630   4.547  21.006  22.060
 2475POPC   C3A41631   4.605  20.877  21.919
 2475POPC   C4A41632   4.663  20.747  21.778
 2475POPC   C1B41633   4.668  21.118  22.290
 2475POPC   C2B41634   4.725  20.988  22.149
 2475POPC   C3B41635   4.783  20.859  22.008
 2475POPC   C4B41636   4.841  20.729  21.867
 2476POPC   NC341637   5.692  25.833   2.288
 2476POPC   PO441638   5.738  25.660   2.378
 2476POPC   GL141639   5.784  25.487   2.468
 2476POPC   GL241640   5.857  25.472   2.401
 2476POPC   C1A41641   5.830  25.314   2.557
 2476POPC   D2A41642   5.875  25.142   2.647
 2476POPC   C3A41643   5.921  24.969   2.736
 2476POPC   C4A41644   5.967  24.796   2.826
 2476POPC   C1B41645   5.959  25.410   2.676
 2476POPC   C2B41646   6.005  25.237   2.765
 2476POPC   C3B41647   6.051  25.065   2.855
 2476POPC   C4B41648   6.096  24.892   2.945
 2477POPC   NC341649  23.925  21.310   9.320
 2477POPC   PO441650  23.765  21.191   9.331
 2477POPC   GL141651  23.605  21.072   9.342
 2477POPC   GL241652  23.560  21.126   9.270
 2477POPC   C1A41653  23.445  20.953   9.352
 2477POPC   D2A41654  23.284  20.833   9.363
 2477POPC   C3A41655  23.124  20.714   9.373
 2477POPC   C4A41656  22.964  20.595   9.384
 2477POPC   C1B41657  23.524  20.834   9.213
 2477POPC   C2B41658  23.364  20.714   9.223
 2477POPC   C3B41659  23.204  20.595   9.234
 2477POPC   C4B41660  23.043  20.476   9.244
 2478POPC   NC341661  25.054   0.775   6.869
 2478POPC   PO441662  24.885   0.877   6.900
 2478POPC   GL141663  24.716   0.979   6.931
 2478POPC   GL241664  24.739   1.041   6.856
 2478POPC   C1A41665  24.547   1.081   6.963
 2478POPC   D2A41666  24.377   1.182   6.994
 2478POPC   C3A41667  24.208   1.284   7.026
 2478POPC   C4A41668  24.039   1.386   7.057
 2478POPC   C1B41669  24.451   0.961   6.834
 2478POPC   C2B41670  24.282   1.063   6.866
 2478POPC   C3B41671  24.112   1.164   6.897
 2478POPC   C4B41672  23.943   1.266   6.929
 2479POPC   NC341673   0.824  18.678  22.876
 2479POPC   PO441674   0.928  18.586  22.733
 2479POPC   GL141675   1.032  18.494  22.590
 2479POPC   GL241676   1.101  18.466  22.657
 2479POPC   C1A41677   1.136  18.401  22.446
 2479POPC   D2A41678   1.241  18.309  22.303
 2479POPC   C3A41679   1.345  18.216  22.159
 2479POPC   C4A41680   1.449  18.124  22.016
 2479POPC   C1B41681   1.035  18.232  22.482
 2479POPC   C2B41682   1.139  18.140  22.338
 2479POPC   C3B41683   1.244  18.048  22.195
 2479POPC   C4B41684   1.348  17.955  22.051
 2480POPC   NC341685   4.695  25.270   1.819
 2480POPC   PO441686   4.753  25.103   1.913
 2480POPC   GL141687   4.811  24.936   2.007
 2480POPC   GL241688   4.861  24.992   2.074
 2480POPC   C1A41689   4.869  24.770   2.102
 2480POPC   D2A41690   4.927  24.603   2.196
 2480POPC   C3A41691   4.985  24.437   2.291
 2480POPC   C4A41692   5.043  24.270   2.385
 2480POPC   C1B41693   4.705  24.778   2.216
 2480POPC   C2B41694   4.763  24.611   2.311
 2480POPC   C3B41695   4.821  24.444   2.405
 2480POPC   C4B41696   4.879  24.278   2.499
 2481POPC   NC341697   6.483  -0.436  -4.459
 2481POPC   PO441698   6.522  -0.317  -4.303
 2481POPC   GL141699   6.561  -0.198  -4.147
 2481POPC   GL241700   6.607  -0.274  -4.101
 2481POPC   C1A41701   6.601  -0.078  -3.992
 2481POPC   D2A41702   6.640   0.041  -3.836
 2481POPC   C3A41703   6.680   0.161  -3.681
 2481POPC   C4A41704   6.719   0.280  -3.525
 2481POPC   C1B41705   6.775  -0.026  -4.076
 2481POPC   C2B41706   6.814   0.093  -3.920
 2481POPC   C3B41707   6.854   0.212  -3.765
 2481POPC   C4B41708   6.893   0.332  -3.609
 2482POPC   NC341709  11.060  27.534   5.931
 2482POPC   PO441710  11.045  27.339   5.974
 2482POPC   GL141711  11.030  27.144   6.017
 2482POPC   GL241712  11.081  27.160   6.102
 2482POPC   C1A41713  11.015  26.950   6.061
 2482POPC   D2A41714  11.001  26.755   6.104
 2482POPC   C3A41715  10.986  26.561   6.148
 2482POPC   C4A41716  10.971  26.366   6.191
 2482POPC   C1B41717  10.844  26.984   6.158
 2482POPC   C2B41718  10.829  26.790   6.201
 2482POPC   C3B41719  10.814  26.595   6.245
 2482POPC   C4B41720  10.800  26.401   6.288
 2483POPC   NC341721   9.426  24.710  -0.450
 2483POPC   PO441722   9.434  24.549  -0.332
 2483POPC   GL141723   9.442  24.388  -0.214
 2483POPC   GL241724   9.438  24.447  -0.133
 2483POPC   C1A41725   9.449  24.227  -0.096
 2483POPC   D2A41726   9.457  24.065   0.023
 2483POPC   C3A41727   9.464  23.904   0.141
 2483POPC   C4A41728   9.472  23.743   0.259
 2483POPC   C1B41729   9.249  24.217  -0.096
 2483POPC   C2B41730   9.257  24.055   0.022
 2483POPC   C3B41731   9.265  23.894   0.140
 2483POPC   C4B41732   9.272  23.733   0.258
 2484POPC   NC341733  19.837  16.273  23.468
 2484POPC   PO441734  19.723  16.206  23.318
 2484POPC   GL141735  19.609  16.139  23.168
 2484POPC   GL241736  19.685  16.155  23.104
 2484POPC   C1A41737  19.496  16.072  23.017
 2484POPC   D2A41738  19.382  16.006  22.867
 2484POPC   C3A41739  19.269  15.939  22.716
 2484POPC   C4A41740  19.155  15.872  22.566
 2484POPC   C1B41741  19.563  15.887  23.049
 2484POPC   C2B41742  19.449  15.820  22.899
 2484POPC   C3B41743  19.336  15.753  22.748
 2484POPC   C4B41744  19.222  15.686  22.598
 2485POPC   NC341745  10.773  18.558  25.810
 2485POPC   PO441746  10.757  18.467  25.632
 2485POPC   GL141747  10.741  18.376  25.454
 2485POPC   GL241748  10.840  18.384  25.442
 2485POPC   C1A41749  10.725  18.286  25.277
 2485POPC   D2A41750  10.709  18.195  25.099
 2485POPC   C3A41751  10.693  18.105  24.922
 2485POPC   C4A41752  10.677  18.014  24.744
 2485POPC   C1B41753  10.749  18.108  25.365
 2485POPC   C2B41754  10.733  18.018  25.188
 2485POPC   C3B41755  10.717  17.927  25.010
 2485POPC   C4B41756  10.701  17.836  24.833
 2486POPC   NC341757  26.291   2.590  11.176
 2486POPC   PO441758  26.109   2.672  11.161
 2486POPC   GL141759  25.927   2.754  11.146
 2486POPC   GL241760  25.948   2.783  11.053
 2486POPC   C1A41761  25.745   2.836  11.131
 2486POPC   D2A41762  25.564   2.918  11.117
 2486POPC   C3A41763  25.382   3.000  11.102
 2486POPC   C4A41764  25.200   3.082  11.087
 2486POPC   C1B41765  25.673   2.663  11.061
 2486POPC   C2B41766  25.492   2.745  11.046
 2486POPC   C3B41767  25.310   2.827  11.031
 2486POPC   C4B41768  25.128   2.909  11.016
 2487POPC   NC341769   1.900  17.679  24.186
 2487POPC   PO441770   1.995  17.596  24.031
 2487POPC   GL141771   2.090  17.513  23.876
 2487POPC   GL241772   2.148  17.462  23.939
 2487POPC   C1A41773   2.185  17.430  23.721
 2487POPC   D2A41774   2.281  17.346  23.566
 2487POPC   C3A41775   2.376  17.263  23.411
 2487POPC   C4A41776   2.471  17.180  23.256
 2487POPC   C1B41777   2.054  17.279  23.721
 2487POPC   C2B41778   2.149  17.196  23.566
 2487POPC   C3B41779   2.244  17.113  23.411
 2487POPC   C4B41780   2.339  17.029  23.256
 2488POPC   NC341781  23.697  18.383  18.034
 2488POPC   PO441782  23.547  18.285  17.945
 2488POPC   GL141783  23.397  18.187  17.856
 2488POPC   GL241784  23.394  18.257  17.784
 2488POPC   C1A41785  23.247  18.090  17.767
 2488POPC   D2A41786  23.096  17.992  17.679
 2488POPC   C3A41787  22.946  17.895  17.590
 2488POPC   C4A41788  22.796  17.797  17.501
 2488POPC   C1B41789  23.379  17.984  17.661
 2488POPC   C2B41790  23.228  17.886  17.572
 2488POPC   C3B41791  23.078  17.789  17.483
 2488POPC   C4B41792  22.928  17.691  17.395
 2489POPC   NC341793  21.815  -2.501  15.152
 2489POPC   PO441794  21.684  -2.362  15.094
 2489POPC   GL141795  21.553  -2.223  15.036
 2489POPC   GL241796  21.556  -2.258  14.942
 2489POPC   C1A41797  21.421  -2.084  14.978
 2489POPC   D2A41798  21.290  -1.944  14.919
 2489POPC   C3A41799  21.158  -1.805  14.861
 2489POPC   C4A41800  21.027  -1.666  14.803
 2489POPC   C1B41801  21.271  -2.208  15.019
 2489POPC   C2B41802  21.139  -2.069  14.961
 2489POPC   C3B41803  21.008  -1.930  14.903
 2489POPC   C4B41804  20.876  -1.791  14.845
 2490POPC   NC341805   3.573  -2.053  21.849
 2490POPC   PO441806   3.642  -1.918  21.718
 2490POPC   GL141807   3.711  -1.783  21.587
 2490POPC   GL241808   3.730  -1.720  21.662
 2490POPC   C1A41809   3.780  -1.648  21.457
 2490POPC   D2A41810   3.849  -1.514  21.326
 2490POPC   C3A41811   3.918  -1.379  21.196
 2490POPC   C4A41812   3.987  -1.244  21.065
 2490POPC   C1B41813   3.964  -1.725  21.475
 2490POPC   C2B41814   4.033  -1.590  21.345
 2490POPC   C3B41815   4.102  -1.455  21.214
 2490POPC   C4B41816   4.171  -1.320  21.084
 2491POPC   NC341817  15.594  -0.552  -3.581
 2491POPC   PO441818  15.534  -0.431  -3.433
 2491POPC   GL141819  15.474  -0.310  -3.285
 2491POPC   GL241820  15.473  -0.233  -3.349
 2491POPC   C1A41821  15.415  -0.189  -3.137
 2491POPC   D2A41822  15.355  -0.068  -2.990
 2491POPC   C3A41823  15.296   0.053  -2.842
 2491POPC   C4A41824  15.236   0.174  -2.694
 2491POPC   C1B41825  15.224  -0.230  -3.181
 2491POPC   C2B41826  15.164  -0.109  -3.033
 2491POPC   C3B41827  15.105   0.012  -2.885
 2491POPC   C4B41828  15.045   0.133  -2.738
 2492POPC   NC341829  26.209  14.909   3.958
 2492POPC   PO441830  26.029  14.853   4.025
 2492POPC   GL141831  25.849  14.797   4.092
 2492POPC   GL241832  25.807  14.871   4.039
 2492POPC   C1A41833  25.669  14.742   4.159
 2492POPC   D2A41834  25.489  14.686   4.226
 2492POPC   C3A41835  25.309  14.631   4.293
 2492POPC   C4A41836  25.129  14.575   4.360
 2492POPC   C1B41837  25.649  14.619   4.003
 2492POPC   C2B41838  25.469  14.563   4.070
 2492POPC   C3B41839  25.289  14.508   4.137
 2492POPC   C4B41840  25.109  14.452   4.204
 2493POPC   NC341841  26.577  15.166  14.303
 2493POPC   PO441842  26.391  15.113  14.252
 2493POPC   GL141843  26.205  15.060  14.201
 2493POPC   GL241844  26.238  15.027  14.113
 2493POPC   C1A41845  26.019  15.007  14.151
 2493POPC   D2A41846  25.832  14.955  14.100
 2493POPC   C3A41847  25.646  14.902  14.050
 2493POPC   C4A41848  25.460  14.849  13.999
 2493POPC   C1B41849  26.048  14.826  14.231
 2493POPC   C2B41850  25.862  14.774  14.180
 2493POPC   C3B41851  25.676  14.721  14.129
 2493POPC   C4B41852  25.490  14.668  14.079
 2494POPC   NC341853  27.522   6.466   9.174
 2494POPC   PO441854  27.325   6.499   9.183
 2494POPC   GL141855  27.128   6.532   9.192
 2494POPC   GL241856  27.132   6.581   9.105
 2494POPC   C1A41857  26.931   6.565   9.201
 2494POPC   D2A41858  26.734   6.597   9.210
 2494POPC   C3A41859  26.537   6.630   9.219
 2494POPC   C4A41860  26.340   6.663   9.228
 2494POPC   C1B41861  26.898   6.394   9.103
 2494POPC   C2B41862  26.701   6.426   9.112
 2494POPC   C3B41863  26.504   6.459   9.121
 2494POPC   C4B41864  26.307   6.492   9.130
 2495POPC   NC341865  27.804   9.069  10.655
 2495POPC   PO441866  27.604   9.078  10.648
 2495POPC   GL141867  27.404   9.087  10.641
 2495POPC   GL241868  27.410   9.157  10.570
 2495POPC   C1A41869  27.205   9.096  10.635
 2495POPC   D2A41870  27.005   9.105  10.628
 2495POPC   C3A41871  26.806   9.114  10.622
 2495POPC   C4A41872  26.606   9.123  10.615
 2495POPC   C1B41873  27.203   8.953  10.495
 2495POPC   C2B41874  27.003   8.962  10.489
 2495POPC   C3B41875  26.804   8.971  10.482
 2495POPC   C4B41876  26.604   8.980  10.475
 2496POPC   NC341877  -6.824   3.361   8.569
 2496POPC   PO441878  -6.639   3.434   8.587
 2496POPC   GL141879  -6.454   3.507   8.605
 2496POPC   GL241880  -6.425   3.423   8.651
 2496POPC   C1A41881  -6.269   3.580   8.623
 2496POPC   D2A41882  -6.083   3.654   8.641
 2496POPC   C3A41883  -5.898   3.727   8.659
 2496POPC   C4A41884  -5.713   3.800   8.677
 2496POPC   C1B41885  -6.220   3.500   8.447
 2496POPC   C2B41886  -6.034   3.573   8.465
 2496POPC   C3B41887  -5.849   3.646   8.483
 2496POPC   C4B41888  -5.664   3.719   8.501
 2497POPC   NC341889   8.392   7.947  27.796
 2497POPC   PO441890   8.410   7.968  27.598
 2497POPC   GL141891   8.428   7.989  27.400
 2497POPC   GL241892   8.512   7.934  27.402
 2497POPC   C1A41893   8.447   8.010  27.202
 2497POPC   D2A41894   8.465   8.032  27.004
 2497POPC   C3A41895   8.484   8.053  26.806
 2497POPC   C4A41896   8.502   8.074  26.608
 2497POPC   C1B41897   8.338   7.845  27.174
 2497POPC   C2B41898   8.357   7.866  26.976
 2497POPC   C3B41899   8.375   7.887  26.778
 2497POPC   C4B41900   8.393   7.908  26.580
 2498POPC   NC341901   2.828  -5.924  14.816
 2498POPC   PO441902   2.905  -5.747  14.763
 2498POPC   GL141903   2.982  -5.570  14.710
 2498POPC   GL241904   3.073  -5.612  14.701
 2498POPC   C1A41905   3.059  -5.394  14.656
 2498POPC   D2A41906   3.137  -5.217  14.603
 2498POPC   C3A41907   3.214  -5.041  14.549
 2498POPC   C4A41908   3.291  -4.864  14.496
 2498POPC   C1B41909   3.022  -5.436  14.464
 2498POPC   C2B41910   3.099  -5.259  14.411
 2498POPC   C3B41911   3.176  -5.082  14.357
 2498POPC   C4B41912   3.253  -4.906  14.304
 2499POPC   NC341913  -6.852   5.352   4.794
 2499POPC   PO441914  -6.667   5.404   4.850
 2499POPC   GL141915  -6.482   5.456   4.906
 2499POPC   GL241916  -6.520   5.518   4.974
 2499POPC   C1A41917  -6.297   5.508   4.961
 2499POPC   D2A41918  -6.112   5.560   5.017
 2499POPC   C3A41919  -5.927   5.612   5.072
 2499POPC   C4A41920  -5.742   5.664   5.128
 2499POPC   C1B41921  -6.296   5.360   5.095
 2499POPC   C2B41922  -6.111   5.412   5.151
 2499POPC   C3B41923  -5.926   5.464   5.206
 2499POPC   C4B41924  -5.741   5.516   5.262
 2500POPC   NC341925  12.895  -6.698   3.575
 2500POPC   PO441926  12.859  -6.514   3.646
 2500POPC   GL141927  12.823  -6.330   3.717
 2500POPC   GL241928  12.876  -6.291   3.641
 2500POPC   C1A41929  12.787  -6.147   3.787
 2500POPC   D2A41930  12.750  -5.963   3.858
 2500POPC   C3A41931  12.714  -5.780   3.928
 2500POPC   C4A41932  12.678  -5.596   3.999
 2500POPC   C1B41933  12.621  -6.137   3.676
 2500POPC   C2B41934  12.585  -5.953   3.747
 2500POPC   C3B41935  12.548  -5.769   3.817
 2500POPC   C4B41936  12.512  -5.586   3.888
 2501POPC   NC341937  -1.545   7.907  23.773
 2501POPC   PO441938  -1.419   7.933  23.620
 2501POPC   GL141939  -1.293   7.959  23.467
 2501POPC   GL241940  -1.218   7.973  23.532
 2501POPC   C1A41941  -1.166   7.985  23.314
 2501POPC   D2A41942  -1.040   8.012  23.162
 2501POPC   C3A41943  -0.913   8.038  23.009
 2501POPC   C4A41944  -0.787   8.064  22.856
 2501POPC   C1B41945  -1.128   7.789  23.312
 2501POPC   C2B41946  -1.002   7.815  23.160
 2501POPC   C3B41947  -0.875   7.841  23.007
 2501POPC   C4B41948  -0.749   7.868  22.854
 2502POPC   NC341949   9.119  27.883  12.131
 2502POPC   PO441950   9.123  27.684  12.108
 2502POPC   GL141951   9.127  27.485  12.085
 2502POPC   GL241952   9.220  27.492  12.048
 2502POPC   C1A41953   9.132  27.287  12.062
 2502POPC   D2A41954   9.136  27.088  12.040
 2502POPC   C3A41955   9.141  26.890  12.017
 2502POPC   C4A41956   9.145  26.691  11.994
 2502POPC   C1B41957   9.207  27.267  12.247
 2502POPC   C2B41958   9.212  27.069  12.224
 2502POPC   C3B41959   9.216  26.870  12.201
 2502POPC   C4B41960   9.220  26.671  12.178
 2503POPC   NC341961  -5.751   5.689   1.871
 2503POPC   PO441962  -5.577   5.730   1.960
 2503POPC   GL141963  -5.403   5.771   2.049
 2503POPC   GL241964  -5.440   5.857   2.083
 2503POPC   C1A41965  -5.228   5.812   2.138
 2503POPC   D2A41966  -5.054   5.852   2.227
 2503POPC   C3A41967  -4.879   5.893   2.316
 2503POPC   C4A41968  -4.705   5.934   2.405
 2503POPC   C1B41969  -5.291   5.718   2.303
 2503POPC   C2B41970  -5.116   5.759   2.392
 2503POPC   C3B41971  -4.942   5.800   2.481
 2503POPC   C4B41972  -4.768   5.840   2.570
 2504POPC   NC341973  13.946  -3.915  20.624
 2504POPC   PO441974  13.906  -3.764  20.499
 2504POPC   GL141975  13.866  -3.613  20.374
 2504POPC   GL241976  13.945  -3.563  20.410
 2504POPC   C1A41977  13.826  -3.462  20.250
 2504POPC   D2A41978  13.786  -3.310  20.125
 2504POPC   C3A41979  13.746  -3.159  20.001
 2504POPC   C4A41980  13.706  -3.008  19.876
 2504POPC   C1B41981  13.943  -3.545  20.111
 2504POPC   C2B41982  13.903  -3.394  19.986
 2504POPC   C3B41983  13.863  -3.243  19.861
 2504POPC   C4B41984  13.823  -3.092  19.737
 2505POPC   NC341985  25.073  13.255  19.150
 2505POPC   PO441986  24.903  13.219  19.051
 2505POPC   GL141987  24.733  13.183  18.952
 2505POPC   GL241988  24.725  13.280  18.930
 2505POPC   C1A41989  24.563  13.147  18.852
 2505POPC   D2A41990  24.394  13.110  18.753
 2505POPC   C3A41991  24.224  13.074  18.653
 2505POPC   C4A41992  24.054  13.038  18.554
 2505POPC   C1B41993  24.668  13.119  18.684
 2505POPC   C2B41994  24.498  13.082  18.585
 2505POPC   C3B41995  24.328  13.046  18.485
 2505POPC   C4B41996  24.158  13.010  18.386
 2506POPC   NC341997   4.140  24.247  19.437
 2506POPC   PO441998   4.204  24.092  19.328
 2506POPC   GL141999   4.268  23.937  19.219
 2506POPC   GL242000   4.363  23.967  19.233
 2506POPC   C1A42001   4.333  23.782  19.111
 2506POPC   D2A42002   4.397  23.626  19.002
 2506POPC   C3A42003   4.462  23.471  18.894
 2506POPC   C4A42004   4.526  23.316  18.785
 2506POPC   C1B42005   4.344  23.670  19.277
 2506POPC   C2B42006   4.409  23.515  19.168
 2506POPC   C3B42007   4.473  23.360  19.059
 2506POPC   C4B42008   4.538  23.205  18.951
 2507POPC   NC342009  -3.211   9.737  22.352
 2507POPC   PO442010  -3.065   9.735  22.215
 2507POPC   GL142011  -2.919   9.733  22.078
 2507POPC   GL242012  -2.914   9.633  22.084
 2507POPC   C1A42013  -2.774   9.731  21.941
 2507POPC   D2A42014  -2.628   9.730  21.803
 2507POPC   C3A42015  -2.483   9.728  21.666
 2507POPC   C4A42016  -2.337   9.726  21.529
 2507POPC   C1B42017  -2.911   9.715  21.796
 2507POPC   C2B42018  -2.765   9.713  21.658
 2507POPC   C3B42019  -2.619   9.712  21.521
 2507POPC   C4B42020  -2.474   9.710  21.384
 2508POPC   NC342021   5.266  24.986  18.919
 2508POPC   PO442022   5.316  24.819  18.820
 2508POPC   GL142023   5.366  24.652  18.721
 2508POPC   GL242024   5.461  24.662  18.753
 2508POPC   C1A42025   5.416  24.486  18.623
 2508POPC   D2A42026   5.467  24.319  18.524
 2508POPC   C3A42027   5.517  24.153  18.426
 2508POPC   C4A42028   5.567  23.986  18.327
 2508POPC   C1B42029   5.374  24.377  18.785
 2508POPC   C2B42030   5.424  24.210  18.686
 2508POPC   C3B42031   5.474  24.044  18.588
 2508POPC   C4B42032   5.524  23.877  18.489
 2509POPC   NC342033  18.953   2.007  23.311
 2509POPC   PO442034  18.849   2.093  23.164
 2509POPC   GL142035  18.745   2.179  23.017
 2509POPC   GL242036  18.759   2.099  22.960
 2509POPC   C1A42037  18.641   2.266  22.870
 2509POPC   D2A42038  18.536   2.352  22.722
 2509POPC   C3A42039  18.432   2.439  22.575
 2509POPC   C4A42040  18.328   2.525  22.428
 2509POPC   C1B42041  18.472   2.186  22.942
 2509POPC   C2B42042  18.368   2.272  22.795
 2509POPC   C3B42043  18.264   2.359  22.648
 2509POPC   C4B42044  18.159   2.445  22.500
 2510POPC   NC342045   3.901   8.823  26.947
 2510POPC   PO442046   3.962   8.829  26.757
 2510POPC   GL142047   4.023   8.835  26.567
 2510POPC   GL242048   4.118   8.828  26.597
 2510POPC   C1A42049   4.085   8.841  26.377
 2510POPC   D2A42050   4.146   8.846  26.186
 2510POPC   C3A42051   4.208   8.852  25.996
 2510POPC   C4A42052   4.269   8.858  25.806
 2510POPC   C1B42053   4.073   8.641  26.367
 2510POPC   C2B42054   4.135   8.647  26.177
 2510POPC   C3B42055   4.196   8.653  25.986
 2510POPC   C4B42056   4.257   8.659  25.796
 2511POPC   NC342057   7.682  19.849  24.917
 2511POPC   PO442058   7.708  19.737  24.753
 2511POPC   GL142059   7.734  19.625  24.589
 2511POPC   GL242060   7.829  19.608  24.616
 2511POPC   C1A42061   7.760  19.514  24.425
 2511POPC   D2A42062   7.786  19.402  24.262
 2511POPC   C3A42063   7.812  19.291  24.098
 2511POPC   C4A42064   7.838  19.179  23.934
 2511POPC   C1B42065   7.702  19.351  24.527
 2511POPC   C2B42066   7.728  19.240  24.363
 2511POPC   C3B42067   7.754  19.128  24.199
 2511POPC   C4B42068   7.780  19.017  24.035
 2512POPC   NC342069  -7.919  12.496   8.168
 2512POPC   PO442070  -7.723  12.468   8.194
 2512POPC   GL142071  -7.527  12.440   8.220
 2512POPC   GL242072  -7.546  12.372   8.290
 2512POPC   C1A42073  -7.330  12.413   8.246
 2512POPC   D2A42074  -7.134  12.385   8.273
 2512POPC   C3A42075  -6.937  12.358   8.299
 2512POPC   C4A42076  -6.741  12.330   8.325
 2512POPC   C1B42077  -7.332  12.270   8.106
 2512POPC   C2B42078  -7.135  12.243   8.132
 2512POPC   C3B42079  -6.939  12.215   8.159
 2512POPC   C4B42080  -6.742  12.187   8.185
 2513POPC   NC342081  -7.059  15.664  12.732
 2513POPC   PO442082  -6.872  15.599  12.702
 2513POPC   GL142083  -6.685  15.534  12.672
 2513POPC   GL242084  -6.650  15.627  12.689
 2513POPC   C1A42085  -6.498  15.470  12.643
 2513POPC   D2A42086  -6.311  15.405  12.613
 2513POPC   C3A42087  -6.124  15.341  12.584
 2513POPC   C4A42088  -5.937  15.276  12.554
 2513POPC   C1B42089  -6.482  15.428  12.838
 2513POPC   C2B42090  -6.295  15.364  12.808
 2513POPC   C3B42091  -6.108  15.299  12.779
 2513POPC   C4B42092  -5.921  15.234  12.749
 2514POPC   NC342093   3.626   5.419  -6.426
 2514POPC   PO442094   3.695   5.468  -6.245
 2514POPC   GL142095   3.764   5.517  -6.064
 2514POPC   GL242096   3.824   5.437  -6.065
 2514POPC   C1A42097   3.833   5.566  -5.883
 2514POPC   D2A42098   3.901   5.616  -5.701
 2514POPC   C3A42099   3.970   5.665  -5.520
 2514POPC   C4A42100   4.039   5.714  -5.339
 2514POPC   C1B42101   3.977   5.676  -5.967
 2514POPC   C2B42102   4.046   5.725  -5.786
 2514POPC   C3B42103   4.115   5.774  -5.605
 2514POPC   C4B42104   4.183   5.824  -5.424
 2515POPC   NC342105   4.748  19.307  24.554
 2515POPC   PO442106   4.803  19.198  24.395
 2515POPC   GL142107   4.858  19.089  24.236
 2515POPC   GL242108   4.909  19.028  24.296
 2515POPC   C1A42109   4.914  18.981  24.078
 2515POPC   D2A42110   4.969  18.872  23.919
 2515POPC   C3A42111   5.025  18.764  23.761
 2515POPC   C4A42112   5.080  18.655  23.602
 2515POPC   C1B42113   4.751  18.867  24.099
 2515POPC   C2B42114   4.806  18.758  23.940
 2515POPC   C3B42115   4.862  18.650  23.782
 2515POPC   C4B42116   4.917  18.541  23.623
 2516POPC   NC342117  14.128  -6.804   4.785
 2516POPC   PO442118  14.073  -6.620   4.841
 2516POPC   GL142119  14.018  -6.436   4.897
 2516POPC   GL242120  14.036  -6.403   4.805
 2516POPC   C1A42121  13.963  -6.252   4.954
 2516POPC   D2A42122  13.909  -6.069   5.010
 2516POPC   C3A42123  13.854  -5.885   5.067
 2516POPC   C4A42124  13.799  -5.701   5.123
 2516POPC   C1B42125  13.774  -6.293   4.903
 2516POPC   C2B42126  13.720  -6.109   4.959
 2516POPC   C3B42127  13.665  -5.926   5.016
 2516POPC   C4B42128  13.610  -5.742   5.072
 2517POPC   NC342129   9.366  17.385  26.410
 2517POPC   PO442130   9.366  17.309  26.225
 2517POPC   GL142131   9.366  17.233  26.040
 2517POPC   GL242132   9.453  17.278  26.022
 2517POPC   C1A42133   9.366  17.157  25.855
 2517POPC   D2A42134   9.366  17.082  25.670
 2517POPC   C3A42135   9.366  17.006  25.485
 2517POPC   C4A42136   9.366  16.930  25.300
 2517POPC   C1B42137   9.463  16.996  25.921
 2517POPC   C2B42138   9.463  16.920  25.736
 2517POPC   C3B42139   9.463  16.844  25.551
 2517POPC   C4B42140   9.463  16.768  25.366
 2518POPC   NC342141  -5.117   2.231  16.361
 2518POPC   PO442142  -4.950   2.320  16.295
 2518POPC   GL142143  -4.783   2.409  16.229
 2518POPC   GL242144  -4.779   2.462  16.314
 2518POPC   C1A42145  -4.616   2.497  16.164
 2518POPC   D2A42146  -4.450   2.586  16.098
 2518POPC   C3A42147  -4.283   2.674  16.033
 2518POPC   C4A42148  -4.116   2.763  15.967
 2518POPC   C1B42149  -4.507   2.354  16.250
 2518POPC   C2B42150  -4.340   2.442  16.184
 2518POPC   C3B42151  -4.173   2.531  16.119
 2518POPC   C4B42152  -4.006   2.620  16.053
 2519POPC   NC342153   1.440  -3.583  18.368
 2519POPC   PO442154   1.533  -3.433  18.275
 2519POPC   GL142155   1.626  -3.283  18.182
 2519POPC   GL242156   1.653  -3.244  18.270
 2519POPC   C1A42157   1.719  -3.132  18.088
 2519POPC   D2A42158   1.812  -2.982  17.995
 2519POPC   C3A42159   1.905  -2.831  17.901
 2519POPC   C4A42160   1.998  -2.681  17.808
 2519POPC   C1B42161   1.888  -3.239  18.084
 2519POPC   C2B42162   1.981  -3.089  17.990
 2519POPC   C3B42163   2.074  -2.939  17.897
 2519POPC   C4B42164   2.167  -2.788  17.803
 2520POPC   NC342165   3.866  11.582  26.795
 2520POPC   PO442166   3.925  11.564  26.605
 2520POPC   GL142167   3.984  11.546  26.415
 2520POPC   GL242168   3.988  11.646  26.407
 2520POPC   C1A42169   4.044  11.528  26.225
 2520POPC   D2A42170   4.103  11.511  26.034
 2520POPC   C3A42171   4.163  11.493  25.844
 2520POPC   C4A42172   4.222  11.475  25.654
 2520POPC   C1B42173   4.235  11.525  26.284
 2520POPC   C2B42174   4.294  11.508  26.094
 2520POPC   C3B42175   4.353  11.490  25.904
 2520POPC   C4B42176   4.413  11.472  25.714
 2521POPC   NC342177  22.091   8.319  -3.249
 2521POPC   PO442178  21.955   8.334  -3.103
 2521POPC   GL142179  21.819   8.349  -2.957
 2521POPC   GL242180  21.793   8.440  -2.991
 2521POPC   C1A42181  21.683   8.364  -2.811
 2521POPC   D2A42182  21.547   8.380  -2.665
 2521POPC   C3A42183  21.411   8.395  -2.519
 2521POPC   C4A42184  21.275   8.410  -2.373
 2521POPC   C1B42185  21.546   8.280  -2.930
 2521POPC   C2B42186  21.410   8.296  -2.784
 2521POPC   C3B42187  21.274   8.311  -2.638
 2521POPC   C4B42188  21.138   8.326  -2.492
 2522POPC   NC342189  -6.228   8.819   1.860
 2522POPC   PO442190  -6.048   8.833   1.947
 2522POPC   GL142191  -5.868   8.847   2.034
 2522POPC   GL242192  -5.872   8.749   2.057
 2522POPC   C1A42193  -5.689   8.860   2.121
 2522POPC   D2A42194  -5.509   8.874   2.209
 2522POPC   C3A42195  -5.330   8.887   2.296
 2522POPC   C4A42196  -5.150   8.901   2.383
 2522POPC   C1B42197  -5.601   8.816   1.947
 2522POPC   C2B42198  -5.421   8.830   2.034
 2522POPC   C3B42199  -5.242   8.843   2.122
 2522POPC   C4B42200  -5.062   8.857   2.209
 2523POPC   NC342201  18.077  -1.784  -1.044
 2523POPC   PO442202  17.987  -1.652  -0.924
 2523POPC   GL142203  17.897  -1.520  -0.804
 2523POPC   GL242204  17.891  -1.455  -0.879
 2523POPC   C1A42205  17.807  -1.388  -0.683
 2523POPC   D2A42206  17.718  -1.256  -0.563
 2523POPC   C3A42207  17.628  -1.124  -0.442
 2523POPC   C4A42208  17.538  -0.992  -0.322
 2523POPC   C1B42209  17.629  -1.463  -0.733
 2523POPC   C2B42210  17.539  -1.331  -0.613
 2523POPC   C3B42211  17.449  -1.199  -0.493
 2523POPC   C4B42212  17.360  -1.067  -0.372
 2524POPC   NC342213  17.524  -3.523  19.197
 2524POPC   PO442214  17.439  -3.376  19.091
 2524POPC   GL142215  17.354  -3.229  18.985
 2524POPC   GL242216  17.434  -3.226  18.925
 2524POPC   C1A42217  17.268  -3.083  18.879
 2524POPC   D2A42218  17.183  -2.936  18.774
 2524POPC   C3A42219  17.097  -2.790  18.668
 2524POPC   C4A42220  17.012  -2.643  18.562
 2524POPC   C1B42221  17.184  -3.219  18.759
 2524POPC   C2B42222  17.099  -3.072  18.653
 2524POPC   C3B42223  17.013  -2.925  18.548
 2524POPC   C4B42224  16.928  -2.779  18.442
 2525POPC   NC342225  11.478  21.275  23.933
 2525POPC   PO442226  11.456  21.149  23.779
 2525POPC   GL142227  11.434  21.023  23.625
 2525POPC   GL242228  11.504  20.964  23.664
 2525POPC   C1A42229  11.412  20.897  23.472
 2525POPC   D2A42230  11.389  20.770  23.318
 2525POPC   C3A42231  11.367  20.644  23.165
 2525POPC   C4A42232  11.345  20.518  23.011
 2525POPC   C1B42233  11.272  20.797  23.574
 2525POPC   C2B42234  11.250  20.670  23.421
 2525POPC   C3B42235  11.227  20.544  23.267
 2525POPC   C4B42236  11.205  20.418  23.113
 2526POPC   NC342237  15.546  26.199   4.584
 2526POPC   PO442238  15.486  26.019   4.646
 2526POPC   GL142239  15.426  25.839   4.708
 2526POPC   GL242240  15.506  25.797   4.664
 2526POPC   C1A42241  15.366  25.658   4.770
 2526POPC   D2A42242  15.306  25.478   4.831
 2526POPC   C3A42243  15.246  25.297   4.893
 2526POPC   C4A42244  15.186  25.117   4.955
 2526POPC   C1B42245  15.470  25.682   4.939
 2526POPC   C2B42246  15.410  25.501   5.001
 2526POPC   C3B42247  15.350  25.321   5.062
 2526POPC   C4B42248  15.290  25.140   5.124
 2527POPC   NC342249   3.530   1.540  24.641
 2527POPC   PO442250   3.602   1.632  24.479
 2527POPC   GL142251   3.674   1.724  24.317
 2527POPC   GL242252   3.704   1.636  24.280
 2527POPC   C1A42253   3.746   1.816  24.154
 2527POPC   D2A42254   3.817   1.908  23.992
 2527POPC   C3A42255   3.889   2.000  23.829
 2527POPC   C4A42256   3.961   2.092  23.667
 2527POPC   C1B42257   3.569   1.792  24.063
 2527POPC   C2B42258   3.641   1.884  23.900
 2527POPC   C3B42259   3.713   1.976  23.738
 2527POPC   C4B42260   3.785   2.068  23.576
 2528POPC   NC342261   5.095   7.463  27.167
 2528POPC   PO442262   5.143   7.491  26.975
 2528POPC   GL142263   5.191   7.519  26.783
 2528POPC   GL242264   5.286   7.537  26.810
 2528POPC   C1A42265   5.240   7.548  26.591
 2528POPC   D2A42266   5.288   7.576  26.399
 2528POPC   C3A42267   5.337   7.605  26.207
 2528POPC   C4A42268   5.385   7.633  26.015
 2528POPC   C1B42269   5.281   7.353  26.573
 2528POPC   C2B42270   5.329   7.381  26.381
 2528POPC   C3B42271   5.377   7.410  26.189
 2528POPC   C4B42272   5.426   7.438  25.997
 2529POPC   NC342273  11.928  11.500  -7.973
 2529POPC   PO442274  11.905  11.479  -7.776
 2529POPC   GL142275  11.882  11.458  -7.579
 2529POPC   GL242276  11.964  11.401  -7.575
 2529POPC   C1A42277  11.858  11.436  -7.381
 2529POPC   D2A42278  11.835  11.415  -7.184
 2529POPC   C3A42279  11.811  11.393  -6.986
 2529POPC   C4A42280  11.788  11.372  -6.789
 2529POPC   C1B42281  11.969  11.600  -7.350
 2529POPC   C2B42282  11.946  11.578  -7.153
 2529POPC   C3B42283  11.923  11.557  -6.955
 2529POPC   C4B42284  11.899  11.535  -6.758
 2530POPC   NC342285  16.467  24.506  18.330
 2530POPC   PO442286  16.392  24.345  18.238
 2530POPC   GL142287  16.317  24.184  18.146
 2530POPC   GL242288  16.345  24.127  18.223
 2530POPC   C1A42289  16.242  24.023  18.054
 2530POPC   D2A42290  16.167  23.862  17.962
 2530POPC   C3A42291  16.092  23.701  17.870
 2530POPC   C4A42292  16.017  23.540  17.778
 2530POPC   C1B42293  16.065  24.055  18.143
 2530POPC   C2B42294  15.990  23.894  18.051
 2530POPC   C3B42295  15.915  23.733  17.959
 2530POPC   C4B42296  15.840  23.572  17.867
 2531POPC   NC342297  23.369   4.396  20.447
 2531POPC   PO442298  23.219   4.456  20.329
 2531POPC   GL142299  23.069   4.516  20.211
 2531POPC   GL242300  23.073   4.430  20.161
 2531POPC   C1A42301  22.919   4.577  20.094
 2531POPC   D2A42302  22.769   4.637  19.976
 2531POPC   C3A42303  22.619   4.698  19.859
 2531POPC   C4A42304  22.469   4.758  19.741
 2531POPC   C1B42305  22.787   4.496  20.221
 2531POPC   C2B42306  22.637   4.557  20.103
 2531POPC   C3B42307  22.487   4.617  19.986
 2531POPC   C4B42308  22.337   4.678  19.868
 2532POPC   NC342309  12.474  27.810   8.742
 2532POPC   PO442310  12.447  27.612   8.754
 2532POPC   GL142311  12.420  27.414   8.766
 2532POPC   GL242312  12.514  27.403   8.799
 2532POPC   C1A42313  12.393  27.216   8.778
 2532POPC   D2A42314  12.365  27.019   8.791
 2532POPC   C3A42315  12.338  26.821   8.803
 2532POPC   C4A42316  12.311  26.623   8.815
 2532POPC   C1B42317  12.330  27.237   8.967
 2532POPC   C2B42318  12.303  27.039   8.979
 2532POPC   C3B42319  12.275  26.841   8.992
 2532POPC   C4B42320  12.248  26.643   9.004
 2533POPC   NC342321  -7.881   6.791  10.842
 2533POPC   PO442322  -7.685   6.830  10.828
 2533POPC   GL142323  -7.489   6.869  10.814
 2533POPC   GL242324  -7.471   6.799  10.883
 2533POPC   C1A42325  -7.294   6.908  10.800
 2533POPC   D2A42326  -7.098   6.947  10.787
 2533POPC   C3A42327  -6.903   6.986  10.773
 2533POPC   C4A42328  -6.707   7.025  10.759
 2533POPC   C1B42329  -7.277   6.771  10.655
 2533POPC   C2B42330  -7.081   6.810  10.641
 2533POPC   C3B42331  -6.886   6.849  10.628
 2533POPC   C4B42332  -6.690   6.888  10.614
 2534POPC   NC342333   8.292  23.037  22.272
 2534POPC   PO442334   8.314  22.895  22.133
 2534POPC   GL142335   8.336  22.753  21.994
 2534POPC   GL242336   8.339  22.683  22.066
 2534POPC   C1A42337   8.357  22.611  21.855
 2534POPC   D2A42338   8.379  22.468  21.716
 2534POPC   C3A42339   8.400  22.326  21.577
 2534POPC   C4A42340   8.422  22.184  21.438
 2534POPC   C1B42341   8.159  22.590  21.845
 2534POPC   C2B42342   8.180  22.448  21.706
 2534POPC   C3B42343   8.202  22.306  21.567
 2534POPC   C4B42344   8.223  22.164  21.428
 2535POPC   NC342345  25.563  10.668  18.845
 2535POPC   PO442346  25.388  10.663  18.748
 2535POPC   GL142347  25.213  10.658  18.651
 2535POPC   GL242348  25.251  10.591  18.586
 2535POPC   C1A42349  25.039  10.652  18.553
 2535POPC   D2A42350  24.864  10.647  18.456
 2535POPC   C3A42351  24.690  10.641  18.358
 2535POPC   C4A42352  24.515  10.636  18.261
 2535POPC   C1B42353  24.978  10.503  18.672
 2535POPC   C2B42354  24.803  10.498  18.574
 2535POPC   C3B42355  24.628  10.492  18.477
 2535POPC   C4B42356  24.454  10.487  18.379
 2536POPC   NC342357  11.477  -7.613  13.596
 2536POPC   PO442358  11.459  -7.418  13.558
 2536POPC   GL142359  11.441  -7.223  13.520
 2536POPC   GL242360  11.519  -7.228  13.457
 2536POPC   C1A42361  11.423  -7.027  13.481
 2536POPC   D2A42362  11.405  -6.832  13.443
 2536POPC   C3A42363  11.387  -6.636  13.404
 2536POPC   C4A42364  11.369  -6.441  13.366
 2536POPC   C1B42365  11.300  -7.069  13.329
 2536POPC   C2B42366  11.282  -6.873  13.291
 2536POPC   C3B42367  11.264  -6.678  13.253
 2536POPC   C4B42368  11.246  -6.482  13.214
 2537POPC   NC342369  -1.266   4.011  -2.946
 2537POPC   PO442370  -1.147   4.082  -2.802
 2537POPC   GL142371  -1.028   4.153  -2.658
 2537POPC   GL242372  -1.108   4.180  -2.605
 2537POPC   C1A42373  -0.908   4.224  -2.514
 2537POPC   D2A42374  -0.789   4.296  -2.371
 2537POPC   C3A42375  -0.669   4.367  -2.227
 2537POPC   C4A42376  -0.550   4.438  -2.083
 2537POPC   C1B42377  -0.908   4.045  -2.426
 2537POPC   C2B42378  -0.789   4.116  -2.282
 2537POPC   C3B42379  -0.669   4.188  -2.138
 2537POPC   C4B42380  -0.550   4.259  -1.994
 2538POPC   NC342381   7.187  -1.888  -3.400
 2538POPC   PO442382   7.218  -1.755  -3.254
 2538POPC   GL142383   7.249  -1.622  -3.108
 2538POPC   GL242384   7.297  -1.562  -3.172
 2538POPC   C1A42385   7.280  -1.489  -2.962
 2538POPC   D2A42386   7.311  -1.355  -2.816
 2538POPC   C3A42387   7.342  -1.222  -2.670
 2538POPC   C4A42388   7.373  -1.089  -2.524
 2538POPC   C1B42389   7.107  -1.398  -3.008
 2538POPC   C2B42390   7.138  -1.265  -2.862
 2538POPC   C3B42391   7.169  -1.132  -2.716
 2538POPC   C4B42392   7.200  -0.999  -2.570
 2539POPC   NC342393  19.697   4.447  -4.132
 2539POPC   PO442394  19.589   4.510  -3.976
 2539POPC   GL142395  19.481   4.573  -3.820
 2539POPC   GL242396  19.541   4.652  -3.810
 2539POPC   C1A42397  19.372   4.636  -3.664
 2539POPC   D2A42398  19.264   4.699  -3.509
 2539POPC   C3A42399  19.155   4.762  -3.353
 2539POPC   C4A42400  19.047   4.825  -3.197
 2539POPC   C1B42401  19.256   4.742  -3.788
 2539POPC   C2B42402  19.148   4.805  -3.632
 2539POPC   C3B42403  19.039   4.868  -3.476
 2539POPC   C4B42404  18.931   4.931  -3.321
 2540POPC   NC342405  12.023  27.744  12.202
 2540POPC   PO442406  12.001  27.547  12.176
 2540POPC   GL142407  11.979  27.350  12.150
 2540POPC   GL242408  12.071  27.345  12.112
 2540POPC   C1A42409  11.957  27.153  12.124
 2540POPC   D2A42410  11.934  26.956  12.097
 2540POPC   C3A42411  11.912  26.759  12.071
 2540POPC   C4A42412  11.890  26.562  12.045
 2540POPC   C1B42413  12.029  27.120  12.307
 2540POPC   C2B42414  12.007  26.923  12.281
 2540POPC   C3B42415  11.984  26.726  12.255
 2540POPC   C4B42416  11.962  26.529  12.229
 2541POPC   NC342417   6.071  21.426  -3.523
 2541POPC   PO442418   6.108  21.294  -3.377
 2541POPC   GL142419   6.145  21.162  -3.231
 2541POPC   GL242420   6.236  21.145  -3.269
 2541POPC   C1A42421   6.181  21.030  -3.085
 2541POPC   D2A42422   6.218  20.898  -2.940
 2541POPC   C3A42423   6.254  20.766  -2.794
 2541POPC   C4A42424   6.291  20.634  -2.648
 2541POPC   C1B42425   6.256  21.176  -2.971
 2541POPC   C2B42426   6.292  21.044  -2.826
 2541POPC   C3B42427   6.329  20.912  -2.680
 2541POPC   C4B42428   6.366  20.780  -2.534
 2542POPC   NC342429  -2.105  16.719  -1.846
 2542POPC   PO442430  -1.975  16.644  -1.714
 2542POPC   GL142431  -1.845  16.569  -1.582
 2542POPC   GL242432  -1.777  16.638  -1.610
 2542POPC   C1A42433  -1.714  16.495  -1.450
 2542POPC   D2A42434  -1.584  16.420  -1.318
 2542POPC   C3A42435  -1.453  16.346  -1.186
 2542POPC   C4A42436  -1.323  16.271  -1.054
 2542POPC   C1B42437  -1.783  16.621  -1.311
 2542POPC   C2B42438  -1.653  16.546  -1.179
 2542POPC   C3B42439  -1.522  16.472  -1.047
 2542POPC   C4B42440  -1.392  16.397  -0.915
 2543POPC   NC342441  -1.714  -2.382   3.544
 2543POPC   PO442442  -1.584  -2.246   3.612
 2543POPC   GL142443  -1.454  -2.110   3.680
 2543POPC   GL242444  -1.433  -2.169   3.758
 2543POPC   C1A42445  -1.324  -1.974   3.748
 2543POPC   D2A42446  -1.193  -1.839   3.815
 2543POPC   C3A42447  -1.063  -1.703   3.883
 2543POPC   C4A42448  -0.933  -1.567   3.951
 2543POPC   C1B42449  -1.178  -2.062   3.642
 2543POPC   C2B42450  -1.048  -1.926   3.710
 2543POPC   C3B42451  -0.917  -1.790   3.778
 2543POPC   C4B42452  -0.787  -1.654   3.846
 2544POPC   NC342453  23.887  20.539  14.025
 2544POPC   PO442454  23.735  20.418  13.979
 2544POPC   GL142455  23.583  20.297  13.933
 2544POPC   GL242456  23.588  20.326  13.837
 2544POPC   C1A42457  23.431  20.176  13.887
 2544POPC   D2A42458  23.278  20.054  13.840
 2544POPC   C3A42459  23.126  19.933  13.794
 2544POPC   C4A42460  22.974  19.812  13.748
 2544POPC   C1B42461  23.560  20.028  13.848
 2544POPC   C2B42462  23.408  19.907  13.802
 2544POPC   C3B42463  23.255  19.785  13.756
 2544POPC   C4B42464  23.103  19.664  13.710
 2545POPC   NC342465  -2.629   8.519  -2.964
 2545POPC   PO442466  -2.489   8.532  -2.822
 2545POPC   GL142467  -2.349   8.545  -2.680
 2545POPC   GL242468  -2.377   8.639  -2.661
 2545POPC   C1A42469  -2.208   8.558  -2.538
 2545POPC   D2A42470  -2.068   8.570  -2.397
 2545POPC   C3A42471  -1.927   8.583  -2.255
 2545POPC   C4A42472  -1.787   8.596  -2.113
 2545POPC   C1B42473  -2.339   8.491  -2.403
 2545POPC   C2B42474  -2.199   8.504  -2.261
 2545POPC   C3B42475  -2.058   8.517  -2.119
 2545POPC   C4B42476  -1.918   8.529  -1.977
 2546POPC   NC342477  -5.962   2.183   6.327
 2546POPC   PO442478  -5.785   2.267   6.365
 2546POPC   GL142479  -5.608   2.351   6.403
 2546POPC   GL242480  -5.584   2.275   6.463
 2546POPC   C1A42481  -5.431   2.436   6.441
 2546POPC   D2A42482  -5.253   2.520   6.479
 2546POPC   C3A42483  -5.076   2.605   6.517
 2546POPC   C4A42484  -4.899   2.689   6.555
 2546POPC   C1B42485  -5.351   2.339   6.285
 2546POPC   C2B42486  -5.174   2.424   6.323
 2546POPC   C3B42487  -4.997   2.508   6.361
 2546POPC   C4B42488  -4.820   2.592   6.399
 2547POPC   NC342489   7.768  26.258   2.301
 2547POPC   PO442490   7.793  26.079   2.387
 2547POPC   GL142491   7.818  25.900   2.473
 2547POPC   GL242492   7.915  25.918   2.483
 2547POPC   C1A42493   7.842  25.721   2.558
 2547POPC   D2A42494   7.867  25.541   2.644
 2547POPC   C3A42495   7.891  25.362   2.729
 2547POPC   C4A42496   7.916  25.183   2.815
 2547POPC   C1B42497   7.809  25.802   2.738
 2547POPC   C2B42498   7.833  25.623   2.823
 2547POPC   C3B42499   7.858  25.443   2.909
 2547POPC   C4B42500   7.882  25.264   2.995
 2548POPC   NC342501  -6.577   8.613  17.243
 2548POPC   PO442502  -6.395   8.626  17.161
 2548POPC   GL142503  -6.213   8.639  17.079
 2548POPC   GL242504  -6.176   8.670  17.167
 2548POPC   C1A42505  -6.031   8.652  16.998
 2548POPC   D2A42506  -5.849   8.665  16.916
 2548POPC   C3A42507  -5.667   8.678  16.835
 2548POPC   C4A42508  -5.485   8.691  16.753
 2548POPC   C1B42509  -5.994   8.462  17.049
 2548POPC   C2B42510  -5.812   8.475  16.968
 2548POPC   C3B42511  -5.630   8.488  16.886
 2548POPC   C4B42512  -5.448   8.501  16.805
 2549POPC   NC342513  20.713  23.910  13.637
 2549POPC   PO442514  20.588  23.761  13.588
 2549POPC   GL142515  20.463  23.612  13.539
 2549POPC   GL242516  20.539  23.564  13.495
 2549POPC   C1A42517  20.339  23.464  13.490
 2549POPC   D2A42518  20.214  23.315  13.442
 2549POPC   C3A42519  20.090  23.167  13.393
 2549POPC   C4A42520  19.965  23.018  13.344
 2549POPC   C1B42521  20.381  23.372  13.663
 2549POPC   C2B42522  20.256  23.223  13.614
 2549POPC   C3B42523  20.132  23.075  13.565
 2549POPC   C4B42524  20.007  22.926  13.517
 2550POPC   NC342525  -0.368  24.748   9.066
 2550POPC   PO442526  -0.255  24.583   9.082
 2550POPC   GL142527  -0.142  24.418   9.098
 2550POPC   GL242528  -0.060  24.474   9.091
 2550POPC   C1A42529  -0.030  24.254   9.114
 2550POPC   D2A42530   0.083  24.089   9.129
 2550POPC   C3A42531   0.195  23.925   9.145
 2550POPC   C4A42532   0.308  23.760   9.161
 2550POPC   C1B42533  -0.028  24.274   9.313
 2550POPC   C2B42534   0.085  24.110   9.328
 2550POPC   C3B42535   0.198  23.945   9.344
 2550POPC   C4B42536   0.310  23.780   9.360
 2551POPC   NC342537  10.984  19.380  25.333
 2551POPC   PO442538  10.966  19.278  25.162
 2551POPC   GL142539  10.948  19.176  24.991
 2551POPC   GL242540  11.042  19.201  24.966
 2551POPC   C1A42541  10.930  19.073  24.820
 2551POPC   D2A42542  10.913  18.971  24.650
 2551POPC   C3A42543  10.895  18.868  24.479
 2551POPC   C4A42544  10.877  18.766  24.308
 2551POPC   C1B42545  10.998  18.909  24.912
 2551POPC   C2B42546  10.981  18.806  24.741
 2551POPC   C3B42547  10.963  18.704  24.570
 2551POPC   C4B42548  10.945  18.602  24.399
 2552POPC   NC342549  24.003   1.073   3.035
 2552POPC   PO442550  23.847   1.172   3.112
 2552POPC   GL142551  23.691   1.271   3.189
 2552POPC   GL242552  23.754   1.341   3.225
 2552POPC   C1A42553  23.536   1.370   3.266
 2552POPC   D2A42554  23.380   1.470   3.344
 2552POPC   C3A42555  23.225   1.569   3.421
 2552POPC   C4A42556  23.069   1.668   3.498
 2552POPC   C1B42557  23.518   1.475   3.097
 2552POPC   C2B42558  23.362   1.574   3.174
 2552POPC   C3B42559  23.207   1.673   3.251
 2552POPC   C4B42560  23.051   1.772   3.328
 2553POPC   NC342561  -3.861   1.964   1.203
 2553POPC   PO442562  -3.711   2.054   1.300
 2553POPC   GL142563  -3.561   2.144   1.397
 2553POPC   GL242564  -3.522   2.054   1.420
 2553POPC   C1A42565  -3.411   2.233   1.495
 2553POPC   D2A42566  -3.261   2.323   1.592
 2553POPC   C3A42567  -3.111   2.412   1.690
 2553POPC   C4A42568  -2.961   2.502   1.787
 2553POPC   C1B42569  -3.304   2.238   1.326
 2553POPC   C2B42570  -3.154   2.327   1.423
 2553POPC   C3B42571  -3.004   2.417   1.521
 2553POPC   C4B42572  -2.854   2.506   1.618
 2554POPC   NC342573  23.663   9.922  21.570
 2554POPC   PO442574  23.510   9.924  21.441
 2554POPC   GL142575  23.357   9.926  21.312
 2554POPC   GL242576  23.410   9.984  21.250
 2554POPC   C1A42577  23.204   9.928  21.183
 2554POPC   D2A42578  23.052   9.929  21.054
 2554POPC   C3A42579  22.899   9.931  20.925
 2554POPC   C4A42580  22.746   9.933  20.796
 2554POPC   C1B42581  23.278   9.765  21.093
 2554POPC   C2B42582  23.125   9.767  20.964
 2554POPC   C3B42583  22.973   9.768  20.835
 2554POPC   C4B42584  22.820   9.770  20.706
 2555POPC   NC342585   0.420   7.486  -5.264
 2555POPC   PO442586   0.527   7.510  -5.097
 2555POPC   GL142587   0.634   7.534  -4.930
 2555POPC   GL242588   0.577   7.466  -4.883
 2555POPC   C1A42589   0.741   7.558  -4.763
 2555POPC   D2A42590   0.849   7.581  -4.595
 2555POPC   C3A42591   0.956   7.605  -4.428
 2555POPC   C4A42592   1.063   7.629  -4.261
 2555POPC   C1B42593   0.866   7.413  -4.822
 2555POPC   C2B42594   0.973   7.436  -4.654
 2555POPC   C3B42595   1.080   7.460  -4.487
 2555POPC   C4B42596   1.187   7.484  -4.320
 2556POPC   NC342597  22.761  11.706  -2.530
 2556POPC   PO442598  22.614  11.689  -2.396
 2556POPC   GL142599  22.467  11.672  -2.262
 2556POPC   GL242600  22.418  11.747  -2.306
 2556POPC   C1A42601  22.320  11.655  -2.127
 2556POPC   D2A42602  22.173  11.637  -1.993
 2556POPC   C3A42603  22.026  11.620  -1.858
 2556POPC   C4A42604  21.879  11.603  -1.724
 2556POPC   C1B42605  22.227  11.523  -2.246
 2556POPC   C2B42606  22.080  11.506  -2.111
 2556POPC   C3B42607  21.933  11.489  -1.977
 2556POPC   C4B42608  21.786  11.472  -1.843
 2557POPC   NC342609  13.532  -6.913   4.611
 2557POPC   PO442610  13.485  -6.728   4.670
 2557POPC   GL142611  13.438  -6.543   4.729
 2557POPC   GL242612  13.454  -6.509   4.636
 2557POPC   C1A42613  13.391  -6.357   4.787
 2557POPC   D2A42614  13.345  -6.172   4.846
 2557POPC   C3A42615  13.298  -5.986   4.904
 2557POPC   C4A42616  13.251  -5.801   4.963
 2557POPC   C1B42617  13.200  -6.391   4.742
 2557POPC   C2B42618  13.153  -6.206   4.801
 2557POPC   C3B42619  13.106  -6.020   4.859
 2557POPC   C4B42620  13.059  -5.835   4.918
 2558POPC   NC342621  26.005  17.970  11.205
 2558POPC   PO442622  25.826  17.882  11.192
 2558POPC   GL142623  25.647  17.794  11.179
 2558POPC   GL242624  25.689  17.706  11.202
 2558POPC   C1A42625  25.468  17.705  11.166
 2558POPC   D2A42626  25.289  17.617  11.153
 2558POPC   C3A42627  25.110  17.528  11.140
 2558POPC   C4A42628  24.931  17.440  11.127
 2558POPC   C1B42629  25.436  17.741  11.360
 2558POPC   C2B42630  25.257  17.653  11.347
 2558POPC   C3B42631  25.078  17.565  11.334
 2558POPC   C4B42632  24.899  17.476  11.321
 2559POPC   NC342633   2.949  14.125  -6.233
 2559POPC   PO442634   3.028  14.080  -6.055
 2559POPC   GL142635   3.107  14.035  -5.877
 2559POPC   GL242636   3.053  14.107  -5.834
 2559POPC   C1A42637   3.187  13.990  -5.699
 2559POPC   D2A42638   3.266  13.944  -5.521
 2559POPC   C3A42639   3.346  13.899  -5.343
 2559POPC   C4A42640   3.425  13.854  -5.165
 2559POPC   C1B42641   3.039  13.859  -5.666
 2559POPC   C2B42642   3.118  13.814  -5.488
 2559POPC   C3B42643   3.197  13.769  -5.310
 2559POPC   C4B42644   3.277  13.724  -5.132
 2560POPC   NC342645   4.335  -1.328  -3.000
 2560POPC   PO442646   4.399  -1.202  -2.858
 2560POPC   GL142647   4.463  -1.076  -2.716
 2560POPC   GL242648   4.472  -1.152  -2.653
 2560POPC   C1A42649   4.526  -0.950  -2.575
 2560POPC   D2A42650   4.590  -0.823  -2.433
 2560POPC   C3A42651   4.653  -0.697  -2.292
 2560POPC   C4A42652   4.717  -0.571  -2.150
 2560POPC   C1B42653   4.715  -0.977  -2.635
 2560POPC   C2B42654   4.778  -0.850  -2.494
 2560POPC   C3B42655   4.842  -0.724  -2.352
 2560POPC   C4B42656   4.906  -0.598  -2.211
 2561POPC   NC342657  -4.296  -0.379  14.181
 2561POPC   PO442658  -4.138  -0.267  14.132
 2561POPC   GL142659  -3.980  -0.155  14.083
 2561POPC   GL242660  -3.927  -0.197  14.157
 2561POPC   C1A42661  -3.821  -0.044  14.034
 2561POPC   D2A42662  -3.663   0.068  13.984
 2561POPC   C3A42663  -3.504   0.179  13.935
 2561POPC   C4A42664  -3.346   0.291  13.886
 2561POPC   C1B42665  -3.759  -0.187  13.909
 2561POPC   C2B42666  -3.600  -0.076  13.860
 2561POPC   C3B42667  -3.442   0.036  13.811
 2561POPC   C4B42668  -3.283   0.147  13.762
 2562POPC   NC342669  14.989  -6.720  14.434
 2562POPC   PO442670  14.931  -6.536  14.382
 2562POPC   GL142671  14.873  -6.352  14.330
 2562POPC   GL242672  14.954  -6.314  14.375
 2562POPC   C1A42673  14.815  -6.168  14.279
 2562POPC   D2A42674  14.757  -5.983  14.227
 2562POPC   C3A42675  14.699  -5.799  14.176
 2562POPC   C4A42676  14.641  -5.615  14.124
 2562POPC   C1B42677  14.918  -6.183  14.108
 2562POPC   C2B42678  14.860  -5.999  14.056
 2562POPC   C3B42679  14.802  -5.815  14.005
 2562POPC   C4B42680  14.744  -5.631  13.953
 2563POPC   NC342681  19.745  24.647   6.200
 2563POPC   PO442682  19.640  24.480   6.235
 2563POPC   GL142683  19.535  24.313   6.270
 2563POPC   GL242684  19.483  24.328   6.186
 2563POPC   C1A42685  19.431  24.146   6.305
 2563POPC   D2A42686  19.326  23.980   6.339
 2563POPC   C3A42687  19.222  23.813   6.374
 2563POPC   C4A42688  19.117  23.646   6.409
 2563POPC   C1B42689  19.566  24.040   6.202
 2563POPC   C2B42690  19.461  23.874   6.237
 2563POPC   C3B42691  19.357  23.707   6.271
 2563POPC   C4B42692  19.252  23.540   6.306
 2564POPC   NC342693  25.247   1.326   6.229
 2564POPC   PO442694  25.076   1.423   6.266
 2564POPC   GL142695  24.905   1.520   6.303
 2564POPC   GL242696  24.931   1.591   6.239
 2564POPC   C1A42697  24.734   1.616   6.341
 2564POPC   D2A42698  24.563   1.713   6.378
 2564POPC   C3A42699  24.392   1.809   6.416
 2564POPC   C4A42700  24.221   1.906   6.453
 2564POPC   C1B42701  24.645   1.516   6.193
 2564POPC   C2B42702  24.474   1.612   6.230
 2564POPC   C3B42703  24.303   1.709   6.267
 2564POPC   C4B42704  24.132   1.805   6.305
 2565POPC   NC342705  15.345  26.367   4.890
 2565POPC   PO442706  15.287  26.185   4.949
 2565POPC   GL142707  15.229  26.003   5.008
 2565POPC   GL242708  15.318  25.966   4.983
 2565POPC   C1A42709  15.170  25.821   5.067
 2565POPC   D2A42710  15.112  25.639   5.127
 2565POPC   C3A42711  15.053  25.457   5.186
 2565POPC   C4A42712  14.995  25.275   5.245
 2565POPC   C1B42713  15.238  25.859   5.252
 2565POPC   C2B42714  15.180  25.677   5.311
 2565POPC   C3B42715  15.121  25.495   5.370
 2565POPC   C4B42716  15.063  25.313   5.429
 2566POPC   NC342717  16.478  25.430   3.401
 2566POPC   PO442718  16.410  25.255   3.470
 2566POPC   GL142719  16.342  25.080   3.539
 2566POPC   GL242720  16.425  25.069   3.593
 2566POPC   C1A42721  16.274  24.905   3.609
 2566POPC   D2A42722  16.205  24.731   3.678
 2566POPC   C3A42723  16.137  24.556   3.748
 2566POPC   C4A42724  16.069  24.381   3.817
 2566POPC   C1B42725  16.187  25.000   3.762
 2566POPC   C2B42726  16.119  24.825   3.832
 2566POPC   C3B42727  16.051  24.651   3.901
 2566POPC   C4B42728  15.983  24.476   3.970
 2567POPC   NC342729  -1.831   4.626  -2.750
 2567POPC   PO442730  -1.704   4.689  -2.609
 2567POPC   GL142731  -1.577   4.752  -2.468
 2567POPC   GL242732  -1.620   4.690  -2.402
 2567POPC   C1A42733  -1.450   4.814  -2.326
 2567POPC   D2A42734  -1.324   4.877  -2.185
 2567POPC   C3A42735  -1.197   4.939  -2.043
 2567POPC   C4A42736  -1.070   5.002  -1.902
 2567POPC   C1B42737  -1.322   4.670  -2.378
 2567POPC   C2B42738  -1.195   4.733  -2.237
 2567POPC   C3B42739  -1.068   4.795  -2.095
 2567POPC   C4B42740  -0.941   4.858  -1.954
 2568POPC   NC342741   6.789  19.191  25.185
 2568POPC   PO442742   6.823  19.086  25.018
 2568POPC   GL142743   6.857  18.981  24.851
 2568POPC   GL242744   6.950  19.017  24.847
 2568POPC   C1A42745   6.891  18.876  24.684
 2568POPC   D2A42746   6.924  18.772  24.517
 2568POPC   C3A42747   6.958  18.667  24.350
 2568POPC   C4A42748   6.992  18.562  24.183
 2568POPC   C1B42749   6.955  18.722  24.794
 2568POPC   C2B42750   6.989  18.617  24.627
 2568POPC   C3B42751   7.022  18.513  24.460
 2568POPC   C4B42752   7.056  18.408  24.293
 2569POPC   NC342753  16.660   1.562  -4.595
 2569POPC   PO442754  16.583   1.653  -4.435
 2569POPC   GL142755  16.506   1.744  -4.275
 2569POPC   GL242756  16.436   1.787  -4.333
 2569POPC   C1A42757  16.428   1.835  -4.115
 2569POPC   D2A42758  16.351   1.927  -3.954
 2569POPC   C3A42759  16.273   2.018  -3.794
 2569POPC   C4A42760  16.196   2.109  -3.634
 2569POPC   C1B42761  16.307   1.679  -4.084
 2569POPC   C2B42762  16.230   1.770  -3.924
 2569POPC   C3B42763  16.152   1.862  -3.764
 2569POPC   C4B42764  16.075   1.953  -3.604
 2570POPC   NC342765  -0.660  23.128  16.467
 2570POPC   PO442766  -0.545  22.980  16.397
 2570POPC   GL142767  -0.430  22.832  16.327
 2570POPC   GL242768  -0.381  22.829  16.413
 2570POPC   C1A42769  -0.316  22.684  16.257
 2570POPC   D2A42770  -0.201  22.535  16.186
 2570POPC   C3A42771  -0.087  22.387  16.116
 2570POPC   C4A42772   0.028  22.239  16.046
 2570POPC   C1B42773  -0.446  22.549  16.328
 2570POPC   C2B42774  -0.331  22.401  16.257
 2570POPC   C3B42775  -0.217  22.253  16.187
 2570POPC   C4B42776  -0.102  22.105  16.117
 2571POPC   NC342777  -1.224  14.866  -3.442
 2571POPC   PO442778  -1.104  14.815  -3.291
 2571POPC   GL142779  -0.984  14.764  -3.140
 2571POPC   GL242780  -1.060  14.774  -3.076
 2571POPC   C1A42781  -0.863  14.712  -2.989
 2571POPC   D2A42782  -0.743  14.661  -2.837
 2571POPC   C3A42783  -0.622  14.609  -2.686
 2571POPC   C4A42784  -0.502  14.558  -2.535
 2571POPC   C1B42785  -0.911  14.520  -3.015
 2571POPC   C2B42786  -0.791  14.469  -2.864
 2571POPC   C3B42787  -0.671  14.417  -2.713
 2571POPC   C4B42788  -0.550  14.366  -2.562
 2572POPC   NC342789  25.302  17.234   3.999
 2572POPC   PO442790  25.131  17.150   4.059
 2572POPC   GL142791  24.960  17.066   4.119
 2572POPC   GL242792  24.908  17.131   4.062
 2572POPC   C1A42793  24.788  16.983   4.179
 2572POPC   D2A42794  24.617  16.899   4.240
 2572POPC   C3A42795  24.445  16.816   4.300
 2572POPC   C4A42796  24.274  16.732   4.360
 2572POPC   C1B42797  24.797  16.854   4.026
 2572POPC   C2B42798  24.626  16.771   4.087
 2572POPC   C3B42799  24.454  16.687   4.147
 2572POPC   C4B42800  24.283  16.603   4.207
 2573POPC   NC342801  -3.574   5.801  -1.405
 2573POPC   PO442802  -3.425   5.844  -1.279
 2573POPC   GL142803  -3.276   5.887  -1.153
 2573POPC   GL242804  -3.337   5.874  -1.076
 2573POPC   C1A42805  -3.126   5.929  -1.027
 2573POPC   D2A42806  -2.977   5.972  -0.902
 2573POPC   C3A42807  -2.827   6.014  -0.776
 2573POPC   C4A42808  -2.678   6.057  -0.650
 2573POPC   C1B42809  -3.077   5.735  -1.020
 2573POPC   C2B42810  -2.928   5.778  -0.894
 2573POPC   C3B42811  -2.778   5.821  -0.768
 2573POPC   C4B42812  -2.629   5.863  -0.643
 2574POPC   NC342813  -6.307  10.688   1.940
 2574POPC   PO442814  -6.126  10.682   2.025
 2574POPC   GL142815  -5.945  10.676   2.110
 2574POPC   GL242816  -5.972  10.594   2.161
 2574POPC   C1A42817  -5.764  10.670   2.195
 2574POPC   D2A42818  -5.584  10.663   2.281
 2574POPC   C3A42819  -5.403  10.657   2.366
 2574POPC   C4A42820  -5.222  10.651   2.451
 2574POPC   C1B42821  -5.698  10.554   2.046
 2574POPC   C2B42822  -5.517  10.548   2.131
 2574POPC   C3B42823  -5.336  10.542   2.217
 2574POPC   C4B42824  -5.156  10.536   2.302
 2575POPC   NC342825  -1.403   3.722  22.446
 2575POPC   PO442826  -1.280   3.792  22.305
 2575POPC   GL142827  -1.157   3.862  22.164
 2575POPC   GL242828  -1.133   3.769  22.139
 2575POPC   C1A42829  -1.034   3.933  22.023
 2575POPC   D2A42830  -0.912   4.003  21.881
 2575POPC   C3A42831  -0.789   4.074  21.740
 2575POPC   C4A42832  -0.666   4.144  21.599
 2575POPC   C1B42833  -1.184   3.929  21.890
 2575POPC   C2B42834  -1.061   3.999  21.749
 2575POPC   C3B42835  -0.939   4.070  21.608
 2575POPC   C4B42836  -0.816   4.140  21.467
 2576POPC   NC342837  12.741  -7.114   4.695
 2576POPC   PO442838  12.706  -6.926   4.753
 2576POPC   GL142839  12.671  -6.738   4.811
 2576POPC   GL242840  12.669  -6.709   4.716
 2576POPC   C1A42841  12.635  -6.550   4.870
 2576POPC   D2A42842  12.600  -6.362   4.928
 2576POPC   C3A42843  12.564  -6.174   4.987
 2576POPC   C4A42844  12.529  -5.986   5.045
 2576POPC   C1B42845  12.438  -6.585   4.862
 2576POPC   C2B42846  12.403  -6.397   4.921
 2576POPC   C3B42847  12.368  -6.209   4.979
 2576POPC   C4B42848  12.332  -6.021   5.037
 2577POPC   NC342849   4.418  -4.250   0.204
 2577POPC   PO442850   4.477  -4.094   0.314
 2577POPC   GL142851   4.536  -3.938   0.424
 2577POPC   GL242852   4.608  -3.918   0.358
 2577POPC   C1A42853   4.595  -3.781   0.534
 2577POPC   D2A42854   4.654  -3.625   0.643
 2577POPC   C3A42855   4.713  -3.468   0.753
 2577POPC   C4A42856   4.772  -3.312   0.863
 2577POPC   C1B42857   4.470  -3.663   0.432
 2577POPC   C2B42858   4.529  -3.506   0.541
 2577POPC   C3B42859   4.588  -3.350   0.651
 2577POPC   C4B42860   4.647  -3.193   0.761
 2578POPC   NC342861   2.166  14.427  25.654
 2578POPC   PO442862   2.252  14.379  25.480
 2578POPC   GL142863   2.338  14.331  25.306
 2578POPC   GL242864   2.396  14.413  25.312
 2578POPC   C1A42865   2.425  14.284  25.132
 2578POPC   D2A42866   2.511  14.236  24.958
 2578POPC   C3A42867   2.598  14.189  24.784
 2578POPC   C4A42868   2.684  14.141  24.610
 2578POPC   C1B42869   2.564  14.179  25.230
 2578POPC   C2B42870   2.650  14.131  25.056
 2578POPC   C3B42871   2.737  14.084  24.882
 2578POPC   C4B42872   2.823  14.036  24.708
 2579POPC   NC342873  -0.342  -2.733  17.726
 2579POPC   PO442874  -0.230  -2.593  17.637
 2579POPC   GL142875  -0.118  -2.453  17.548
 2579POPC   GL242876  -0.109  -2.405  17.636
 2579POPC   C1A42877  -0.007  -2.312  17.460
 2579POPC   D2A42878   0.105  -2.172  17.371
 2579POPC   C3A42879   0.216  -2.031  17.283
 2579POPC   C4A42880   0.328  -1.891  17.194
 2579POPC   C1B42881   0.158  -2.418  17.501
 2579POPC   C2B42882   0.270  -2.277  17.412
 2579POPC   C3B42883   0.381  -2.137  17.323
 2579POPC   C4B42884   0.493  -1.997  17.235
 2580POPC   NC342885  27.101   5.108   7.620
 2580POPC   PO442886  26.909   5.159   7.645
 2580POPC   GL142887  26.717   5.210   7.670
 2580POPC   GL242888  26.715   5.247   7.577
 2580POPC   C1A42889  26.526   5.262   7.696
 2580POPC   D2A42890  26.334   5.313   7.721
 2580POPC   C3A42891  26.143   5.365   7.747
 2580POPC   C4A42892  25.951   5.416   7.772
 2580POPC   C1B42893  26.469   5.083   7.627
 2580POPC   C2B42894  26.277   5.134   7.652
 2580POPC   C3B42895  26.085   5.186   7.677
 2580POPC   C4B42896  25.894   5.237   7.703
 2581POPC   NC342897  12.247  -7.250   4.868
 2581POPC   PO442898  12.219  -7.060   4.925
 2581POPC   GL142899  12.191  -6.870   4.982
 2581POPC   GL242900  12.190  -6.842   4.886
 2581POPC   C1A42901  12.163  -6.680   5.038
 2581POPC   D2A42902  12.134  -6.491   5.095
 2581POPC   C3A42903  12.106  -6.301   5.151
 2581POPC   C4A42904  12.078  -6.111   5.208
 2581POPC   C1B42905  11.965  -6.708   5.031
 2581POPC   C2B42906  11.936  -6.518   5.088
 2581POPC   C3B42907  11.908  -6.328   5.145
 2581POPC   C4B42908  11.880  -6.138   5.201
 2582POPC   NC342909  -7.786   8.506  13.386
 2582POPC   PO442910  -7.591   8.525  13.348
 2582POPC   GL142911  -7.396   8.544  13.310
 2582POPC   GL242912  -7.375   8.529  13.406
 2582POPC   C1A42913  -7.200   8.562  13.271
 2582POPC   D2A42914  -7.005   8.581  13.233
 2582POPC   C3A42915  -6.809   8.599  13.194
 2582POPC   C4A42916  -6.614   8.618  13.156
 2582POPC   C1B42917  -7.188   8.365  13.239
 2582POPC   C2B42918  -6.992   8.384  13.201
 2582POPC   C3B42919  -6.797   8.402  13.163
 2582POPC   C4B42920  -6.602   8.421  13.124
 2583POPC   NC342921  24.915  19.784  11.709
 2583POPC   PO442922  24.749  19.675  11.689
 2583POPC   GL142923  24.583  19.566  11.669
 2583POPC   GL242924  24.546  19.634  11.606
 2583POPC   C1A42925  24.417  19.456  11.649
 2583POPC   D2A42926  24.250  19.347  11.628
 2583POPC   C3A42927  24.084  19.237  11.608
 2583POPC   C4A42928  23.918  19.128  11.588
 2583POPC   C1B42929  24.499  19.359  11.494
 2583POPC   C2B42930  24.333  19.250  11.474
 2583POPC   C3B42931  24.167  19.140  11.454
 2583POPC   C4B42932  24.000  19.031  11.434
 2584POPC   NC342933   5.743  -4.636  19.727
 2584POPC   PO442934   5.788  -4.474  19.618
 2584POPC   GL142935   5.833  -4.312  19.509
 2584POPC   GL242936   5.898  -4.284  19.579
 2584POPC   C1A42937   5.878  -4.151  19.400
 2584POPC   D2A42938   5.923  -3.989  19.292
 2584POPC   C3A42939   5.968  -3.828  19.183
 2584POPC   C4A42940   6.013  -3.666  19.074
 2584POPC   C1B42941   6.023  -4.253  19.308
 2584POPC   C2B42942   6.068  -4.092  19.199
 2584POPC   C3B42943   6.113  -3.930  19.090
 2584POPC   C4B42944   6.158  -3.769  18.981
 2585POPC   NC342945  10.177  27.551   5.800
 2585POPC   PO442946  10.171  27.356   5.844
 2585POPC   GL142947  10.165  27.161   5.888
 2585POPC   GL242948  10.219  27.178   5.971
 2585POPC   C1A42949  10.160  26.966   5.932
 2585POPC   D2A42950  10.154  26.771   5.975
 2585POPC   C3A42951  10.149  26.576   6.019
 2585POPC   C4A42952  10.143  26.381   6.063
 2585POPC   C1B42953   9.991  26.994   6.035
 2585POPC   C2B42954   9.985  26.799   6.078
 2585POPC   C3B42955   9.980  26.604   6.122
 2585POPC   C4B42956   9.974  26.409   6.166
 2586POPC   NC342957  -2.343  23.202   8.695
 2586POPC   PO442958  -2.213  23.051   8.710
 2586POPC   GL142959  -2.083  22.900   8.725
 2586POPC   GL242960  -2.037  22.947   8.800
 2586POPC   C1A42961  -1.953  22.749   8.741
 2586POPC   D2A42962  -1.822  22.598   8.756
 2586POPC   C3A42963  -1.692  22.447   8.772
 2586POPC   C4A42964  -1.562  22.296   8.787
 2586POPC   C1B42965  -2.073  22.658   8.872
 2586POPC   C2B42966  -1.943  22.507   8.888
 2586POPC   C3B42967  -1.813  22.356   8.903
 2586POPC   C4B42968  -1.683  22.205   8.918
 2587POPC   NC342969  23.803  12.577  21.114
 2587POPC   PO442970  23.653  12.547  20.986
 2587POPC   GL142971  23.503  12.517  20.858
 2587POPC   GL242972  23.532  12.596  20.804
 2587POPC   C1A42973  23.352  12.487  20.729
 2587POPC   D2A42974  23.202  12.457  20.601
 2587POPC   C3A42975  23.051  12.427  20.472
 2587POPC   C4A42976  22.901  12.397  20.344
 2587POPC   C1B42977  23.470  12.368  20.619
 2587POPC   C2B42978  23.319  12.338  20.491
 2587POPC   C3B42979  23.169  12.308  20.362
 2587POPC   C4B42980  23.019  12.278  20.234
 2588POPC   NC342981  22.283  23.093  10.862
 2588POPC   PO442982  22.147  22.947  10.849
 2588POPC   GL142983  22.011  22.801  10.836
 2588POPC   GL242984  22.078  22.742  10.791
 2588POPC   C1A42985  21.875  22.655  10.823
 2588POPC   D2A42986  21.738  22.509  10.809
 2588POPC   C3A42987  21.602  22.363  10.796
 2588POPC   C4A42988  21.466  22.217  10.783
 2588POPC   C1B42989  21.932  22.585  11.001
 2588POPC   C2B42990  21.796  22.439  10.988
 2588POPC   C3B42991  21.660  22.293  10.975
 2588POPC   C4B42992  21.523  22.147  10.961
 2589POPC   NC342993  -6.637  16.041  14.157
 2589POPC   PO442994  -6.454  15.973  14.112
 2589POPC   GL142995  -6.271  15.905  14.067
 2589POPC   GL242996  -6.282  15.832  14.134
 2589POPC   C1A42997  -6.088  15.838  14.022
 2589POPC   D2A42998  -5.906  15.770  13.978
 2589POPC   C3A42999  -5.723  15.703  13.933
 2589POPC   C4A43000  -5.540  15.635  13.888
 2589POPC   C1B43001  -6.167  15.720  13.881
 2589POPC   C2B43002  -5.984  15.653  13.836
 2589POPC   C3B43003  -5.801  15.585  13.791
 2589POPC   C4B43004  -5.618  15.518  13.746
 2590POPC   NC343005  12.290  24.225  20.697
 2590POPC   PO443006  12.259  24.068  20.577
 2590POPC   GL143007  12.228  23.911  20.457
 2590POPC   GL243008  12.327  23.896  20.451
 2590POPC   C1A43009  12.197  23.754  20.336
 2590POPC   D2A43010  12.167  23.598  20.216
 2590POPC   C3A43011  12.136  23.441  20.095
 2590POPC   C4A43012  12.105  23.284  19.975
 2590POPC   C1B43013  12.189  23.634  20.496
 2590POPC   C2B43014  12.158  23.477  20.375
 2590POPC   C3B43015  12.127  23.320  20.255
 2590POPC   C4B43016  12.097  23.163  20.134
 2591POPC   NC343017  -3.773  10.113  -1.822
 2591POPC   PO443018  -3.624  10.114  -1.689
 2591POPC   GL143019  -3.475  10.115  -1.556
 2591POPC   GL243020  -3.534  10.161  -1.490
 2591POPC   C1A43021  -3.326  10.117  -1.423
 2591POPC   D2A43022  -3.176  10.118  -1.289
 2591POPC   C3A43023  -3.027  10.120  -1.156
 2591POPC   C4A43024  -2.878  10.121  -1.023
 2591POPC   C1B43025  -3.386   9.939  -1.353
 2591POPC   C2B43026  -3.237   9.941  -1.220
 2591POPC   C3B43027  -3.088   9.942  -1.087
 2591POPC   C4B43028  -2.938   9.944  -0.953
 2592POPC   NC343029  22.392  22.825   7.635
 2592POPC   PO443030  22.253  22.684   7.661
 2592POPC   GL143031  22.114  22.543   7.687
 2592POPC   GL243032  22.065  22.576   7.607
 2592POPC   C1A43033  21.975  22.401   7.714
 2592POPC   D2A43034  21.837  22.260   7.740
 2592POPC   C3A43035  21.698  22.118   7.767
 2592POPC   C4A43036  21.559  21.977   7.793
 2592POPC   C1B43037  22.080  22.277   7.596
 2592POPC   C2B43038  21.941  22.136   7.623
 2592POPC   C3B43039  21.802  21.994   7.649
 2592POPC   C4B43040  21.663  21.853   7.676
 2593POPC   NC343041  -7.467   6.748  13.704
 2593POPC   PO443042  -7.275   6.785  13.664
 2593POPC   GL143043  -7.083   6.822  13.624
 2593POPC   GL243044  -7.058   6.793  13.716
 2593POPC   C1A43045  -6.890   6.859  13.584
 2593POPC   D2A43046  -6.698   6.895  13.543
 2593POPC   C3A43047  -6.505   6.932  13.503
 2593POPC   C4A43048  -6.313   6.969  13.463
 2593POPC   C1B43049  -6.868   6.671  13.518
 2593POPC   C2B43050  -6.675   6.708  13.478
 2593POPC   C3B43051  -6.483   6.744  13.438
 2593POPC   C4B43052  -6.291   6.781  13.398
 2594POPC   NC343053  -6.870   9.144   3.282
 2594POPC   PO443054  -6.684   9.152   3.355
 2594POPC   GL143055  -6.498   9.160   3.428
 2594POPC   GL243056  -6.517   9.081   3.486
 2594POPC   C1A43057  -6.312   9.169   3.501
 2594POPC   D2A43058  -6.126   9.177   3.573
 2594POPC   C3A43059  -5.940   9.186   3.646
 2594POPC   C4A43060  -5.754   9.194   3.719
 2594POPC   C1B43061  -6.249   9.047   3.355
 2594POPC   C2B43062  -6.063   9.055   3.428
 2594POPC   C3B43063  -5.877   9.064   3.500
 2594POPC   C4B43064  -5.691   9.072   3.573
 2595POPC   NC343065   2.653  20.342  -3.075
 2595POPC   PO443066   2.733  20.228  -2.932
 2595POPC   GL143067   2.813  20.114  -2.789
 2595POPC   GL243068   2.893  20.098  -2.846
 2595POPC   C1A43069   2.892  19.999  -2.645
 2595POPC   D2A43070   2.972  19.885  -2.502
 2595POPC   C3A43071   3.051  19.770  -2.358
 2595POPC   C4A43072   3.131  19.656  -2.215
 2595POPC   C1B43073   2.980  20.160  -2.566
 2595POPC   C2B43074   3.060  20.046  -2.422
 2595POPC   C3B43075   3.139  19.932  -2.279
 2595POPC   C4B43076   3.219  19.817  -2.135
 2596POPC   NC343077  -0.118  24.697  13.248
 2596POPC   PO443078  -0.011  24.533  13.208
 2596POPC   GL143079   0.096  24.369  13.168
 2596POPC   GL243080   0.178  24.424  13.159
 2596POPC   C1A43081   0.203  24.204  13.129
 2596POPC   D2A43082   0.309  24.040  13.089
 2596POPC   C3A43083   0.416  23.875  13.050
 2596POPC   C4A43084   0.523  23.711  13.010
 2596POPC   C1B43085   0.240  24.181  13.324
 2596POPC   C2B43086   0.346  24.017  13.284
 2596POPC   C3B43087   0.453  23.852  13.245
 2596POPC   C4B43088   0.560  23.688  13.205
 2597POPC   NC343089  27.805  10.843  10.741
 2597POPC   PO443090  27.605  10.835  10.732
 2597POPC   GL143091  27.405  10.827  10.723
 2597POPC   GL243092  27.404  10.913  10.672
 2597POPC   C1A43093  27.206  10.819  10.714
 2597POPC   D2A43094  27.006  10.812  10.705
 2597POPC   C3A43095  26.807  10.804  10.696
 2597POPC   C4A43096  26.607  10.796  10.687
 2597POPC   C1B43097  27.218  10.718  10.542
 2597POPC   C2B43098  27.018  10.710  10.533
 2597POPC   C3B43099  26.818  10.703  10.524
 2597POPC   C4B43100  26.619  10.695  10.515
 2598POPC   NC343101  -4.091  21.425   8.490
 2598POPC   PO443102  -3.939  21.296   8.504
 2598POPC   GL143103  -3.787  21.167   8.518
 2598POPC   GL243104  -3.798  21.165   8.617
 2598POPC   C1A43105  -3.634  21.038   8.532
 2598POPC   D2A43106  -3.482  20.910   8.546
 2598POPC   C3A43107  -3.329  20.781   8.560
 2598POPC   C4A43108  -3.177  20.652   8.574
 2598POPC   C1B43109  -3.762  20.885   8.513
 2598POPC   C2B43110  -3.609  20.757   8.527
 2598POPC   C3B43111  -3.457  20.628   8.541
 2598POPC   C4B43112  -3.304  20.499   8.555
 2599POPC   NC343113   0.681  18.447  -3.150
 2599POPC   PO443114   0.783  18.357  -3.003
 2599POPC   GL143115   0.885  18.267  -2.856
 2599POPC   GL243116   0.969  18.311  -2.887
 2599POPC   C1A43117   0.986  18.177  -2.709
 2599POPC   D2A43118   1.088  18.088  -2.562
 2599POPC   C3A43119   1.189  17.998  -2.415
 2599POPC   C4A43120   1.291  17.908  -2.268
 2599POPC   C1B43121   0.949  18.333  -2.589
 2599POPC   C2B43122   1.051  18.243  -2.442
 2599POPC   C3B43123   1.152  18.153  -2.295
 2599POPC   C4B43124   1.254  18.063  -2.148
 2600POPC   NC343125   2.419  14.463  -5.895
 2600POPC   PO443126   2.504  14.415  -5.721
 2600POPC   GL143127   2.589  14.367  -5.547
 2600POPC   GL243128   2.521  14.421  -5.498
 2600POPC   C1A43129   2.675  14.318  -5.373
 2600POPC   D2A43130   2.760  14.270  -5.198
 2600POPC   C3A43131   2.846  14.221  -5.024
 2600POPC   C4A43132   2.931  14.173  -4.850
 2600POPC   C1B43133   2.556  14.158  -5.359
 2600POPC   C2B43134   2.642  14.109  -5.185
 2600POPC   C3B43135   2.727  14.061  -5.011
 2600POPC   C4B43136   2.812  14.013  -4.836
 2601POPC   NC343137  25.613  12.896   1.623
 2601POPC   PO443138  25.439  12.865   1.717
 2601POPC   GL143139  25.265  12.834   1.811
 2601POPC   GL243140  25.247  12.755   1.751
 2601POPC   C1A43141  25.092  12.802   1.905
 2601POPC   D2A43142  24.918  12.771   1.999
 2601POPC   C3A43143  24.745  12.739   2.093
 2601POPC   C4A43144  24.571  12.708   2.187
 2601POPC   C1B43145  25.184  12.682   2.035
 2601POPC   C2B43146  25.011  12.651   2.129
 2601POPC   C3B43147  24.837  12.619   2.223
 2601POPC   C4B43148  24.663  12.588   2.317
 2602POPC   NC343149  -7.548   5.674  11.728
 2602POPC   PO443150  -7.355   5.723  11.706
 2602POPC   GL143151  -7.162   5.772  11.684
 2602POPC   GL243152  -7.136   5.689  11.734
 2602POPC   C1A43153  -6.969   5.820  11.663
 2602POPC   D2A43154  -6.777   5.869  11.641
 2602POPC   C3A43155  -6.584   5.917  11.620
 2602POPC   C4A43156  -6.391   5.966  11.598
 2602POPC   C1B43157  -6.963   5.719  11.490
 2602POPC   C2B43158  -6.771   5.768  11.469
 2602POPC   C3B43159  -6.578   5.817  11.447
 2602POPC   C4B43160  -6.385   5.865  11.425
 2603POPC   NC343161  13.590   8.166  -7.685
 2603POPC   PO443162  13.547   8.188  -7.491
 2603POPC   GL143163  13.504   8.210  -7.297
 2603POPC   GL243164  13.505   8.309  -7.308
 2603POPC   C1A43165  13.461   8.231  -7.103
 2603POPC   D2A43166  13.418   8.253  -6.908
 2603POPC   C3A43167  13.375   8.274  -6.714
 2603POPC   C4A43168  13.332   8.296  -6.520
 2603POPC   C1B43169  13.266   8.228  -7.145
 2603POPC   C2B43170  13.223   8.249  -6.951
 2603POPC   C3B43171  13.180   8.271  -6.757
 2603POPC   C4B43172  13.137   8.292  -6.563
 2604POPC   NC343173   7.221  -7.257  14.701
 2604POPC   PO443174   7.253  -7.067  14.648
 2604POPC   GL143175   7.285  -6.877  14.595
 2604POPC   GL243176   7.382  -6.887  14.617
 2604POPC   C1A43177   7.317  -6.687  14.541
 2604POPC   D2A43178   7.348  -6.496  14.488
 2604POPC   C3A43179   7.380  -6.306  14.434
 2604POPC   C4A43180   7.412  -6.116  14.381
 2604POPC   C1B43181   7.354  -6.745  14.354
 2604POPC   C2B43182   7.386  -6.555  14.300
 2604POPC   C3B43183   7.418  -6.365  14.247
 2604POPC   C4B43184   7.450  -6.175  14.194
 2605POPC   NC343185  21.624  19.481  19.808
 2605POPC   PO443186  21.494  19.376  19.698
 2605POPC   GL143187  21.364  19.271  19.588
 2605POPC   GL243188  21.440  19.223  19.544
 2605POPC   C1A43189  21.234  19.167  19.478
 2605POPC   D2A43190  21.104  19.062  19.368
 2605POPC   C3A43191  20.974  18.958  19.258
 2605POPC   C4A43192  20.844  18.853  19.148
 2605POPC   C1B43193  21.227  19.026  19.620
 2605POPC   C2B43194  21.097  18.922  19.510
 2605POPC   C3B43195  20.967  18.817  19.400
 2605POPC   C4B43196  20.837  18.712  19.290
 2606POPC   NC343197  10.463  26.889  16.326
 2606POPC   PO443198  10.455  26.702  16.256
 2606POPC   GL143199  10.447  26.515  16.186
 2606POPC   GL243200  10.511  26.486  16.257
 2606POPC   C1A43201  10.439  26.328  16.117
 2606POPC   D2A43202  10.430  26.140  16.047
 2606POPC   C3A43203  10.422  25.953  15.978
 2606POPC   C4A43204  10.414  25.766  15.908
 2606POPC   C1B43205  10.286  26.289  16.240
 2606POPC   C2B43206  10.277  26.101  16.170
 2606POPC   C3B43207  10.269  25.914  16.100
 2606POPC   C4B43208  10.261  25.727  16.031
 2607POPC   NC343209  21.148   0.147  -0.107
 2607POPC   PO443210  21.022   0.253   0.006
 2607POPC   GL143211  20.896   0.359   0.119
 2607POPC   GL243212  20.820   0.332   0.060
 2607POPC   C1A43213  20.770   0.465   0.232
 2607POPC   D2A43214  20.643   0.572   0.345
 2607POPC   C3A43215  20.517   0.678   0.458
 2607POPC   C4A43216  20.391   0.784   0.571
 2607POPC   C1B43217  20.737   0.305   0.347
 2607POPC   C2B43218  20.611   0.411   0.460
 2607POPC   C3B43219  20.485   0.517   0.573
 2607POPC   C4B43220  20.359   0.623   0.686
 2608POPC   NC343221   5.825   2.543  -6.072
 2608POPC   PO443222   5.866   2.623  -5.893
 2608POPC   GL143223   5.907   2.703  -5.714
 2608POPC   GL243224   5.939   2.614  -5.682
 2608POPC   C1A43225   5.948   2.783  -5.536
 2608POPC   D2A43226   5.990   2.864  -5.357
 2608POPC   C3A43227   6.031   2.944  -5.179
 2608POPC   C4A43228   6.072   3.024  -5.000
 2608POPC   C1B43229   6.134   2.826  -5.598
 2608POPC   C2B43230   6.175   2.906  -5.419
 2608POPC   C3B43231   6.216   2.987  -5.241
 2608POPC   C4B43232   6.257   3.067  -5.062
 2609POPC   NC343233  22.765   1.670   0.484
 2609POPC   PO443234  22.624   1.761   0.593
 2609POPC   GL143235  22.483   1.852   0.702
 2609POPC   GL243236  22.554   1.908   0.746
 2609POPC   C1A43237  22.342   1.944   0.811
 2609POPC   D2A43238  22.202   2.035   0.919
 2609POPC   C3A43239  22.061   2.127   1.028
 2609POPC   C4A43240  21.920   2.218   1.137
 2609POPC   C1B43241  22.321   2.082   0.667
 2609POPC   C2B43242  22.181   2.173   0.776
 2609POPC   C3B43243  22.040   2.265   0.885
 2609POPC   C4B43244  21.899   2.356   0.994
 2610POPC   NC343245   4.567  -3.530  20.678
 2610POPC   PO443246   4.626  -3.381  20.558
 2610POPC   GL143247   4.685  -3.232  20.438
 2610POPC   GL243248   4.763  -3.286  20.409
 2610POPC   C1A43249   4.743  -3.083  20.319
 2610POPC   D2A43250   4.802  -2.933  20.199
 2610POPC   C3A43251   4.860  -2.784  20.080
 2610POPC   C4A43252   4.919  -2.635  19.960
 2610POPC   C1B43253   4.635  -3.160  20.170
 2610POPC   C2B43254   4.693  -3.010  20.050
 2610POPC   C3B43255   4.752  -2.861  19.930
 2610POPC   C4B43256   4.810  -2.712  19.811
 2611POPC   NC343257  12.972  27.556  12.600
 2611POPC   PO443258  12.940  27.361  12.568
 2611POPC   GL143259  12.908  27.166  12.536
 2611POPC   GL243260  12.993  27.161  12.483
 2611POPC   C1A43261  12.876  26.971  12.504
 2611POPC   D2A43262  12.845  26.777  12.473
 2611POPC   C3A43263  12.813  26.582  12.441
 2611POPC   C4A43264  12.781  26.387  12.409
 2611POPC   C1B43265  12.979  26.928  12.671
 2611POPC   C2B43266  12.947  26.733  12.639
 2611POPC   C3B43267  12.915  26.538  12.607
 2611POPC   C4B43268  12.883  26.343  12.575
 2612POPC   NC343269  -6.986   3.910  11.954
 2612POPC   PO443270  -6.799   3.977  11.930
 2612POPC   GL143271  -6.612   4.044  11.906
 2612POPC   GL243272  -6.578   3.949  11.906
 2612POPC   C1A43273  -6.425   4.110  11.882
 2612POPC   D2A43274  -6.238   4.177  11.857
 2612POPC   C3A43275  -6.051   4.243  11.833
 2612POPC   C4A43276  -5.864   4.310  11.809
 2612POPC   C1B43277  -6.447   4.101  11.683
 2612POPC   C2B43278  -6.260   4.168  11.659
 2612POPC   C3B43279  -6.073   4.234  11.635
 2612POPC   C4B43280  -5.886   4.301  11.610
 2613POPC   NC343281  14.482  14.835  26.692
 2613POPC   PO443282  14.438  14.776  26.506
 2613POPC   GL143283  14.394  14.717  26.320
 2613POPC   GL243284  14.489  14.689  26.306
 2613POPC   C1A43285  14.350  14.658  26.134
 2613POPC   D2A43286  14.305  14.599  25.948
 2613POPC   C3A43287  14.261  14.540  25.762
 2613POPC   C4A43288  14.217  14.481  25.576
 2613POPC   C1B43289  14.306  14.475  26.202
 2613POPC   C2B43290  14.262  14.416  26.016
 2613POPC   C3B43291  14.218  14.357  25.830
 2613POPC   C4B43292  14.173  14.298  25.644
 2614POPC   NC343293   2.749   0.207  -3.406
 2614POPC   PO443294   2.832   0.318  -3.262
 2614POPC   GL143295   2.915   0.429  -3.118
 2614POPC   GL243296   3.001   0.380  -3.129
 2614POPC   C1A43297   2.997   0.540  -2.973
 2614POPC   D2A43298   3.080   0.651  -2.829
 2614POPC   C3A43299   3.162   0.762  -2.684
 2614POPC   C4A43300   3.245   0.873  -2.540
 2614POPC   C1B43301   3.056   0.674  -3.110
 2614POPC   C2B43302   3.138   0.785  -2.965
 2614POPC   C3B43303   3.221   0.896  -2.821
 2614POPC   C4B43304   3.303   1.007  -2.676
 2615POPC   NC343305  16.472  -3.930   0.504
 2615POPC   PO443306  16.400  -3.776   0.610
 2615POPC   GL143307  16.328  -3.622   0.716
 2615POPC   GL243308  16.418  -3.578   0.712
 2615POPC   C1A43309  16.257  -3.468   0.822
 2615POPC   D2A43310  16.185  -3.314   0.927
 2615POPC   C3A43311  16.114  -3.160   1.033
 2615POPC   C4A43312  16.042  -3.006   1.139
 2615POPC   C1B43313  16.204  -3.376   0.652
 2615POPC   C2B43314  16.133  -3.222   0.758
 2615POPC   C3B43315  16.061  -3.068   0.864
 2615POPC   C4B43316  15.990  -2.914   0.969
 2616POPC   NC343317  -2.991  21.742  14.693
 2616POPC   PO443318  -2.847  21.613  14.640
 2616POPC   GL143319  -2.703  21.484  14.587
 2616POPC   GL243320  -2.709  21.441  14.677
 2616POPC   C1A43321  -2.559  21.356  14.535
 2616POPC   D2A43322  -2.416  21.227  14.482
 2616POPC   C3A43323  -2.272  21.099  14.430
 2616POPC   C4A43324  -2.128  20.970  14.377
 2616POPC   C1B43325  -2.698  21.230  14.464
 2616POPC   C2B43326  -2.554  21.101  14.412
 2616POPC   C3B43327  -2.410  20.973  14.359
 2616POPC   C4B43328  -2.266  20.844  14.307
 2617POPC   NC343329  13.936  -5.413   1.392
 2617POPC   PO443330  13.890  -5.244   1.488
 2617POPC   GL143331  13.844  -5.075   1.584
 2617POPC   GL243332  13.872  -5.022   1.504
 2617POPC   C1A43333  13.797  -4.906   1.680
 2617POPC   D2A43334  13.751  -4.736   1.776
 2617POPC   C3A43335  13.704  -4.567   1.872
 2617POPC   C4A43336  13.658  -4.398   1.968
 2617POPC   C1B43337  13.611  -4.915   1.607
 2617POPC   C2B43338  13.565  -4.746   1.703
 2617POPC   C3B43339  13.518  -4.577   1.799
 2617POPC   C4B43340  13.472  -4.408   1.895
 2618POPC   NC343341   0.998   6.734  -5.488
 2618POPC   PO443342   1.097   6.768  -5.318
 2618POPC   GL143343   1.196   6.802  -5.148
 2618POPC   GL243344   1.166   6.713  -5.113
 2618POPC   C1A43345   1.295   6.835  -4.977
 2618POPC   D2A43346   1.395   6.869  -4.807
 2618POPC   C3A43347   1.494   6.902  -4.636
 2618POPC   C4A43348   1.593   6.936  -4.466
 2618POPC   C1B43349   1.458   6.749  -5.055
 2618POPC   C2B43350   1.557   6.783  -4.885
 2618POPC   C3B43351   1.657   6.816  -4.714
 2618POPC   C4B43352   1.756   6.850  -4.544
 2619POPC   NC343353   3.238  -5.486  16.507
 2619POPC   PO443354   3.311  -5.315  16.434
 2619POPC   GL143355   3.384  -5.144  16.361
 2619POPC   GL243356   3.477  -5.182  16.365
 2619POPC   C1A43357   3.457  -4.972  16.289
 2619POPC   D2A43358   3.531  -4.801  16.216
 2619POPC   C3A43359   3.604  -4.629  16.144
 2619POPC   C4A43360   3.677  -4.458  16.071
 2619POPC   C1B43361   3.435  -5.042  16.103
 2619POPC   C2B43362   3.508  -4.870  16.030
 2619POPC   C3B43363   3.581  -4.699  15.957
 2619POPC   C4B43364   3.655  -4.527  15.885
 2620POPC   NC343365  19.552  -3.426  17.183
 2620POPC   PO443366  19.442  -3.278  17.106
 2620POPC   GL143367  19.332  -3.130  17.029
 2620POPC   GL243368  19.397  -3.063  17.064
 2620POPC   C1A43369  19.222  -2.982  16.953
 2620POPC   D2A43370  19.111  -2.833  16.876
 2620POPC   C3A43371  19.001  -2.685  16.800
 2620POPC   C4A43372  18.891  -2.537  16.723
 2620POPC   C1B43373  19.324  -2.994  16.782
 2620POPC   C2B43374  19.214  -2.846  16.705
 2620POPC   C3B43375  19.104  -2.697  16.628
 2620POPC   C4B43376  18.994  -2.549  16.552
 2621POPC   NC343377  18.861  11.707  -5.590
 2621POPC   PO443378  18.761  11.691  -5.417
 2621POPC   GL143379  18.661  11.675  -5.244
 2621POPC   GL243380  18.584  11.725  -5.284
 2621POPC   C1A43381  18.562  11.659  -5.072
 2621POPC   D2A43382  18.462  11.644  -4.899
 2621POPC   C3A43383  18.363  11.628  -4.727
 2621POPC   C4A43384  18.263  11.612  -4.554
 2621POPC   C1B43385  18.483  11.486  -5.133
 2621POPC   C2B43386  18.383  11.470  -4.961
 2621POPC   C3B43387  18.284  11.455  -4.788
 2621POPC   C4B43388  18.184  11.439  -4.615
 2622POPC   NC343389  26.557   3.388  11.841
 2622POPC   PO443390  26.372   3.460  11.819
 2622POPC   GL143391  26.187   3.532  11.797
 2622POPC   GL243392  26.200   3.535  11.698
 2622POPC   C1A43393  26.001   3.603  11.775
 2622POPC   D2A43394  25.816   3.675  11.754
 2622POPC   C3A43395  25.630   3.746  11.732
 2622POPC   C4A43396  25.445   3.818  11.710
 2622POPC   C1B43397  25.931   3.417  11.760
 2622POPC   C2B43398  25.746   3.488  11.738
 2622POPC   C3B43399  25.560   3.560  11.716
 2622POPC   C4B43400  25.375   3.631  11.694
 2623POPC   NC343401  -6.303   4.217  15.527
 2623POPC   PO443402  -6.123   4.284  15.471
 2623POPC   GL143403  -5.943   4.351  15.415
 2623POPC   GL243404  -5.930   4.392  15.505
 2623POPC   C1A43405  -5.763   4.418  15.358
 2623POPC   D2A43406  -5.584   4.484  15.302
 2623POPC   C3A43407  -5.404   4.551  15.245
 2623POPC   C4A43408  -5.224   4.618  15.189
 2623POPC   C1B43409  -5.680   4.248  15.424
 2623POPC   C2B43410  -5.500   4.315  15.367
 2623POPC   C3B43411  -5.320   4.382  15.311
 2623POPC   C4B43412  -5.141   4.448  15.254
 2624POPC   NC343413  23.028  22.376  10.532
 2624POPC   PO443414  22.882  22.240  10.522
 2624POPC   GL143415  22.736  22.104  10.512
 2624POPC   GL243416  22.792  22.049  10.450
 2624POPC   C1A43417  22.589  21.968  10.501
 2624POPC   D2A43418  22.443  21.833  10.491
 2624POPC   C3A43419  22.296  21.697  10.480
 2624POPC   C4A43420  22.150  21.561  10.470
 2624POPC   C1B43421  22.667  21.873  10.659
 2624POPC   C2B43422  22.520  21.737  10.648
 2624POPC   C3B43423  22.374  21.601  10.638
 2624POPC   C4B43424  22.228  21.465  10.627
 2625POPC   NC343425  23.530  -1.059  13.963
 2625POPC   PO443426  23.380  -0.935  13.917
 2625POPC   GL143427  23.230  -0.811  13.871
 2625POPC   GL243428  23.259  -0.811  13.776
 2625POPC   C1A43429  23.079  -0.688  13.825
 2625POPC   D2A43430  22.929  -0.564  13.779
 2625POPC   C3A43431  22.778  -0.441  13.733
 2625POPC   C4A43432  22.628  -0.317  13.687
 2625POPC   C1B43433  22.961  -0.845  13.788
 2625POPC   C2B43434  22.811  -0.721  13.742
 2625POPC   C3B43435  22.660  -0.598  13.696
 2625POPC   C4B43436  22.510  -0.474  13.650
 2626POPC   NC343437   5.761   8.431  27.434
 2626POPC   PO443438   5.804   8.445  27.239
 2626POPC   GL143439   5.847   8.459  27.044
 2626POPC   GL243440   5.943   8.475  27.067
 2626POPC   C1A43441   5.890   8.473  26.849
 2626POPC   D2A43442   5.933   8.488  26.655
 2626POPC   C3A43443   5.976   8.502  26.460
 2626POPC   C4A43444   6.019   8.516  26.265
 2626POPC   C1B43445   5.924   8.276  26.842
 2626POPC   C2B43446   5.967   8.291  26.648
 2626POPC   C3B43447   6.010   8.305  26.453
 2626POPC   C4B43448   6.053   8.319  26.258
 2627POPC   NC343449  13.516  26.426   3.634
 2627POPC   PO443450  13.473  26.243   3.704
 2627POPC   GL143451  13.430  26.060   3.774
 2627POPC   GL243452  13.498  26.021   3.712
 2627POPC   C1A43453  13.387  25.878   3.843
 2627POPC   D2A43454  13.344  25.695   3.913
 2627POPC   C3A43455  13.301  25.513   3.982
 2627POPC   C4A43456  13.258  25.330   4.052
 2627POPC   C1B43457  13.527  25.899   3.985
 2627POPC   C2B43458  13.484  25.716   4.054
 2627POPC   C3B43459  13.441  25.534   4.124
 2627POPC   C4B43460  13.398  25.351   4.194
 2628POPC   NC343461  25.289   1.192  13.282
 2628POPC   PO443462  25.119   1.290  13.244
 2628POPC   GL143463  24.949   1.388  13.206
 2628POPC   GL243464  24.950   1.354  13.112
 2628POPC   C1A43465  24.779   1.486  13.168
 2628POPC   D2A43466  24.608   1.583  13.129
 2628POPC   C3A43467  24.438   1.681  13.091
 2628POPC   C4A43468  24.268   1.779  13.053
 2628POPC   C1B43469  24.674   1.325  13.224
 2628POPC   C2B43470  24.503   1.423  13.186
 2628POPC   C3B43471  24.333   1.521  13.147
 2628POPC   C4B43472  24.163   1.618  13.109
 2629POPC   NC343473   9.509  -7.861   7.253
 2629POPC   PO443474   9.517  -7.663   7.279
 2629POPC   GL143475   9.525  -7.465   7.305
 2629POPC   GL243476   9.625  -7.468   7.302
 2629POPC   C1A43477   9.533  -7.267   7.331
 2629POPC   D2A43478   9.540  -7.068   7.356
 2629POPC   C3A43479   9.548  -6.870   7.382
 2629POPC   C4A43480   9.556  -6.672   7.408
 2629POPC   C1B43481   9.528  -7.241   7.132
 2629POPC   C2B43482   9.536  -7.042   7.158
 2629POPC   C3B43483   9.544  -6.844   7.184
 2629POPC   C4B43484   9.552  -6.646   7.210
 2630POPC   NC343485  27.734  10.803  11.797
 2630POPC   PO443486  27.535  10.795  11.779
 2630POPC   GL143487  27.336  10.787  11.761
 2630POPC   GL243488  27.338  10.870  11.705
 2630POPC   C1A43489  27.137  10.779  11.742
 2630POPC   D2A43490  26.938  10.770  11.724
 2630POPC   C3A43491  26.739  10.762  11.705
 2630POPC   C4A43492  26.540  10.754  11.687
 2630POPC   C1B43493  27.157  10.667  11.577
 2630POPC   C2B43494  26.958  10.659  11.559
 2630POPC   C3B43495  26.759  10.651  11.541
 2630POPC   C4B43496  26.560  10.643  11.522
 2631POPC   NC343497  11.370  25.861  18.434
 2631POPC   PO443498  11.351  25.685  18.340
 2631POPC   GL143499  11.332  25.509  18.246
 2631POPC   GL243500  11.365  25.551  18.162
 2631POPC   C1A43501  11.313  25.334  18.152
 2631POPC   D2A43502  11.293  25.158  18.059
 2631POPC   C3A43503  11.274  24.983  17.965
 2631POPC   C4A43504  11.255  24.807  17.871
 2631POPC   C1B43505  11.500  25.286  18.203
 2631POPC   C2B43506  11.481  25.111  18.109
 2631POPC   C3B43507  11.462  24.935  18.015
 2631POPC   C4B43508  11.443  24.759  17.922
 2632POPC   NC343509   1.792  23.182  19.293
 2632POPC   PO443510   1.879  23.034  19.190
 2632POPC   GL143511   1.966  22.886  19.087
 2632POPC   GL243512   2.047  22.944  19.073
 2632POPC   C1A43513   2.054  22.739  18.984
 2632POPC   D2A43514   2.141  22.591  18.881
 2632POPC   C3A43515   2.229  22.444  18.778
 2632POPC   C4A43516   2.316  22.296  18.675
 2632POPC   C1B43517   2.135  22.669  19.153
 2632POPC   C2B43518   2.222  22.521  19.050
 2632POPC   C3B43519   2.309  22.373  18.947
 2632POPC   C4B43520   2.397  22.226  18.844
 2633POPC   NC343521  19.256  21.125  20.626
 2633POPC   PO443522  19.150  21.001  20.511
 2633POPC   GL143523  19.044  20.877  20.396
 2633POPC   GL243524  19.128  20.844  20.354
 2633POPC   C1A43525  18.938  20.752  20.281
 2633POPC   D2A43526  18.831  20.628  20.166
 2633POPC   C3A43527  18.725  20.503  20.051
 2633POPC   C4A43528  18.619  20.379  19.936
 2633POPC   C1B43529  18.953  20.610  20.421
 2633POPC   C2B43530  18.847  20.486  20.306
 2633POPC   C3B43531  18.740  20.361  20.191
 2633POPC   C4B43532  18.634  20.237  20.076
 2634POPC   NC343533   9.298  25.772  18.739
 2634POPC   PO443534   9.306  25.597  18.643
 2634POPC   GL143535   9.314  25.422  18.547
 2634POPC   GL243536   9.364  25.465  18.472
 2634POPC   C1A43537   9.322  25.246  18.452
 2634POPC   D2A43538   9.330  25.071  18.356
 2634POPC   C3A43539   9.338  24.895  18.261
 2634POPC   C4A43540   9.346  24.720  18.165
 2634POPC   C1B43541   9.496  25.205  18.542
 2634POPC   C2B43542   9.504  25.029  18.447
 2634POPC   C3B43543   9.512  24.854  18.351
 2634POPC   C4B43544   9.520  24.679  18.255
 2635POPC   NC343545  13.035  26.859   4.556
 2635POPC   PO443546  12.996  26.673   4.617
 2635POPC   GL143547  12.957  26.487   4.678
 2635POPC   GL243548  13.037  26.453   4.629
 2635POPC   C1A43549  12.918  26.300   4.740
 2635POPC   D2A43550  12.879  26.114   4.801
 2635POPC   C3A43551  12.840  25.927   4.863
 2635POPC   C4A43552  12.801  25.741   4.924
 2635POPC   C1B43553  13.031  26.330   4.902
 2635POPC   C2B43554  12.992  26.144   4.964
 2635POPC   C3B43555  12.953  25.957   5.025
 2635POPC   C4B43556  12.914  25.771   5.086
 2636POPC   NC343557  19.008  -4.667   4.741
 2636POPC   PO443558  18.911  -4.502   4.800
 2636POPC   GL143559  18.814  -4.337   4.859
 2636POPC   GL243560  18.886  -4.281   4.820
 2636POPC   C1A43561  18.716  -4.173   4.917
 2636POPC   D2A43562  18.619  -4.008   4.976
 2636POPC   C3A43563  18.521  -3.844   5.034
 2636POPC   C4A43564  18.424  -3.679   5.093
 2636POPC   C1B43565  18.619  -4.168   4.743
 2636POPC   C2B43566  18.521  -4.004   4.801
 2636POPC   C3B43567  18.424  -3.839   4.860
 2636POPC   C4B43568  18.327  -3.674   4.918
 2637POPC   NC343569  11.950  24.083  20.963
 2637POPC   PO443570  11.921  23.928  20.840
 2637POPC   GL143571  11.892  23.773  20.717
 2637POPC   GL243572  11.989  23.749  20.724
 2637POPC   C1A43573  11.863  23.618  20.594
 2637POPC   D2A43574  11.834  23.462  20.472
 2637POPC   C3A43575  11.805  23.307  20.349
 2637POPC   C4A43576  11.776  23.152  20.226
 2637POPC   C1B43577  11.823  23.501  20.752
 2637POPC   C2B43578  11.794  23.346  20.629
 2637POPC   C3B43579  11.765  23.190  20.506
 2637POPC   C4B43580  11.736  23.035  20.383
 2638POPC   NC343581  -7.885   6.867   8.234
 2638POPC   PO443582  -7.689   6.905   8.251
 2638POPC   GL143583  -7.493   6.943   8.268
 2638POPC   GL243584  -7.508   6.973   8.363
 2638POPC   C1A43585  -7.298   6.980   8.286
 2638POPC   D2A43586  -7.102   7.018   8.303
 2638POPC   C3A43587  -6.907   7.055   8.321
 2638POPC   C4A43588  -6.711   7.093   8.338
 2638POPC   C1B43589  -7.268   6.793   8.350
 2638POPC   C2B43590  -7.072   6.831   8.367
 2638POPC   C3B43591  -6.876   6.868   8.385
 2638POPC   C4B43592  -6.681   6.906   8.402
 2639POPC   NC343593  21.147  18.838  20.874
 2639POPC   PO443594  21.022  18.743  20.750
 2639POPC   GL143595  20.897  18.648  20.626
 2639POPC   GL243596  20.974  18.596  20.588
 2639POPC   C1A43597  20.772  18.553  20.502
 2639POPC   D2A43598  20.647  18.458  20.378
 2639POPC   C3A43599  20.522  18.363  20.254
 2639POPC   C4A43600  20.397  18.268  20.130
 2639POPC   C1B43601  20.743  18.411  20.640
 2639POPC   C2B43602  20.618  18.316  20.516
 2639POPC   C3B43603  20.493  18.221  20.392
 2639POPC   C4B43604  20.368  18.126  20.268
 2640POPC   NC343605   3.380  24.333  18.798
 2640POPC   PO443606   3.454  24.174  18.701
 2640POPC   GL143607   3.528  24.015  18.604
 2640POPC   GL243608   3.615  24.063  18.592
 2640POPC   C1A43609   3.602  23.856  18.507
 2640POPC   D2A43610   3.675  23.698  18.411
 2640POPC   C3A43611   3.749  23.539  18.314
 2640POPC   C4A43612   3.823  23.380  18.217
 2640POPC   C1B43613   3.667  23.781  18.681
 2640POPC   C2B43614   3.741  23.622  18.584
 2640POPC   C3B43615   3.815  23.464  18.487
 2640POPC   C4B43616   3.889  23.305  18.390
 2641POPC   NC343617  -8.225   9.786   9.327
 2641POPC   PO443618  -8.025   9.787   9.334
 2641POPC   GL143619  -7.825   9.788   9.341
 2641POPC   GL243620  -7.827   9.882   9.374
 2641POPC   C1A43621  -7.625   9.789   9.348
 2641POPC   D2A43622  -7.426   9.790   9.355
 2641POPC   C3A43623  -7.226   9.791   9.362
 2641POPC   C4A43624  -7.026   9.792   9.369
 2641POPC   C1B43625  -7.632   9.723   9.537
 2641POPC   C2B43626  -7.432   9.724   9.544
 2641POPC   C3B43627  -7.232   9.725   9.551
 2641POPC   C4B43628  -7.032   9.726   9.558
 2642POPC   NC343629  18.628  19.666  -2.547
 2642POPC   PO443630  18.529  19.561  -2.409
 2642POPC   GL143631  18.430  19.456  -2.271
 2642POPC   GL243632  18.515  19.410  -2.245
 2642POPC   C1A43633  18.331  19.351  -2.132
 2642POPC   D2A43634  18.232  19.246  -1.994
 2642POPC   C3A43635  18.133  19.141  -1.855
 2642POPC   C4A43636  18.034  19.036  -1.717
 2642POPC   C1B43637  18.369  19.494  -1.997
 2642POPC   C2B43638  18.270  19.389  -1.859
 2642POPC   C3B43639  18.171  19.284  -1.720
 2642POPC   C4B43640  18.072  19.179  -1.582
 2643POPC   NC343641  20.886  22.065  17.355
 2643POPC   PO443642  20.763  21.928  17.277
 2643POPC   GL143643  20.640  21.791  17.199
 2643POPC   GL243644  20.645  21.838  17.110
 2643POPC   C1A43645  20.518  21.654  17.120
 2643POPC   D2A43646  20.395  21.516  17.042
 2643POPC   C3A43647  20.273  21.379  16.963
 2643POPC   C4A43648  20.150  21.242  16.885
 2643POPC   C1B43649  20.676  21.542  17.068
 2643POPC   C2B43650  20.553  21.405  16.990
 2643POPC   C3B43651  20.430  21.268  16.912
 2643POPC   C4B43652  20.308  21.131  16.833
 2644POPC   NC343653  20.371  24.405   7.129
 2644POPC   PO443654  20.260  24.241   7.154
 2644POPC   GL143655  20.149  24.077   7.179
 2644POPC   GL243656  20.097  24.099   7.096
 2644POPC   C1A43657  20.037  23.913   7.205
 2644POPC   D2A43658  19.926  23.748   7.230
 2644POPC   C3A43659  19.814  23.584   7.256
 2644POPC   C4A43660  19.703  23.420   7.281
 2644POPC   C1B43661  20.168  23.807   7.096
 2644POPC   C2B43662  20.056  23.643   7.121
 2644POPC   C3B43663  19.945  23.479   7.147
 2644POPC   C4B43664  19.834  23.315   7.172
 2645POPC   NC343665  11.896  27.705   7.200
 2645POPC   PO443666  11.873  27.509   7.232
 2645POPC   GL143667  11.850  27.313   7.264
 2645POPC   GL243668  11.933  27.313   7.320
 2645POPC   C1A43669  11.828  27.117   7.296
 2645POPC   D2A43670  11.805  26.920   7.328
 2645POPC   C3A43671  11.783  26.724   7.360
 2645POPC   C4A43672  11.760  26.528   7.392
 2645POPC   C1B43673  11.717  27.156   7.458
 2645POPC   C2B43674  11.695  26.960   7.490
 2645POPC   C3B43675  11.672  26.763   7.522
 2645POPC   C4B43676  11.650  26.567   7.554
 2646POPC   NC343677  16.208  20.773  -3.145
 2646POPC   PO443678  16.136  20.657  -2.999
 2646POPC   GL143679  16.064  20.541  -2.853
 2646POPC   GL243680  16.139  20.476  -2.868
 2646POPC   C1A43681  15.992  20.424  -2.707
 2646POPC   D2A43682  15.921  20.308  -2.561
 2646POPC   C3A43683  15.849  20.191  -2.415
 2646POPC   C4A43684  15.777  20.075  -2.269
 2646POPC   C1B43685  16.104  20.522  -2.574
 2646POPC   C2B43686  16.032  20.406  -2.428
 2646POPC   C3B43687  15.961  20.290  -2.282
 2646POPC   C4B43688  15.889  20.173  -2.136
 2647POPC   NC343689  12.887  16.883  -6.438
 2647POPC   PO443690  12.854  16.807  -6.256
 2647POPC   GL143691  12.821  16.731  -6.074
 2647POPC   GL243692  12.906  16.679  -6.080
 2647POPC   C1A43693  12.787  16.655  -5.892
 2647POPC   D2A43694  12.754  16.578  -5.711
 2647POPC   C3A43695  12.720  16.502  -5.529
 2647POPC   C4A43696  12.687  16.426  -5.347
 2647POPC   C1B43697  12.885  16.808  -5.810
 2647POPC   C2B43698  12.852  16.732  -5.628
 2647POPC   C3B43699  12.818  16.656  -5.446
 2647POPC   C4B43700  12.785  16.580  -5.265
 2648POPC   NC343701  27.538   7.178   7.953
 2648POPC   PO443702  27.341   7.205   7.973
 2648POPC   GL143703  27.144   7.232   7.993
 2648POPC   GL243704  27.149   7.315   7.936
 2648POPC   C1A43705  26.947   7.259   8.013
 2648POPC   D2A43706  26.749   7.287   8.032
 2648POPC   C3A43707  26.552   7.314   8.052
 2648POPC   C4A43708  26.355   7.341   8.072
 2648POPC   C1B43709  26.915   7.149   7.849
 2648POPC   C2B43710  26.718   7.177   7.868
 2648POPC   C3B43711  26.520   7.204   7.888
 2648POPC   C4B43712  26.323   7.231   7.908
 2649POPC   NC343713  18.118  25.484   5.858
 2649POPC   PO443714  18.029  25.310   5.899
 2649POPC   GL143715  17.940  25.136   5.940
 2649POPC   GL243716  18.018  25.087   5.900
 2649POPC   C1A43717  17.851  24.961   5.980
 2649POPC   D2A43718  17.762  24.787   6.021
 2649POPC   C3A43719  17.673  24.612   6.061
 2649POPC   C4A43720  17.584  24.438   6.102
 2649POPC   C1B43721  17.940  24.958   6.159
 2649POPC   C2B43722  17.851  24.783   6.200
 2649POPC   C3B43723  17.762  24.609   6.241
 2649POPC   C4B43724  17.673  24.434   6.281
 2650POPC   NC343725  20.574  -2.909  16.614
 2650POPC   PO443726  20.455  -2.766  16.541
 2650POPC   GL143727  20.336  -2.623  16.468
 2650POPC   GL243728  20.407  -2.596  16.404
 2650POPC   C1A43729  20.217  -2.480  16.396
 2650POPC   D2A43730  20.097  -2.336  16.323
 2650POPC   C3A43731  19.978  -2.193  16.251
 2650POPC   C4A43732  19.859  -2.050  16.178
 2650POPC   C1B43733  20.144  -2.608  16.261
 2650POPC   C2B43734  20.025  -2.465  16.189
 2650POPC   C3B43735  19.906  -2.322  16.116
 2650POPC   C4B43736  19.786  -2.179  16.043
 2651POPC   NC343737  -0.104  19.260  -1.998
 2651POPC   PO443738   0.007  19.159  -1.866
 2651POPC   GL143739   0.118  19.058  -1.734
 2651POPC   GL243740   0.201  19.092  -1.778
 2651POPC   C1A43741   0.229  18.957  -1.602
 2651POPC   D2A43742   0.340  18.855  -1.470
 2651POPC   C3A43743   0.451  18.754  -1.338
 2651POPC   C4A43744   0.562  18.653  -1.206
 2651POPC   C1B43745   0.229  19.115  -1.480
 2651POPC   C2B43746   0.340  19.014  -1.348
 2651POPC   C3B43747   0.451  18.913  -1.216
 2651POPC   C4B43748   0.562  18.812  -1.084
 2652POPC   NC343749  25.931   5.288  16.660
 2652POPC   PO443750  25.753   5.338  16.584
 2652POPC   GL143751  25.575   5.388  16.508
 2652POPC   GL243752  25.611   5.479  16.484
 2652POPC   C1A43753  25.397   5.438  16.431
 2652POPC   D2A43754  25.220   5.489  16.355
 2652POPC   C3A43755  25.042   5.539  16.278
 2652POPC   C4A43756  24.864   5.589  16.202
 2652POPC   C1B43757  25.455   5.370  16.252
 2652POPC   C2B43758  25.277   5.420  16.176
 2652POPC   C3B43759  25.099   5.470  16.100
 2652POPC   C4B43760  24.921   5.520  16.023
 2653POPC   NC343761  21.071   1.274  -1.134
 2653POPC   PO443762  20.946   1.368  -1.010
 2653POPC   GL143763  20.821   1.462  -0.886
 2653POPC   GL243764  20.745   1.443  -0.948
 2653POPC   C1A43765  20.695   1.556  -0.762
 2653POPC   D2A43766  20.570   1.651  -0.638
 2653POPC   C3A43767  20.444   1.745  -0.514
 2653POPC   C4A43768  20.319   1.839  -0.390
 2653POPC   C1B43769  20.660   1.384  -0.666
 2653POPC   C2B43770  20.535   1.478  -0.542
 2653POPC   C3B43771  20.410   1.573  -0.418
 2653POPC   C4B43772  20.284   1.667  -0.294
 2654POPC   NC343773   7.490  15.669  -7.058
 2654POPC   PO443774   7.515  15.605  -6.870
 2654POPC   GL143775   7.540  15.541  -6.682
 2654POPC   GL243776   7.598  15.621  -6.663
 2654POPC   C1A43777   7.565  15.477  -6.494
 2654POPC   D2A43778   7.590  15.414  -6.307
 2654POPC   C3A43779   7.615  15.350  -6.119
 2654POPC   C4A43780   7.640  15.286  -5.931
 2654POPC   C1B43781   7.403  15.581  -6.438
 2654POPC   C2B43782   7.428  15.517  -6.250
 2654POPC   C3B43783   7.453  15.453  -6.062
 2654POPC   C4B43784   7.478  15.389  -5.874
 2655POPC   NC343785  25.442  13.324   1.463
 2655POPC   PO443786  25.270  13.288   1.559
 2655POPC   GL143787  25.098  13.252   1.655
 2655POPC   GL243788  25.049  13.256   1.568
 2655POPC   C1A43789  24.926  13.216   1.751
 2655POPC   D2A43790  24.755  13.180   1.846
 2655POPC   C3A43791  24.583  13.144   1.942
 2655POPC   C4A43792  24.411  13.108   2.038
 2655POPC   C1B43793  24.954  13.019   1.727
 2655POPC   C2B43794  24.782  12.983   1.822
 2655POPC   C3B43795  24.611  12.947   1.918
 2655POPC   C4B43796  24.439  12.911   2.014
 2656POPC   NC343797  13.473  -6.406   3.165
 2656POPC   PO443798  13.430  -6.226   3.241
 2656POPC   GL143799  13.387  -6.046   3.317
 2656POPC   GL243800  13.453  -6.004   3.255
 2656POPC   C1A43801  13.343  -5.866   3.392
 2656POPC   D2A43802  13.300  -5.686   3.468
 2656POPC   C3A43803  13.256  -5.506   3.543
 2656POPC   C4A43804  13.213  -5.326   3.619
 2656POPC   C1B43805  13.200  -5.843   3.254
 2656POPC   C2B43806  13.157  -5.663   3.330
 2656POPC   C3B43807  13.113  -5.483   3.406
 2656POPC   C4B43808  13.070  -5.303   3.481
 2657POPC   NC343809  20.623  23.995   5.980
 2657POPC   PO443810  20.505  23.838   6.019
 2657POPC   GL143811  20.387  23.681   6.058
 2657POPC   GL243812  20.344  23.691   5.969
 2657POPC   C1A43813  20.270  23.524   6.098
 2657POPC   D2A43814  20.152  23.367   6.137
 2657POPC   C3A43815  20.035  23.210   6.177
 2657POPC   C4A43816  19.917  23.053   6.216
 2657POPC   C1B43817  20.406  23.402   6.018
 2657POPC   C2B43818  20.289  23.245   6.057
 2657POPC   C3B43819  20.171  23.088   6.097
 2657POPC   C4B43820  20.053  22.931   6.136
 2658POPC   NC343821  -0.766  14.550  -3.899
 2658POPC   PO443822  -0.649  14.502  -3.744
 2658POPC   GL143823  -0.532  14.454  -3.589
 2658POPC   GL243824  -0.611  14.460  -3.528
 2658POPC   C1A43825  -0.416  14.407  -3.433
 2658POPC   D2A43826  -0.299  14.359  -3.278
 2658POPC   C3A43827  -0.183  14.312  -3.122
 2658POPC   C4A43828  -0.066  14.264  -2.967
 2658POPC   C1B43829  -0.454  14.213  -3.464
 2658POPC   C2B43830  -0.337  14.165  -3.309
 2658POPC   C3B43831  -0.220  14.118  -3.153
 2658POPC   C4B43832  -0.104  14.070  -2.998
 2659POPC   NC343833   5.386  17.752  25.682
 2659POPC   PO443834   5.434  17.662  25.510
 2659POPC   GL143835   5.482  17.572  25.338
 2659POPC   GL243836   5.517  17.494  25.389
 2659POPC   C1A43837   5.529  17.482  25.166
 2659POPC   D2A43838   5.577  17.393  24.993
 2659POPC   C3A43839   5.624  17.303  24.821
 2659POPC   C4A43840   5.672  17.213  24.649
 2659POPC   C1B43841   5.348  17.398  25.160
 2659POPC   C2B43842   5.396  17.308  24.987
 2659POPC   C3B43843   5.443  17.218  24.815
 2659POPC   C4B43844   5.491  17.128  24.643
 2660POPC   NC343845  16.512   7.786  -6.644
 2660POPC   PO443846  16.435   7.813  -6.461
 2660POPC   GL143847  16.358   7.840  -6.278
 2660POPC   GL243848  16.270   7.804  -6.310
 2660POPC   C1A43849  16.281   7.867  -6.096
 2660POPC   D2A43850  16.204   7.894  -5.913
 2660POPC   C3A43851  16.127   7.921  -5.731
 2660POPC   C4A43852  16.050   7.948  -5.548
 2660POPC   C1B43853  16.338   7.682  -6.045
 2660POPC   C2B43854  16.261   7.709  -5.862
 2660POPC   C3B43855  16.184   7.736  -5.679
 2660POPC   C4B43856  16.107   7.763  -5.497
 2661POPC   NC343857  22.266  22.806   6.960
 2661POPC   PO443858  22.127  22.666   6.994
 2661POPC   GL143859  21.988  22.526   7.028
 2661POPC   GL243860  21.934  22.561   6.951
 2661POPC   C1A43861  21.849  22.386   7.062
 2661POPC   D2A43862  21.711  22.247   7.096
 2661POPC   C3A43863  21.572  22.107   7.130
 2661POPC   C4A43864  21.433  21.967   7.164
 2661POPC   C1B43865  21.945  22.261   6.939
 2661POPC   C2B43866  21.806  22.122   6.973
 2661POPC   C3B43867  21.667  21.982   7.007
 2661POPC   C4B43868  21.529  21.842   7.041
 2662POPC   NC343869  17.700  -5.181  15.810
 2662POPC   PO443870  17.615  -5.011  15.747
 2662POPC   GL143871  17.530  -4.841  15.684
 2662POPC   GL243872  17.570  -4.792  15.761
 2662POPC   C1A43873  17.445  -4.672  15.620
 2662POPC   D2A43874  17.360  -4.502  15.557
 2662POPC   C3A43875  17.275  -4.333  15.493
 2662POPC   C4A43876  17.190  -4.163  15.430
 2662POPC   C1B43877  17.608  -4.631  15.511
 2662POPC   C2B43878  17.523  -4.461  15.448
 2662POPC   C3B43879  17.438  -4.292  15.384
 2662POPC   C4B43880  17.353  -4.122  15.321
 2663POPC   NC343881  -1.562   4.664  -3.001
 2663POPC   PO443882  -1.439   4.727  -2.857
 2663POPC   GL143883  -1.316   4.790  -2.713
 2663POPC   GL243884  -1.367   4.737  -2.645
 2663POPC   C1A43885  -1.192   4.853  -2.568
 2663POPC   D2A43886  -1.069   4.915  -2.424
 2663POPC   C3A43887  -0.945   4.978  -2.279
 2663POPC   C4A43888  -0.822   5.041  -2.135
 2663POPC   C1B43889  -1.073   4.695  -2.601
 2663POPC   C2B43890  -0.950   4.758  -2.457
 2663POPC   C3B43891  -0.827   4.821  -2.312
 2663POPC   C4B43892  -0.703   4.883  -2.168
 2664POPC   NC343893  -2.498   1.189  19.713
 2664POPC   PO443894  -2.363   1.286  19.602
 2664POPC   GL143895  -2.228   1.383  19.491
 2664POPC   GL243896  -2.174   1.299  19.483
 2664POPC   C1A43897  -2.093   1.480  19.379
 2664POPC   D2A43898  -1.958   1.576  19.268
 2664POPC   C3A43899  -1.823   1.673  19.156
 2664POPC   C4A43900  -1.688   1.770  19.045
 2664POPC   C1B43901  -2.194   1.430  19.214
 2664POPC   C2B43902  -2.059   1.526  19.102
 2664POPC   C3B43903  -1.924   1.623  18.991
 2664POPC   C4B43904  -1.789   1.720  18.880
 2665POPC   NC343905   8.895  27.260   4.705
 2665POPC   PO443906   8.904  27.068   4.761
 2665POPC   GL143907   8.913  26.876   4.817
 2665POPC   GL243908   9.007  26.871   4.783
 2665POPC   C1A43909   8.922  26.684   4.873
 2665POPC   D2A43910   8.932  26.493   4.928
 2665POPC   C3A43911   8.941  26.301   4.984
 2665POPC   C4A43912   8.950  26.109   5.040
 2665POPC   C1B43913   8.990  26.740   5.052
 2665POPC   C2B43914   8.999  26.548   5.108
 2665POPC   C3B43915   9.008  26.356   5.164
 2665POPC   C4B43916   9.018  26.165   5.220
 2666POPC   NC343917  -7.558   9.382  14.635
 2666POPC   PO443918  -7.365   9.389  14.585
 2666POPC   GL143919  -7.172   9.396  14.535
 2666POPC   GL243920  -7.147   9.363  14.626
 2666POPC   C1A43921  -6.978   9.403  14.484
 2666POPC   D2A43922  -6.785   9.411  14.434
 2666POPC   C3A43923  -6.591   9.418  14.383
 2666POPC   C4A43924  -6.398   9.425  14.333
 2666POPC   C1B43925  -6.988   9.215  14.419
 2666POPC   C2B43926  -6.795   9.222  14.368
 2666POPC   C3B43927  -6.601   9.229  14.318
 2666POPC   C4B43928  -6.408   9.236  14.267
 2667POPC   NC343929   4.126  12.268  26.804
 2667POPC   PO443930   4.183  12.246  26.614
 2667POPC   GL143931   4.240  12.224  26.424
 2667POPC   GL243932   4.279  12.134  26.446
 2667POPC   C1A43933   4.298  12.202  26.234
 2667POPC   D2A43934   4.355  12.180  26.043
 2667POPC   C3A43935   4.413  12.158  25.853
 2667POPC   C4A43936   4.470  12.136  25.663
 2667POPC   C1B43937   4.122  12.116  26.191
 2667POPC   C2B43938   4.180  12.094  26.000
 2667POPC   C3B43939   4.237  12.072  25.810
 2667POPC   C4B43940   4.295  12.050  25.620
 2668POPC   NC343941   6.663  20.860  23.957
 2668POPC   PO443942   6.701  20.735  23.805
 2668POPC   GL143943   6.739  20.610  23.653
 2668POPC   GL243944   6.824  20.659  23.634
 2668POPC   C1A43945   6.777  20.485  23.501
 2668POPC   D2A43946   6.814  20.361  23.350
 2668POPC   C3A43947   6.852  20.236  23.198
 2668POPC   C4A43948   6.890  20.111  23.046
 2668POPC   C1B43949   6.875  20.364  23.626
 2668POPC   C2B43950   6.913  20.239  23.474
 2668POPC   C3B43951   6.951  20.114  23.322
 2668POPC   C4B43952   6.988  19.989  23.171
 2669POPC   NC343953  -7.733  13.822   8.516
 2669POPC   PO443954  -7.538  13.781   8.537
 2669POPC   GL143955  -7.343  13.740   8.558
 2669POPC   GL243956  -7.366  13.650   8.596
 2669POPC   C1A43957  -7.149  13.699   8.580
 2669POPC   D2A43958  -6.954  13.659   8.601
 2669POPC   C3A43959  -6.760  13.618   8.623
 2669POPC   C4A43960  -6.565  13.577   8.644
 2669POPC   C1B43961  -7.145  13.622   8.396
 2669POPC   C2B43962  -6.950  13.581   8.417
 2669POPC   C3B43963  -6.756  13.540   8.438
 2669POPC   C4B43964  -6.561  13.499   8.460
 2670POPC   NC343965  19.734  22.750  17.840
 2670POPC   PO443966  19.622  22.607  17.756
 2670POPC   GL143967  19.510  22.464  17.672
 2670POPC   GL243968  19.562  22.395  17.722
 2670POPC   C1A43969  19.398  22.321  17.588
 2670POPC   D2A43970  19.286  22.179  17.505
 2670POPC   C3A43971  19.174  22.036  17.421
 2670POPC   C4A43972  19.062  21.893  17.337
 2670POPC   C1B43973  19.269  22.333  17.741
 2670POPC   C2B43974  19.157  22.191  17.657
 2670POPC   C3B43975  19.045  22.048  17.573
 2670POPC   C4B43976  18.933  21.905  17.489
 2671POPC   NC343977   7.020  23.597  -1.497
 2671POPC   PO443978   7.052  23.445  -1.371
 2671POPC   GL143979   7.084  23.293  -1.245
 2671POPC   GL243980   7.180  23.292  -1.270
 2671POPC   C1A43981   7.115  23.141  -1.119
 2671POPC   D2A43982   7.147  22.990  -0.992
 2671POPC   C3A43983   7.178  22.838  -0.866
 2671POPC   C4A43984   7.210  22.686  -0.740
 2671POPC   C1B43985   7.156  23.272  -0.972
 2671POPC   C2B43986   7.187  23.120  -0.846
 2671POPC   C3B43987   7.219  22.968  -0.720
 2671POPC   C4B43988   7.250  22.816  -0.594
 2672POPC   NC343989  16.005  -6.711   7.017
 2672POPC   PO443990  15.935  -6.526   7.050
 2672POPC   GL143991  15.865  -6.341   7.083
 2672POPC   GL243992  15.959  -6.308   7.093
 2672POPC   C1A43993  15.796  -6.157   7.116
 2672POPC   D2A43994  15.726  -5.972   7.150
 2672POPC   C3A43995  15.657  -5.788   7.183
 2672POPC   C4A43996  15.587  -5.603   7.216
 2672POPC   C1B43997  15.802  -6.119   6.920
 2672POPC   C2B43998  15.732  -5.935   6.953
 2672POPC   C3B43999  15.663  -5.750   6.986
 2672POPC   C4B44000  15.593  -5.565   7.020
 2673POPC   NC344001  19.322  -4.748   5.562
 2673POPC   PO444002  19.221  -4.583   5.612
 2673POPC   GL144003  19.120  -4.418   5.662
 2673POPC   GL244004  19.154  -4.372   5.580
 2673POPC   C1A44005  19.019  -4.253   5.713
 2673POPC   D2A44006  18.918  -4.087   5.763
 2673POPC   C3A44007  18.817  -3.922   5.814
 2673POPC   C4A44008  18.716  -3.757   5.864
 2673POPC   C1B44009  18.860  -4.319   5.611
 2673POPC   C2B44010  18.759  -4.153   5.661
 2673POPC   C3B44011  18.658  -3.988   5.712
 2673POPC   C4B44012  18.557  -3.823   5.762
 2674POPC   NC344013  25.797   1.526   9.542
 2674POPC   PO444014  25.622   1.622   9.551
 2674POPC   GL144015  25.447   1.718   9.560
 2674POPC   GL244016  25.486   1.795   9.510
 2674POPC   C1A44017  25.272   1.814   9.569
 2674POPC   D2A44018  25.096   1.911   9.579
 2674POPC   C3A44019  24.921   2.007   9.588
 2674POPC   C4A44020  24.746   2.103   9.597
 2674POPC   C1B44021  25.217   1.731   9.396
 2674POPC   C2B44022  25.042   1.827   9.405
 2674POPC   C3B44023  24.866   1.923   9.414
 2674POPC   C4B44024  24.691   2.020   9.424
 2675POPC   NC344025   6.558  -7.450  13.297
 2675POPC   PO444026   6.594  -7.256  13.263
 2675POPC   GL144027   6.630  -7.062  13.229
 2675POPC   GL244028   6.684  -7.058  13.313
 2675POPC   C1A44029   6.666  -6.868  13.195
 2675POPC   D2A44030   6.703  -6.675  13.162
 2675POPC   C3A44031   6.739  -6.481  13.128
 2675POPC   C4A44032   6.775  -6.287  13.094
 2675POPC   C1B44033   6.831  -6.917  13.093
 2675POPC   C2B44034   6.867  -6.723  13.059
 2675POPC   C3B44035   6.903  -6.530  13.025
 2675POPC   C4B44036   6.939  -6.336  12.991
 2676POPC   NC344037   3.303  -4.342   1.038
 2676POPC   PO444038   3.376  -4.185   1.138
 2676POPC   GL144039   3.449  -4.028   1.238
 2676POPC   GL244040   3.516  -4.013   1.166
 2676POPC   C1A44041   3.522  -3.871   1.339
 2676POPC   D2A44042   3.596  -3.715   1.439
 2676POPC   C3A44043   3.669  -3.558   1.540
 2676POPC   C4A44044   3.742  -3.401   1.640
 2676POPC   C1B44045   3.393  -3.751   1.245
 2676POPC   C2B44046   3.467  -3.594   1.345
 2676POPC   C3B44047   3.540  -3.437   1.446
 2676POPC   C4B44048   3.613  -3.281   1.546
 2677POPC   NC344049  16.327  13.456  26.490
 2677POPC   PO444050  16.256  13.417  26.307
 2677POPC   GL144051  16.185  13.378  26.124
 2677POPC   GL244052  16.261  13.430  26.084
 2677POPC   C1A44053  16.114  13.339  25.941
 2677POPC   D2A44054  16.044  13.301  25.758
 2677POPC   C3A44055  15.973  13.262  25.575
 2677POPC   C4A44056  15.902  13.223  25.392
 2677POPC   C1B44057  16.225  13.173  25.934
 2677POPC   C2B44058  16.154  13.134  25.751
 2677POPC   C3B44059  16.083  13.095  25.568
 2677POPC   C4B44060  16.012  13.056  25.385
 2678POPC   NC344061  12.007  26.375   2.753
 2678POPC   PO444062  11.976  26.193   2.831
 2678POPC   GL144063  11.945  26.011   2.909
 2678POPC   GL244064  12.044  25.999   2.919
 2678POPC   C1A44065  11.915  25.830   2.987
 2678POPC   D2A44066  11.884  25.648   3.064
 2678POPC   C3A44067  11.854  25.467   3.142
 2678POPC   C4A44068  11.823  25.285   3.220
 2678POPC   C1B44069  11.905  25.910   3.170
 2678POPC   C2B44070  11.874  25.728   3.247
 2678POPC   C3B44071  11.844  25.547   3.325
 2678POPC   C4B44072  11.813  25.365   3.403
 2679POPC   NC344073   9.365  11.121  -8.084
 2679POPC   PO444074   9.372  11.109  -7.884
 2679POPC   GL144075   9.379  11.097  -7.684
 2679POPC   GL244076   9.479  11.109  -7.687
 2679POPC   C1A44077   9.387  11.085  -7.485
 2679POPC   D2A44078   9.394  11.073  -7.285
 2679POPC   C3A44079   9.402  11.061  -7.086
 2679POPC   C4A44080   9.409  11.049  -6.886
 2679POPC   C1B44081   9.363  11.283  -7.472
 2679POPC   C2B44082   9.370  11.271  -7.272
 2679POPC   C3B44083   9.377  11.259  -7.073
 2679POPC   C4B44084   9.385  11.247  -6.873
 2680POPC   NC344085  23.065  16.663  20.289
 2680POPC   PO444086  22.924  16.589  20.167
 2680POPC   GL144087  22.783  16.515  20.045
 2680POPC   GL244088  22.853  16.462  19.997
 2680POPC   C1A44089  22.643  16.442  19.924
 2680POPC   D2A44090  22.502  16.368  19.802
 2680POPC   C3A44091  22.362  16.295  19.681
 2680POPC   C4A44092  22.221  16.221  19.559
 2680POPC   C1B44093  22.613  16.290  20.050
 2680POPC   C2B44094  22.473  16.216  19.929
 2680POPC   C3B44095  22.332  16.142  19.807
 2680POPC   C4B44096  22.192  16.069  19.685
 2681POPC   NC344097  20.326  19.763  -1.050
 2681POPC   PO444098  20.210  19.651  -0.932
 2681POPC   GL144099  20.094  19.539  -0.814
 2681POPC   GL244100  20.173  19.481  -0.791
 2681POPC   C1A44101  19.978  19.427  -0.695
 2681POPC   D2A44102  19.862  19.315  -0.577
 2681POPC   C3A44103  19.746  19.203  -0.458
 2681POPC   C4A44104  19.630  19.091  -0.340
 2681POPC   C1B44105  20.021  19.546  -0.540
 2681POPC   C2B44106  19.905  19.434  -0.422
 2681POPC   C3B44107  19.789  19.322  -0.304
 2681POPC   C4B44108  19.673  19.210  -0.185
 2682POPC   NC344109  14.394  -0.903  -3.726
 2682POPC   PO444110  14.346  -0.781  -3.575
 2682POPC   GL144111  14.298  -0.659  -3.424
 2682POPC   GL244112  14.374  -0.599  -3.448
 2682POPC   C1A44113  14.250  -0.538  -3.272
 2682POPC   D2A44114  14.202  -0.416  -3.121
 2682POPC   C3A44115  14.154  -0.295  -2.969
 2682POPC   C4A44116  14.106  -0.173  -2.818
 2682POPC   C1B44117  14.130  -0.434  -3.394
 2682POPC   C2B44118  14.082  -0.312  -3.242
 2682POPC   C3B44119  14.034  -0.190  -3.091
 2682POPC   C4B44120  13.986  -0.069  -2.940
 2683POPC   NC344121  13.454   1.629  -5.665
 2683POPC   PO444122  13.417   1.723  -5.493
 2683POPC   GL144123  13.380   1.817  -5.321
 2683POPC   GL244124  13.478   1.814  -5.298
 2683POPC   C1A44125  13.343   1.912  -5.148
 2683POPC   D2A44126  13.307   2.006  -4.976
 2683POPC   C3A44127  13.270   2.101  -4.803
 2683POPC   C4A44128  13.233   2.195  -4.631
 2683POPC   C1B44129  13.370   2.088  -5.239
 2683POPC   C2B44130  13.333   2.182  -5.066
 2683POPC   C3B44131  13.296   2.277  -4.894
 2683POPC   C4B44132  13.260   2.371  -4.722
 2684POPC   NC344133  -5.225   9.749   0.021
 2684POPC   PO444134  -5.059   9.754   0.133
 2684POPC   GL144135  -4.893   9.759   0.245
 2684POPC   GL244136  -4.898   9.659   0.255
 2684POPC   C1A44137  -4.728   9.763   0.357
 2684POPC   D2A44138  -4.562   9.768   0.469
 2684POPC   C3A44139  -4.397   9.772   0.581
 2684POPC   C4A44140  -4.231   9.777   0.693
 2684POPC   C1B44141  -4.616   9.741   0.193
 2684POPC   C2B44142  -4.450   9.746   0.305
 2684POPC   C3B44143  -4.285   9.750   0.417
 2684POPC   C4B44144  -4.119   9.755   0.529
 2685POPC   NC344145  25.654  18.182   7.250
 2685POPC   PO444146  25.479  18.091   7.280
 2685POPC   GL144147  25.304  18.000   7.310
 2685POPC   GL244148  25.308  17.960   7.219
 2685POPC   C1A44149  25.128  17.909   7.341
 2685POPC   D2A44150  24.953  17.817   7.371
 2685POPC   C3A44151  24.777  17.726   7.402
 2685POPC   C4A44152  24.602  17.635   7.432
 2685POPC   C1B44153  25.224  17.749   7.414
 2685POPC   C2B44154  25.049  17.658   7.444
 2685POPC   C3B44155  24.873  17.567   7.475
 2685POPC   C4B44156  24.698  17.475   7.505
 2686POPC   NC344157  23.421  19.283   2.448
 2686POPC   PO444158  23.272  19.177   2.530
 2686POPC   GL144159  23.123  19.071   2.612
 2686POPC   GL244160  23.173  18.987   2.592
 2686POPC   C1A44161  22.974  18.966   2.694
 2686POPC   D2A44162  22.826  18.860   2.775
 2686POPC   C3A44163  22.677  18.755   2.857
 2686POPC   C4A44164  22.528  18.649   2.939
 2686POPC   C1B44165  23.064  18.977   2.872
 2686POPC   C2B44166  22.915  18.872   2.954
 2686POPC   C3B44167  22.767  18.766   3.036
 2686POPC   C4B44168  22.618  18.660   3.117
 2687POPC   NC344169  16.358  14.568  -6.309
 2687POPC   PO444170  16.290  14.517  -6.128
 2687POPC   GL144171  16.222  14.466  -5.947
 2687POPC   GL244172  16.197  14.375  -5.982
 2687POPC   C1A44173  16.153  14.415  -5.766
 2687POPC   D2A44174  16.085  14.363  -5.586
 2687POPC   C3A44175  16.016  14.312  -5.405
 2687POPC   C4A44176  15.948  14.261  -5.224
 2687POPC   C1B44177  16.335  14.346  -5.717
 2687POPC   C2B44178  16.266  14.295  -5.536
 2687POPC   C3B44179  16.198  14.244  -5.356
 2687POPC   C4B44180  16.129  14.193  -5.175
 2688POPC   NC344181  -1.035  24.191   8.333
 2688POPC   PO444182  -0.918  24.030   8.355
 2688POPC   GL144183  -0.801  23.869   8.377
 2688POPC   GL244184  -0.736  23.908   8.311
 2688POPC   C1A44185  -0.684  23.709   8.399
 2688POPC   D2A44186  -0.566  23.548   8.420
 2688POPC   C3A44187  -0.449  23.388   8.442
 2688POPC   C4A44188  -0.332  23.227   8.464
 2688POPC   C1B44189  -0.587  23.800   8.548
 2688POPC   C2B44190  -0.470  23.639   8.570
 2688POPC   C3B44191  -0.353  23.479   8.592
 2688POPC   C4B44192  -0.235  23.318   8.614
 2689POPC   NC344193  23.445   0.730  17.531
 2689POPC   PO444194  23.294   0.833  17.450
 2689POPC   GL144195  23.143   0.936  17.369
 2689POPC   GL244196  23.206   1.009  17.345
 2689POPC   C1A44197  22.992   1.039  17.288
 2689POPC   D2A44198  22.840   1.141  17.208
 2689POPC   C3A44199  22.689   1.244  17.127
 2689POPC   C4A44200  22.538   1.347  17.046
 2689POPC   C1B44201  23.026   0.951  17.112
 2689POPC   C2B44202  22.875   1.054  17.031
 2689POPC   C3B44203  22.724   1.157  16.950
 2689POPC   C4B44204  22.573   1.259  16.870
 2690POPC   NC344205   2.257  17.812  -4.454
 2690POPC   PO444206   2.341  17.728  -4.293
 2690POPC   GL144207   2.425  17.644  -4.132
 2690POPC   GL244208   2.437  17.734  -4.091
 2690POPC   C1A44209   2.510  17.560  -3.972
 2690POPC   D2A44210   2.594  17.475  -3.811
 2690POPC   C3A44211   2.679  17.391  -3.651
 2690POPC   C4A44212   2.763  17.307  -3.490
 2690POPC   C1B44213   2.330  17.544  -3.885
 2690POPC   C2B44214   2.414  17.460  -3.725
 2690POPC   C3B44215   2.499  17.376  -3.564
 2690POPC   C4B44216   2.583  17.292  -3.404
 2691POPC   NC344217  24.512  19.285   5.188
 2691POPC   PO444218  24.349  19.180   5.238
 2691POPC   GL144219  24.186  19.075   5.288
 2691POPC   GL244220  24.178  19.043   5.193
 2691POPC   C1A44221  24.023  18.971   5.337
 2691POPC   D2A44222  23.860  18.866   5.387
 2691POPC   C3A44223  23.697  18.762   5.436
 2691POPC   C4A44224  23.534  18.657   5.486
 2691POPC   C1B44225  24.138  18.813   5.382
 2691POPC   C2B44226  23.975  18.709   5.432
 2691POPC   C3B44227  23.812  18.604   5.481
 2691POPC   C4B44228  23.649  18.499   5.531
 2692POPC   NC344229  -0.543   4.025  -3.535
 2692POPC   PO444230  -0.428   4.095  -3.387
 2692POPC   GL144231  -0.313   4.165  -3.239
 2692POPC   GL244232  -0.394   4.175  -3.181
 2692POPC   C1A44233  -0.198   4.235  -3.091
 2692POPC   D2A44234  -0.084   4.305  -2.943
 2692POPC   C3A44235   0.031   4.375  -2.795
 2692POPC   C4A44236   0.146   4.445  -2.647
 2692POPC   C1B44237  -0.172   4.049  -3.023
 2692POPC   C2B44238  -0.057   4.119  -2.875
 2692POPC   C3B44239   0.057   4.189  -2.727
 2692POPC   C4B44240   0.172   4.259  -2.579
 2693POPC   NC344241  10.542  -6.005  18.353
 2693POPC   PO444242  10.537  -5.829  18.258
 2693POPC   GL144243  10.532  -5.653  18.163
 2693POPC   GL244244  10.603  -5.685  18.100
 2693POPC   C1A44245  10.526  -5.477  18.068
 2693POPC   D2A44246  10.521  -5.302  17.973
 2693POPC   C3A44247  10.515  -5.126  17.878
 2693POPC   C4A44248  10.510  -4.950  17.783
 2693POPC   C1B44249  10.385  -5.548  17.945
 2693POPC   C2B44250  10.380  -5.373  17.850
 2693POPC   C3B44251  10.375  -5.197  17.755
 2693POPC   C4B44252  10.369  -5.021  17.660
 2694POPC   NC344253   3.620  -6.428  14.160
 2694POPC   PO444254   3.689  -6.246  14.114
 2694POPC   GL144255   3.758  -6.064  14.068
 2694POPC   GL244256   3.852  -6.098  14.075
 2694POPC   C1A44257   3.827  -5.882  14.022
 2694POPC   D2A44258   3.897  -5.700  13.977
 2694POPC   C3A44259   3.966  -5.518  13.931
 2694POPC   C4A44260   4.035  -5.336  13.885
 2694POPC   C1B44261   3.824  -5.929  13.828
 2694POPC   C2B44262   3.893  -5.747  13.782
 2694POPC   C3B44263   3.962  -5.565  13.737
 2694POPC   C4B44264   4.031  -5.383  13.691
 2695POPC   NC344265   7.266  -6.532  16.773
 2695POPC   PO444266   7.294  -6.349  16.697
 2695POPC   GL144267   7.322  -6.166  16.621
 2695POPC   GL244268   7.348  -6.133  16.711
 2695POPC   C1A44269   7.350  -5.984  16.544
 2695POPC   D2A44270   7.379  -5.801  16.468
 2695POPC   C3A44271   7.407  -5.619  16.391
 2695POPC   C4A44272   7.435  -5.436  16.315
 2695POPC   C1B44273   7.542  -6.029  16.507
 2695POPC   C2B44274   7.570  -5.846  16.430
 2695POPC   C3B44275   7.598  -5.664  16.354
 2695POPC   C4B44276   7.626  -5.481  16.277
 2696POPC   NC344277  -6.648  17.174   8.320
 2696POPC   PO444278  -6.465  17.096   8.339
 2696POPC   GL144279  -6.282  17.018   8.358
 2696POPC   GL244280  -6.242  17.109   8.347
 2696POPC   C1A44281  -6.099  16.940   8.377
 2696POPC   D2A44282  -5.916  16.861   8.397
 2696POPC   C3A44283  -5.733  16.783   8.416
 2696POPC   C4A44284  -5.550  16.705   8.435
 2696POPC   C1B44285  -6.108  16.967   8.575
 2696POPC   C2B44286  -5.925  16.889   8.594
 2696POPC   C3B44287  -5.742  16.811   8.614
 2696POPC   C4B44288  -5.559  16.733   8.633
 2697POPC   NC344289  23.340   6.846  21.471
 2697POPC   PO444290  23.189   6.883  21.345
 2697POPC   GL144291  23.038   6.920  21.219
 2697POPC   GL244292  23.048   6.828  21.181
 2697POPC   C1A44293  22.887   6.957  21.093
 2697POPC   D2A44294  22.736   6.994  20.968
 2697POPC   C3A44295  22.585   7.031  20.842
 2697POPC   C4A44296  22.434   7.068  20.716
 2697POPC   C1B44297  22.757   6.887  21.228
 2697POPC   C2B44298  22.606   6.924  21.103
 2697POPC   C3B44299  22.455   6.961  20.977
 2697POPC   C4B44300  22.304   6.998  20.851
 2698POPC   NC344301   5.539  19.443  24.714
 2698POPC   PO444302   5.586  19.333  24.553
 2698POPC   GL144303   5.633  19.223  24.392
 2698POPC   GL244304   5.716  19.277  24.380
 2698POPC   C1A44305   5.680  19.114  24.232
 2698POPC   D2A44306   5.727  19.004  24.071
 2698POPC   C3A44307   5.774  18.895  23.911
 2698POPC   C4A44308   5.821  18.785  23.750
 2698POPC   C1B44309   5.781  18.986  24.348
 2698POPC   C2B44310   5.828  18.876  24.188
 2698POPC   C3B44311   5.875  18.767  24.027
 2698POPC   C4B44312   5.922  18.657  23.867
 2699POPC   NC344313  -4.987   9.855  20.163
 2699POPC   PO444314  -4.824   9.854  20.047
 2699POPC   GL144315  -4.661   9.853  19.931
 2699POPC   GL244316  -4.609   9.810  20.005
 2699POPC   C1A44317  -4.498   9.851  19.815
 2699POPC   D2A44318  -4.334   9.850  19.700
 2699POPC   C3A44319  -4.171   9.848  19.584
 2699POPC   C4A44320  -4.008   9.847  19.468
 2699POPC   C1B44321  -4.548   9.670  19.747
 2699POPC   C2B44322  -4.385   9.669  19.631
 2699POPC   C3B44323  -4.222   9.667  19.515
 2699POPC   C4B44324  -4.058   9.666  19.399
 2700POPC   NC344325  25.921  14.171   2.776
 2700POPC   PO444326  25.745  14.126   2.859
 2700POPC   GL144327  25.569  14.081   2.942
 2700POPC   GL244328  25.523  14.145   2.880
 2700POPC   C1A44329  25.392  14.036   3.024
 2700POPC   D2A44330  25.216  13.990   3.107
 2700POPC   C3A44331  25.039  13.945   3.189
 2700POPC   C4A44332  24.863  13.900   3.272
 2700POPC   C1B44333  25.367  13.890   2.890
 2700POPC   C2B44334  25.190  13.845   2.972
 2700POPC   C3B44335  25.014  13.800   3.055
 2700POPC   C4B44336  24.837  13.754   3.137
 2701POPC   NC344337  10.340  27.824   7.249
 2701POPC   PO444338  10.334  27.626   7.279
 2701POPC   GL144339  10.328  27.428   7.309
 2701POPC   GL244340  10.420  27.432   7.349
 2701POPC   C1A44341  10.323  27.231   7.339
 2701POPC   D2A44342  10.317  27.033   7.368
 2701POPC   C3A44343  10.312  26.836   7.398
 2701POPC   C4A44344  10.306  26.638   7.428
 2701POPC   C1B44345  10.243  27.260   7.520
 2701POPC   C2B44346  10.238  27.063   7.550
 2701POPC   C3B44347  10.232  26.865   7.579
 2701POPC   C4B44348  10.227  26.668   7.609
 2702POPC   NC344349  24.376   3.911  18.762
 2702POPC   PO444350  24.216   3.972  18.659
 2702POPC   GL144351  24.056   4.033  18.556
 2702POPC   GL244352  24.073   4.127  18.585
 2702POPC   C1A44353  23.896   4.093  18.452
 2702POPC   D2A44354  23.736   4.154  18.349
 2702POPC   C3A44355  23.576   4.214  18.245
 2702POPC   C4A44356  23.416   4.275  18.142
 2702POPC   C1B44357  24.011   4.122  18.291
 2702POPC   C2B44358  23.851   4.183  18.188
 2702POPC   C3B44359  23.691   4.243  18.084
 2702POPC   C4B44360  23.531   4.304  17.981
 2703POPC   NC344361  26.233   4.495   4.582
 2703POPC   PO444362  26.050   4.554   4.638
 2703POPC   GL144363  25.867   4.613   4.694
 2703POPC   GL244364  25.859   4.666   4.610
 2703POPC   C1A44365  25.685   4.672   4.750
 2703POPC   D2A44366  25.502   4.732   4.806
 2703POPC   C3A44367  25.320   4.791   4.862
 2703POPC   C4A44368  25.137   4.850   4.918
 2703POPC   C1B44369  25.605   4.513   4.659
 2703POPC   C2B44370  25.423   4.572   4.715
 2703POPC   C3B44371  25.240   4.632   4.771
 2703POPC   C4B44372  25.057   4.691   4.827
 2704POPC   NC344373  21.123  -3.625   6.160
 2704POPC   PO444374  20.998  -3.474   6.202
 2704POPC   GL144375  20.873  -3.323   6.244
 2704POPC   GL244376  20.895  -3.281   6.156
 2704POPC   C1A44377  20.748  -3.173   6.286
 2704POPC   D2A44378  20.624  -3.022   6.328
 2704POPC   C3A44379  20.499  -2.872   6.370
 2704POPC   C4A44380  20.374  -2.721   6.412
 2704POPC   C1B44381  20.598  -3.273   6.200
 2704POPC   C2B44382  20.474  -3.123   6.242
 2704POPC   C3B44383  20.349  -2.972   6.284
 2704POPC   C4B44384  20.224  -2.821   6.326
 2705POPC   NC344385  18.498  24.548  16.095
 2705POPC   PO444386  18.399  24.390  16.023
 2705POPC   GL144387  18.300  24.232  15.951
 2705POPC   GL244388  18.345  24.244  15.862
 2705POPC   C1A44389  18.201  24.074  15.879
 2705POPC   D2A44390  18.102  23.915  15.807
 2705POPC   C3A44391  18.003  23.757  15.735
 2705POPC   C4A44392  17.904  23.599  15.663
 2705POPC   C1B44393  18.350  23.954  15.938
 2705POPC   C2B44394  18.251  23.795  15.866
 2705POPC   C3B44395  18.152  23.637  15.794
 2705POPC   C4B44396  18.053  23.479  15.722
 2706POPC   NC344397  21.986  21.118   2.607
 2706POPC   PO444398  21.855  20.993   2.692
 2706POPC   GL144399  21.724  20.868   2.777
 2706POPC   GL244400  21.782  20.790   2.753
 2706POPC   C1A44401  21.593  20.742   2.861
 2706POPC   D2A44402  21.462  20.617   2.946
 2706POPC   C3A44403  21.331  20.491   3.030
 2706POPC   C4A44404  21.200  20.366   3.115
 2706POPC   C1B44405  21.689  20.760   3.036
 2706POPC   C2B44406  21.558  20.635   3.121
 2706POPC   C3B44407  21.427  20.509   3.205
 2706POPC   C4B44408  21.296  20.384   3.290
 2707POPC   NC344409  10.052  23.076  22.362
 2707POPC   PO444410  10.050  22.931  22.225
 2707POPC   GL144411  10.048  22.786  22.088
 2707POPC   GL244412  10.141  22.760  22.113
 2707POPC   C1A44413  10.046  22.640  21.951
 2707POPC   D2A44414  10.043  22.495  21.813
 2707POPC   C3A44415  10.041  22.349  21.676
 2707POPC   C4A44416  10.039  22.204  21.539
 2707POPC   C1B44417   9.974  22.513  22.087
 2707POPC   C2B44418   9.971  22.367  21.950
 2707POPC   C3B44419   9.969  22.222  21.812
 2707POPC   C4B44420   9.967  22.077  21.675
 2708POPC   NC344421   8.562  19.972  24.948
 2708POPC   PO444422   8.578  19.859  24.784
 2708POPC   GL144423   8.594  19.746  24.620
 2708POPC   GL244424   8.640  19.675  24.673
 2708POPC   C1A44425   8.610  19.632  24.456
 2708POPC   D2A44426   8.626  19.519  24.292
 2708POPC   C3A44427   8.642  19.405  24.128
 2708POPC   C4A44428   8.658  19.292  23.964
 2708POPC   C1B44429   8.433  19.548  24.497
 2708POPC   C2B44430   8.449  19.435  24.333
 2708POPC   C3B44431   8.465  19.321  24.169
 2708POPC   C4B44432   8.481  19.208  24.005
 2709POPC   NC344433  20.230  20.190  20.645
 2709POPC   PO444434  20.113  20.078  20.527
 2709POPC   GL144435  19.996  19.966  20.409
 2709POPC   GL244436  20.077  19.932  20.362
 2709POPC   C1A44437  19.880  19.854  20.291
 2709POPC   D2A44438  19.763  19.742  20.174
 2709POPC   C3A44439  19.647  19.630  20.056
 2709POPC   C4A44440  19.530  19.518  19.938
 2709POPC   C1B44441  19.893  19.703  20.422
 2709POPC   C2B44442  19.776  19.591  20.304
 2709POPC   C3B44443  19.659  19.479  20.186
 2709POPC   C4B44444  19.543  19.367  20.069
 2710POPC   NC344445   1.907   4.319  25.110
 2710POPC   PO444446   2.000   4.381  24.944
 2710POPC   GL144447   2.093   4.443  24.778
 2710POPC   GL244448   2.133   4.352  24.767
 2710POPC   C1A44449   2.186   4.505  24.613
 2710POPC   D2A44450   2.280   4.568  24.447
 2710POPC   C3A44451   2.373   4.630  24.282
 2710POPC   C4A44452   2.466   4.692  24.116
 2710POPC   C1B44453   2.028   4.451  24.503
 2710POPC   C2B44454   2.122   4.513  24.338
 2710POPC   C3B44455   2.215   4.575  24.172
 2710POPC   C4B44456   2.308   4.637  24.006
 2711POPC   NC344457  21.601  -1.568   2.492
 2711POPC   PO444458  21.471  -1.441   2.575
 2711POPC   GL144459  21.341  -1.314   2.658
 2711POPC   GL244460  21.406  -1.239   2.647
 2711POPC   C1A44461  21.211  -1.187   2.742
 2711POPC   D2A44462  21.080  -1.060   2.825
 2711POPC   C3A44463  20.950  -0.933   2.909
 2711POPC   C4A44464  20.820  -0.806   2.992
 2711POPC   C1B44465  21.134  -1.146   2.561
 2711POPC   C2B44466  21.004  -1.019   2.645
 2711POPC   C3B44467  20.874  -0.892   2.728
 2711POPC   C4B44468  20.744  -0.765   2.812
 2712POPC   NC344469  25.359  11.256  19.152
 2712POPC   PO444470  25.186  11.244  19.052
 2712POPC   GL144471  25.013  11.232  18.952
 2712POPC   GL244472  25.039  11.141  18.918
 2712POPC   C1A44473  24.841  11.220  18.851
 2712POPC   D2A44474  24.668  11.207  18.751
 2712POPC   C3A44475  24.496  11.195  18.650
 2712POPC   C4A44476  24.323  11.183  18.550
 2712POPC   C1B44477  24.754  11.137  19.011
 2712POPC   C2B44478  24.581  11.124  18.911
 2712POPC   C3B44479  24.409  11.112  18.810
 2712POPC   C4B44480  24.236  11.100  18.710
 2713POPC   NC344481  24.000  21.161  11.054
 2713POPC   PO444482  23.842  21.039  11.036
 2713POPC   GL144483  23.684  20.917  11.018
 2713POPC   GL244484  23.644  20.980  10.951
 2713POPC   C1A44485  23.526  20.795  11.000
 2713POPC   D2A44486  23.369  20.674  10.983
 2713POPC   C3A44487  23.211  20.552  10.965
 2713POPC   C4A44488  23.053  20.430  10.947
 2713POPC   C1B44489  23.619  20.697  10.853
 2713POPC   C2B44490  23.461  20.575  10.835
 2713POPC   C3B44491  23.303  20.454  10.817
 2713POPC   C4B44492  23.145  20.332  10.799
 2714POPC   NC344493  24.908  19.431   7.112
 2714POPC   PO444494  24.741  19.326   7.145
 2714POPC   GL144495  24.574  19.221   7.178
 2714POPC   GL244496  24.614  19.142   7.132
 2714POPC   C1A44497  24.407  19.116   7.212
 2714POPC   D2A44498  24.240  19.011   7.245
 2714POPC   C3A44499  24.073  18.906   7.279
 2714POPC   C4A44500  23.906  18.801   7.312
 2714POPC   C1B44501  24.482  19.052   7.386
 2714POPC   C2B44502  24.315  18.947   7.419
 2714POPC   C3B44503  24.148  18.842   7.453
 2714POPC   C4B44504  23.981  18.737   7.486
 2715POPC   NC344505  20.456  16.096  23.066
 2715POPC   PO444506  20.338  16.031  22.918
 2715POPC   GL144507  20.220  15.966  22.770
 2715POPC   GL244508  20.300  15.947  22.714
 2715POPC   C1A44509  20.102  15.901  22.623
 2715POPC   D2A44510  19.983  15.836  22.475
 2715POPC   C3A44511  19.865  15.771  22.328
 2715POPC   C4A44512  19.747  15.706  22.180
 2715POPC   C1B44513  20.110  15.716  22.698
 2715POPC   C2B44514  19.991  15.651  22.550
 2715POPC   C3B44515  19.873  15.586  22.403
 2715POPC   C4B44516  19.755  15.521  22.255
 2716POPC   NC344517  26.816   3.901   8.566
 2716POPC   PO444518  26.629   3.969   8.581
 2716POPC   GL144519  26.442   4.037   8.596
 2716POPC   GL244520  26.447   4.073   8.503
 2716POPC   C1A44521  26.254   4.105   8.611
 2716POPC   D2A44522  26.067   4.173   8.627
 2716POPC   C3A44523  25.879   4.241   8.642
 2716POPC   C4A44524  25.692   4.309   8.657
 2716POPC   C1B44525  26.185   3.931   8.540
 2716POPC   C2B44526  25.998   3.999   8.555
 2716POPC   C3B44527  25.811   4.067   8.570
 2716POPC   C4B44528  25.623   4.135   8.585
 2717POPC   NC344529  25.733   1.570  11.834
 2717POPC   PO444530  25.556   1.661  11.815
 2717POPC   GL144531  25.379   1.752  11.796
 2717POPC   GL244532  25.425   1.836  11.769
 2717POPC   C1A44533  25.202   1.843  11.777
 2717POPC   D2A44534  25.024   1.934  11.757
 2717POPC   C3A44535  24.847   2.025  11.738
 2717POPC   C4A44536  24.670   2.116  11.719
 2717POPC   C1B44537  25.193   1.786  11.585
 2717POPC   C2B44538  25.016   1.877  11.566
 2717POPC   C3B44539  24.839   1.968  11.547
 2717POPC   C4B44540  24.661   2.059  11.528
 2718POPC   NC344541  10.949   9.505  27.971
 2718POPC   PO444542  10.936   9.511  27.771
 2718POPC   GL144543  10.923   9.517  27.571
 2718POPC   GL244544  10.999   9.451  27.565
 2718POPC   C1A44545  10.911   9.523  27.372
 2718POPC   D2A44546  10.898   9.528  27.172
 2718POPC   C3A44547  10.886   9.534  26.973
 2718POPC   C4A44548  10.873   9.540  26.773
 2718POPC   C1B44549  10.780   9.372  27.376
 2718POPC   C2B44550  10.767   9.377  27.176
 2718POPC   C3B44551  10.755   9.383  26.976
 2718POPC   C4B44552  10.742   9.389  26.777
 2719POPC   NC344553   8.837  18.140  -6.158
 2719POPC   PO444554   8.846  18.052  -5.979
 2719POPC   GL144555   8.855  17.964  -5.800
 2719POPC   GL244556   8.900  17.885  -5.841
 2719POPC   C1A44557   8.865  17.876  -5.621
 2719POPC   D2A44558   8.874  17.787  -5.441
 2719POPC   C3A44559   8.884  17.699  -5.262
 2719POPC   C4A44560   8.893  17.611  -5.083
 2719POPC   C1B44561   9.043  17.960  -5.588
 2719POPC   C2B44562   9.053  17.872  -5.409
 2719POPC   C3B44563   9.062  17.784  -5.230
 2719POPC   C4B44564   9.071  17.695  -5.051
 2720POPC   NC344565  16.914   8.025  -6.505
 2720POPC   PO444566  16.834   8.050  -6.323
 2720POPC   GL144567  16.754   8.075  -6.141
 2720POPC   GL244568  16.663   8.065  -6.180
 2720POPC   C1A44569  16.674   8.100  -5.960
 2720POPC   D2A44570  16.594   8.125  -5.778
 2720POPC   C3A44571  16.514   8.150  -5.597
 2720POPC   C4A44572  16.434   8.175  -5.415
 2720POPC   C1B44573  16.683   7.903  -5.929
 2720POPC   C2B44574  16.603   7.928  -5.747
 2720POPC   C3B44575  16.523   7.953  -5.565
 2720POPC   C4B44576  16.443   7.978  -5.384
 2721POPC   NC344577  23.438  -0.624  15.274
 2721POPC   PO444578  23.288  -0.504  15.218
 2721POPC   GL144579  23.138  -0.384  15.162
 2721POPC   GL244580  23.125  -0.439  15.079
 2721POPC   C1A44581  22.988  -0.264  15.106
 2721POPC   D2A44582  22.839  -0.144  15.050
 2721POPC   C3A44583  22.689  -0.024  14.994
 2721POPC   C4A44584  22.539   0.096  14.938
 2721POPC   C1B44585  22.859  -0.381  15.203
 2721POPC   C2B44586  22.709  -0.261  15.147
 2721POPC   C3B44587  22.559  -0.141  15.091
 2721POPC   C4B44588  22.409  -0.021  15.035
 2722POPC   NC344589  -6.503  17.477   8.204
 2722POPC   PO444590  -6.321  17.396   8.225
 2722POPC   GL144591  -6.139  17.315   8.246
 2722POPC   GL244592  -6.098  17.406   8.237
 2722POPC   C1A44593  -5.957  17.234   8.267
 2722POPC   D2A44594  -5.776  17.154   8.287
 2722POPC   C3A44595  -5.594  17.073   8.308
 2722POPC   C4A44596  -5.412  16.992   8.329
 2722POPC   C1B44597  -5.969  17.259   8.465
 2722POPC   C2B44598  -5.787  17.178   8.486
 2722POPC   C3B44599  -5.606  17.097   8.506
 2722POPC   C4B44600  -5.424  17.016   8.527
 2723POPC   NC344601   4.636  27.246   8.436
 2723POPC   PO444602   4.694  27.055   8.452
 2723POPC   GL144603   4.752  26.864   8.468
 2723POPC   GL244604   4.749  26.872   8.568
 2723POPC   C1A44605   4.810  26.673   8.484
 2723POPC   D2A44606   4.868  26.483   8.501
 2723POPC   C3A44607   4.926  26.292   8.517
 2723POPC   C4A44608   4.984  26.101   8.533
 2723POPC   C1B44609   4.619  26.615   8.484
 2723POPC   C2B44610   4.677  26.424   8.500
 2723POPC   C3B44611   4.735  26.234   8.516
 2723POPC   C4B44612   4.793  26.043   8.532
 2724POPC   NC344613  12.609   1.739  25.805
 2724POPC   PO444614  12.580   1.832  25.630
 2724POPC   GL144615  12.551   1.925  25.455
 2724POPC   GL244616  12.590   1.847  25.407
 2724POPC   C1A44617  12.521   2.018  25.281
 2724POPC   D2A44618  12.492   2.111  25.106
 2724POPC   C3A44619  12.462   2.204  24.932
 2724POPC   C4A44620  12.433   2.297  24.757
 2724POPC   C1B44621  12.340   1.935  25.267
 2724POPC   C2B44622  12.311   2.028  25.092
 2724POPC   C3B44623  12.281   2.121  24.918
 2724POPC   C4B44624  12.252   2.214  24.743
 2725POPC   NC344625   6.686  -7.340  13.993
 2725POPC   PO444626   6.723  -7.148  13.950
 2725POPC   GL144627   6.760  -6.956  13.907
 2725POPC   GL244628   6.855  -6.968  13.936
 2725POPC   C1A44629   6.797  -6.764  13.864
 2725POPC   D2A44630   6.833  -6.573  13.821
 2725POPC   C3A44631   6.870  -6.381  13.778
 2725POPC   C4A44632   6.907  -6.189  13.735
 2725POPC   C1B44633   6.847  -6.816  13.677
 2725POPC   C2B44634   6.883  -6.624  13.634
 2725POPC   C3B44635   6.920  -6.432  13.591
 2725POPC   C4B44636   6.957  -6.240  13.548
 2726POPC   NC344637  24.874  17.005  17.198
 2726POPC   PO444638  24.706  16.929  17.119
 2726POPC   GL144639  24.538  16.853  17.040
 2726POPC   GL244640  24.584  16.844  16.952
 2726POPC   C1A44641  24.371  16.778  16.962
 2726POPC   D2A44642  24.203  16.702  16.883
 2726POPC   C3A44643  24.036  16.627  16.805
 2726POPC   C4A44644  23.868  16.551  16.726
 2726POPC   C1B44645  24.431  16.593  17.011
 2726POPC   C2B44646  24.263  16.518  16.932
 2726POPC   C3B44647  24.096  16.442  16.854
 2726POPC   C4B44648  23.928  16.367  16.775
 2727POPC   NC344649  19.160  19.636  -2.175
 2727POPC   PO444650  19.056  19.530  -2.041
 2727POPC   GL144651  18.952  19.424  -1.907
 2727POPC   GL244652  19.037  19.380  -1.877
 2727POPC   C1A44653  18.848  19.317  -1.773
 2727POPC   D2A44654  18.745  19.211  -1.640
 2727POPC   C3A44655  18.641  19.104  -1.506
 2727POPC   C4A44656  18.537  18.998  -1.372
 2727POPC   C1B44657  18.875  19.462  -1.638
 2727POPC   C2B44658  18.771  19.356  -1.504
 2727POPC   C3B44659  18.667  19.249  -1.370
 2727POPC   C4B44660  18.563  19.143  -1.237
 2728POPC   NC344661  17.293  17.541  -4.684
 2728POPC   PO444662  17.211  17.456  -4.523
 2728POPC   GL144663  17.129  17.371  -4.362
 2728POPC   GL244664  17.141  17.281  -4.403
 2728POPC   C1A44665  17.047  17.287  -4.200
 2728POPC   D2A44666  16.964  17.202  -4.039
 2728POPC   C3A44667  16.882  17.118  -3.877
 2728POPC   C4A44668  16.800  17.033  -3.716
 2728POPC   C1B44669  17.227  17.273  -4.115
 2728POPC   C2B44670  17.145  17.188  -3.954
 2728POPC   C3B44671  17.063  17.104  -3.793
 2728POPC   C4B44672  16.981  17.019  -3.631
 2729POPC   NC344673   0.633  17.763  23.293
 2729POPC   PO444674   0.739  17.679  23.145
 2729POPC   GL144675   0.845  17.595  22.997
 2729POPC   GL244676   0.929  17.629  23.038
 2729POPC   C1A44677   0.950  17.511  22.850
 2729POPC   D2A44678   1.056  17.427  22.702
 2729POPC   C3A44679   1.161  17.343  22.555
 2729POPC   C4A44680   1.267  17.259  22.407
 2729POPC   C1B44681   0.966  17.343  22.957
 2729POPC   C2B44682   1.072  17.259  22.809
 2729POPC   C3B44683   1.178  17.175  22.662
 2729POPC   C4B44684   1.283  17.091  22.514
 2730POPC   NC344685  -4.263  19.628   4.110
 2730POPC   PO444686  -4.105  19.525   4.176
 2730POPC   GL144687  -3.947  19.422   4.242
 2730POPC   GL244688  -3.977  19.437   4.337
 2730POPC   C1A44689  -3.789  19.319   4.309
 2730POPC   D2A44690  -3.632  19.215   4.375
 2730POPC   C3A44691  -3.474  19.112   4.442
 2730POPC   C4A44692  -3.316  19.009   4.508
 2730POPC   C1B44693  -3.897  19.150   4.302
 2730POPC   C2B44694  -3.739  19.047   4.369
 2730POPC   C3B44695  -3.581  18.944   4.435
 2730POPC   C4B44696  -3.424  18.840   4.502
 2731POPC   NC344697   7.270  10.163  -7.925
 2731POPC   PO444698   7.299  10.162  -7.727
 2731POPC   GL144699   7.328  10.161  -7.529
 2731POPC   GL244700   7.267  10.240  -7.520
 2731POPC   C1A44701   7.357  10.159  -7.331
 2731POPC   D2A44702   7.386  10.158  -7.134
 2731POPC   C3A44703   7.415  10.156  -6.936
 2731POPC   C4A44704   7.444  10.155  -6.738
 2731POPC   C1B44705   7.200  10.037  -7.309
 2731POPC   C2B44706   7.229  10.035  -7.112
 2731POPC   C3B44707   7.258  10.034  -6.914
 2731POPC   C4B44708   7.287  10.033  -6.716
 2732POPC   NC344709  21.284  19.612  -0.175
 2732POPC   PO444710  21.158  19.500  -0.067
 2732POPC   GL144711  21.032  19.388   0.041
 2732POPC   GL244712  21.109  19.334   0.075
 2732POPC   C1A44713  20.906  19.276   0.149
 2732POPC   D2A44714  20.780  19.164   0.256
 2732POPC   C3A44715  20.654  19.052   0.364
 2732POPC   C4A44716  20.528  18.940   0.472
 2732POPC   C1B44717  20.927  19.401   0.303
 2732POPC   C2B44718  20.801  19.289   0.411
 2732POPC   C3B44719  20.675  19.177   0.519
 2732POPC   C4B44720  20.549  19.065   0.626
 2733POPC   NC344721  11.149  27.946  10.831
 2733POPC   PO444722  11.136  27.747  10.821
 2733POPC   GL144723  11.123  27.548  10.811
 2733POPC   GL244724  11.220  27.542  10.789
 2733POPC   C1A44725  11.109  27.349  10.801
 2733POPC   D2A44726  11.096  27.149  10.790
 2733POPC   C3A44727  11.082  26.950  10.780
 2733POPC   C4A44728  11.069  26.751  10.770
 2733POPC   C1B44729  11.153  27.336  10.995
 2733POPC   C2B44730  11.139  27.136  10.985
 2733POPC   C3B44731  11.126  26.937  10.975
 2733POPC   C4B44732  11.112  26.738  10.965
 2734POPC   NC344733  -2.441  -1.458  16.604
 2734POPC   PO444734  -2.303  -1.334  16.530
 2734POPC   GL144735  -2.165  -1.210  16.456
 2734POPC   GL244736  -2.117  -1.287  16.415
 2734POPC   C1A44737  -2.027  -1.085  16.383
 2734POPC   D2A44738  -1.888  -0.961  16.309
 2734POPC   C3A44739  -1.750  -0.836  16.236
 2734POPC   C4A44740  -1.612  -0.712  16.162
 2734POPC   C1B44741  -2.136  -1.062  16.217
 2734POPC   C2B44742  -1.997  -0.938  16.143
 2734POPC   C3B44743  -1.859  -0.813  16.070
 2734POPC   C4B44744  -1.721  -0.689  15.996
 2735POPC   NC344745  -4.244  21.296   9.225
 2735POPC   PO444746  -4.090  21.169   9.230
 2735POPC   GL144747  -3.936  21.042   9.235
 2735POPC   GL244748  -3.897  21.092   9.313
 2735POPC   C1A44749  -3.781  20.915   9.240
 2735POPC   D2A44750  -3.627  20.788   9.245
 2735POPC   C3A44751  -3.472  20.661   9.250
 2735POPC   C4A44752  -3.318  20.534   9.255
 2735POPC   C1B44753  -3.882  20.797   9.365
 2735POPC   C2B44754  -3.728  20.670   9.370
 2735POPC   C3B44755  -3.574  20.543   9.375
 2735POPC   C4B44756  -3.419  20.416   9.380
 2736POPC   NC344757  14.480  -6.993   5.866
 2736POPC   PO444758  14.420  -6.808   5.911
 2736POPC   GL144759  14.360  -6.623   5.956
 2736POPC   GL244760  14.451  -6.602   5.992
 2736POPC   C1A44761  14.301  -6.437   6.002
 2736POPC   D2A44762  14.241  -6.252   6.047
 2736POPC   C3A44763  14.182  -6.066   6.093
 2736POPC   C4A44764  14.122  -5.881   6.138
 2736POPC   C1B44765  14.358  -6.374   5.821
 2736POPC   C2B44766  14.299  -6.189   5.866
 2736POPC   C3B44767  14.239  -6.004   5.912
 2736POPC   C4B44768  14.180  -5.818   5.957
 2737POPC   NC344769  16.126   2.066  -5.106
 2737POPC   PO444770  16.056   2.150  -4.938
 2737POPC   GL144771  15.986   2.234  -4.770
 2737POPC   GL244772  15.921   2.287  -4.824
 2737POPC   C1A44773  15.917   2.318  -4.603
 2737POPC   D2A44774  15.847   2.402  -4.435
 2737POPC   C3A44775  15.778   2.486  -4.268
 2737POPC   C4A44776  15.708   2.570  -4.100
 2737POPC   C1B44777  15.782   2.171  -4.585
 2737POPC   C2B44778  15.713   2.255  -4.417
 2737POPC   C3B44779  15.643   2.339  -4.250
 2737POPC   C4B44780  15.573   2.423  -4.082
 2738POPC   NC344781  -6.061  18.584   9.829
 2738POPC   PO444782  -5.884  18.491   9.828
 2738POPC   GL144783  -5.707  18.398   9.827
 2738POPC   GL244784  -5.745  18.324   9.882
 2738POPC   C1A44785  -5.530  18.305   9.825
 2738POPC   D2A44786  -5.352  18.213   9.824
 2738POPC   C3A44787  -5.175  18.120   9.822
 2738POPC   C4A44788  -4.998  18.027   9.821
 2738POPC   C1B44789  -5.582  18.209   9.658
 2738POPC   C2B44790  -5.404  18.116   9.657
 2738POPC   C3B44791  -5.227  18.023   9.655
 2738POPC   C4B44792  -5.050  17.930   9.654
 2739POPC   NC344793   2.549  -0.066  -3.074
 2739POPC   PO444794   2.633   0.048  -2.933
 2739POPC   GL144795   2.717   0.162  -2.792
 2739POPC   GL244796   2.796   0.100  -2.789
 2739POPC   C1A44797   2.801   0.275  -2.650
 2739POPC   D2A44798   2.886   0.389  -2.509
 2739POPC   C3A44799   2.970   0.502  -2.367
 2739POPC   C4A44800   3.054   0.616  -2.226
 2739POPC   C1B44801   2.891   0.384  -2.792
 2739POPC   C2B44802   2.976   0.498  -2.650
 2739POPC   C3B44803   3.060   0.611  -2.509
 2739POPC   C4B44804   3.144   0.725  -2.367
 2740POPC   NC344805   1.346   3.008  -4.365
 2740POPC   PO444806   1.444   3.089  -4.211
 2740POPC   GL144807   1.542   3.170  -4.057
 2740POPC   GL244808   1.475   3.132  -3.994
 2740POPC   C1A44809   1.640   3.252  -3.903
 2740POPC   D2A44810   1.739   3.333  -3.749
 2740POPC   C3A44811   1.837   3.415  -3.595
 2740POPC   C4A44812   1.935   3.496  -3.441
 2740POPC   C1B44813   1.752   3.086  -3.887
 2740POPC   C2B44814   1.850   3.168  -3.733
 2740POPC   C3B44815   1.948   3.249  -3.579
 2740POPC   C4B44816   2.046   3.331  -3.425
 2741POPC   NC344817  -5.774   2.438  14.777
 2741POPC   PO444818  -5.600   2.522  14.724
 2741POPC   GL144819  -5.426   2.606  14.671
 2741POPC   GL244820  -5.434   2.669  14.749
 2741POPC   C1A44821  -5.253   2.691  14.619
 2741POPC   D2A44822  -5.079   2.775  14.566
 2741POPC   C3A44823  -4.906   2.860  14.514
 2741POPC   C4A44824  -4.732   2.944  14.461
 2741POPC   C1B44825  -5.154   2.560  14.734
 2741POPC   C2B44826  -4.981   2.645  14.681
 2741POPC   C3B44827  -4.807   2.729  14.629
 2741POPC   C4B44828  -4.634   2.813  14.576
 2742POPC   NC344829  -6.624   5.315   4.136
 2742POPC   PO444830  -6.442   5.365   4.201
 2742POPC   GL144831  -6.260   5.415   4.266
 2742POPC   GL244832  -6.301   5.473   4.336
 2742POPC   C1A44833  -6.077   5.465   4.331
 2742POPC   D2A44834  -5.895   5.516   4.396
 2742POPC   C3A44835  -5.712   5.566   4.461
 2742POPC   C4A44836  -5.530   5.616   4.526
 2742POPC   C1B44837  -6.079   5.310   4.457
 2742POPC   C2B44838  -5.897   5.360   4.522
 2742POPC   C3B44839  -5.715   5.411   4.587
 2742POPC   C4B44840  -5.532   5.461   4.652
 2743POPC   NC344841  13.523  -6.822   4.320
 2743POPC   PO444842  13.477  -6.637   4.381
 2743POPC   GL144843  13.431  -6.452   4.442
 2743POPC   GL244844  13.451  -6.417   4.351
 2743POPC   C1A44845  13.385  -6.267   4.503
 2743POPC   D2A44846  13.339  -6.083   4.564
 2743POPC   C3A44847  13.293  -5.898   4.625
 2743POPC   C4A44848  13.247  -5.713   4.686
 2743POPC   C1B44849  13.195  -6.297   4.449
 2743POPC   C2B44850  13.149  -6.112   4.510
 2743POPC   C3B44851  13.103  -5.927   4.571
 2743POPC   C4B44852  13.057  -5.743   4.632
 2744POPC   NC344853   2.552  18.756  23.938
 2744POPC   PO444854   2.637  18.659  23.785
 2744POPC   GL144855   2.722  18.562  23.632
 2744POPC   GL244856   2.765  18.499  23.696
 2744POPC   C1A44857   2.807  18.465  23.479
 2744POPC   D2A44858   2.891  18.368  23.326
 2744POPC   C3A44859   2.976  18.271  23.173
 2744POPC   C4A44860   3.061  18.174  23.020
 2744POPC   C1B44861   2.647  18.344  23.467
 2744POPC   C2B44862   2.732  18.247  23.314
 2744POPC   C3B44863   2.817  18.150  23.161
 2744POPC   C4B44864   2.902  18.053  23.008
 2745POPC   NC344865  23.869  -1.158  12.352
 2745POPC   PO444866  23.715  -1.035  12.319
 2745POPC   GL144867  23.561  -0.912  12.286
 2745POPC   GL244868  23.616  -0.834  12.318
 2745POPC   C1A44869  23.407  -0.788  12.254
 2745POPC   D2A44870  23.253  -0.665  12.221
 2745POPC   C3A44871  23.099  -0.541  12.189
 2745POPC   C4A44872  22.945  -0.418  12.156
 2745POPC   C1B44873  23.471  -0.757  12.067
 2745POPC   C2B44874  23.317  -0.634  12.034
 2745POPC   C3B44875  23.163  -0.510  12.002
 2745POPC   C4B44876  23.009  -0.387  11.969
 2746POPC   NC344877   3.055   3.463  25.363
 2746POPC   PO444878   3.133   3.533  25.193
 2746POPC   GL144879   3.211   3.603  25.023
 2746POPC   GL244880   3.223   3.510  24.989
 2746POPC   C1A44881   3.288   3.674  24.852
 2746POPC   D2A44882   3.366   3.744  24.682
 2746POPC   C3A44883   3.443   3.815  24.511
 2746POPC   C4A44884   3.521   3.885  24.341
 2746POPC   C1B44885   3.105   3.679  24.771
 2746POPC   C2B44886   3.183   3.750  24.601
 2746POPC   C3B44887   3.261   3.820  24.430
 2746POPC   C4B44888   3.338   3.890  24.260
 2747POPC   NC344889  -3.224  17.778   0.199
 2747POPC   PO444890  -3.078  17.689   0.303
 2747POPC   GL144891  -2.932  17.600   0.407
 2747POPC   GL244892  -2.902  17.690   0.441
 2747POPC   C1A44893  -2.786  17.512   0.511
 2747POPC   D2A44894  -2.640  17.423   0.615
 2747POPC   C3A44895  -2.494  17.335   0.719
 2747POPC   C4A44896  -2.348  17.246   0.823
 2747POPC   C1B44897  -2.909  17.494   0.668
 2747POPC   C2B44898  -2.763  17.406   0.772
 2747POPC   C3B44899  -2.617  17.317   0.876
 2747POPC   C4B44900  -2.471  17.228   0.980
 2748POPC   NC344901  14.644  -0.191  -4.198
 2748POPC   PO444902  14.597  -0.075  -4.042
 2748POPC   GL144903  14.550   0.041  -3.886
 2748POPC   GL244904  14.631   0.097  -3.903
 2748POPC   C1A44905  14.502   0.158  -3.731
 2748POPC   D2A44906  14.455   0.274  -3.575
 2748POPC   C3A44907  14.407   0.391  -3.420
 2748POPC   C4A44908  14.360   0.507  -3.264
 2748POPC   C1B44909  14.397   0.277  -3.852
 2748POPC   C2B44910  14.349   0.393  -3.696
 2748POPC   C3B44911  14.302   0.510  -3.541
 2748POPC   C4B44912  14.254   0.626  -3.385
 2749POPC   NC344913   8.933  -5.196  19.678
 2749POPC   PO444914   8.944  -5.028  19.570
 2749POPC   GL144915   8.955  -4.860  19.462
 2749POPC   GL244916   9.000  -4.814  19.538
 2749POPC   C1A44917   8.965  -4.692  19.354
 2749POPC   D2A44918   8.976  -4.524  19.246
 2749POPC   C3A44919   8.986  -4.356  19.138
 2749POPC   C4A44920   8.997  -4.188  19.030
 2749POPC   C1B44921   9.143  -4.749  19.283
 2749POPC   C2B44922   9.154  -4.581  19.175
 2749POPC   C3B44923   9.165  -4.413  19.067
 2749POPC   C4B44924   9.175  -4.245  18.959
 2750POPC   NC344925  27.577  13.325   8.730
 2750POPC   PO444926  27.380  13.292   8.742
 2750POPC   GL144927  27.183  13.259   8.754
 2750POPC   GL244928  27.188  13.203   8.671
 2750POPC   C1A44929  26.986  13.227   8.765
 2750POPC   D2A44930  26.789  13.194   8.777
 2750POPC   C3A44931  26.592  13.162   8.788
 2750POPC   C4A44932  26.395  13.129   8.800
 2750POPC   C1B44933  27.019  13.065   8.878
 2750POPC   C2B44934  26.822  13.032   8.889
 2750POPC   C3B44935  26.625  13.000   8.901
 2750POPC   C4B44936  26.428  12.967   8.912
 2751POPC   NC344937  15.915  23.270  -0.736
 2751POPC   PO444938  15.842  23.122  -0.623
 2751POPC   GL144939  15.769  22.974  -0.510
 2751POPC   GL244940  15.862  22.939  -0.497
 2751POPC   C1A44941  15.696  22.826  -0.397
 2751POPC   D2A44942  15.624  22.678  -0.283
 2751POPC   C3A44943  15.551  22.530  -0.170
 2751POPC   C4A44944  15.478  22.382  -0.057
 2751POPC   C1B44945  15.717  22.940  -0.234
 2751POPC   C2B44946  15.644  22.792  -0.121
 2751POPC   C3B44947  15.571  22.644  -0.007
 2751POPC   C4B44948  15.499  22.496   0.106
 2752POPC   NC344949  -0.787  23.215   4.018
 2752POPC   PO444950  -0.671  23.066   4.084
 2752POPC   GL144951  -0.555  22.917   4.150
 2752POPC   GL244952  -0.477  22.978   4.151
 2752POPC   C1A44953  -0.440  22.767   4.216
 2752POPC   D2A44954  -0.324  22.618   4.281
 2752POPC   C3A44955  -0.209  22.468   4.347
 2752POPC   C4A44956  -0.093  22.319   4.413
 2752POPC   C1B44957  -0.482  22.818   4.404
 2752POPC   C2B44958  -0.366  22.668   4.470
 2752POPC   C3B44959  -0.251  22.519   4.536
 2752POPC   C4B44960  -0.135  22.370   4.602
 2753POPC   NC344961  -6.338  17.957  10.830
 2753POPC   PO444962  -6.158  17.870  10.818
 2753POPC   GL144963  -5.978  17.783  10.806
 2753POPC   GL244964  -5.994  17.738  10.894
 2753POPC   C1A44965  -5.798  17.697  10.794
 2753POPC   D2A44966  -5.618  17.610  10.783
 2753POPC   C3A44967  -5.438  17.524  10.771
 2753POPC   C4A44968  -5.258  17.437  10.759
 2753POPC   C1B44969  -5.879  17.541  10.699
 2753POPC   C2B44970  -5.699  17.455  10.687
 2753POPC   C3B44971  -5.519  17.368  10.675
 2753POPC   C4B44972  -5.339  17.281  10.663
 2754POPC   NC344973  27.354  13.125  12.911
 2754POPC   PO444974  27.159  13.092  12.879
 2754POPC   GL144975  26.964  13.059  12.847
 2754POPC   GL244976  26.961  13.137  12.785
 2754POPC   C1A44977  26.770  13.026  12.815
 2754POPC   D2A44978  26.575  12.992  12.782
 2754POPC   C3A44979  26.381  12.959  12.750
 2754POPC   C4A44980  26.186  12.926  12.718
 2754POPC   C1B44981  26.816  12.907  12.661
 2754POPC   C2B44982  26.621  12.873  12.628
 2754POPC   C3B44983  26.426  12.840  12.596
 2754POPC   C4B44984  26.232  12.807  12.564
 2755POPC   NC344985  26.727   3.830   7.943
 2755POPC   PO444986  26.541   3.900   7.966
 2755POPC   GL144987  26.355   3.970   7.989
 2755POPC   GL244988  26.368   4.031   7.910
 2755POPC   C1A44989  26.169   4.040   8.012
 2755POPC   D2A44990  25.984   4.111   8.035
 2755POPC   C3A44991  25.798   4.181   8.058
 2755POPC   C4A44992  25.612   4.251   8.081
 2755POPC   C1B44993  26.100   3.897   7.890
 2755POPC   C2B44994  25.915   3.968   7.913
 2755POPC   C3B44995  25.729   4.038   7.936
 2755POPC   C4B44996  25.543   4.108   7.959
 2756POPC   NC344997  -3.698  19.142   2.293
 2756POPC   PO444998  -3.545  19.044   2.377
 2756POPC   GL144999  -3.392  18.946   2.461
 2756POPC   GL245000  -3.421  18.978   2.551
 2756POPC   C1A45001  -3.240  18.848   2.545
 2756POPC   D2A45002  -3.087  18.750   2.630
 2756POPC   C3A45003  -2.935  18.652   2.714
 2756POPC   C4A45004  -2.782  18.554   2.798
 2756POPC   C1B45005  -3.355  18.686   2.566
 2756POPC   C2B45006  -3.203  18.588   2.650
 2756POPC   C3B45007  -3.050  18.490   2.735
 2756POPC   C4B45008  -2.898  18.392   2.819
 2757POPC   NC345009  19.379  -2.295  19.112
 2757POPC   PO445010  19.273  -2.163  19.005
 2757POPC   GL145011  19.167  -2.031  18.898
 2757POPC   GL245012  19.191  -1.959  18.963
 2757POPC   C1A45013  19.061  -1.900  18.791
 2757POPC   D2A45014  18.954  -1.768  18.685
 2757POPC   C3A45015  18.848  -1.637  18.578
 2757POPC   C4A45016  18.742  -1.505  18.471
 2757POPC   C1B45017  19.223  -1.857  18.683
 2757POPC   C2B45018  19.117  -1.725  18.576
 2757POPC   C3B45019  19.011  -1.594  18.469
 2757POPC   C4B45020  18.904  -1.462  18.362
 2758POPC   NC345021   6.964  16.868  26.422
 2758POPC   PO445022   6.990  16.791  26.239
 2758POPC   GL145023   7.016  16.714  26.056
 2758POPC   GL245024   7.102  16.764  26.047
 2758POPC   C1A45025   7.042  16.637  25.873
 2758POPC   D2A45026   7.068  16.561  25.691
 2758POPC   C3A45027   7.094  16.484  25.508
 2758POPC   C4A45028   7.120  16.407  25.325
 2758POPC   C1B45029   7.141  16.482  25.952
 2758POPC   C2B45030   7.167  16.406  25.770
 2758POPC   C3B45031   7.193  16.329  25.587
 2758POPC   C4B45032   7.219  16.252  25.404
 2759POPC   NC345033  -1.173  22.939  15.990
 2759POPC   PO445034  -1.052  22.794  15.923
 2759POPC   GL145035  -0.931  22.649  15.856
 2759POPC   GL245036  -0.893  22.638  15.948
 2759POPC   C1A45037  -0.810  22.505  15.790
 2759POPC   D2A45038  -0.689  22.360  15.723
 2759POPC   C3A45039  -0.568  22.216  15.657
 2759POPC   C4A45040  -0.447  22.071  15.590
 2759POPC   C1B45041  -0.950  22.368  15.831
 2759POPC   C2B45042  -0.829  22.224  15.764
 2759POPC   C3B45043  -0.708  22.079  15.698
 2759POPC   C4B45044  -0.587  21.935  15.631
 2760POPC   NC345045   5.385  27.016   5.702
 2760POPC   PO445046   5.432  26.827   5.748
 2760POPC   GL145047   5.479  26.638   5.794
 2760POPC   GL245048   5.498  26.666   5.888
 2760POPC   C1A45049   5.527  26.449   5.840
 2760POPC   D2A45050   5.574  26.261   5.886
 2760POPC   C3A45051   5.622  26.072   5.932
 2760POPC   C4A45052   5.669  25.883   5.978
 2760POPC   C1B45053   5.336  26.413   5.889
 2760POPC   C2B45054   5.384  26.225   5.935
 2760POPC   C3B45055   5.431  26.036   5.981
 2760POPC   C4B45056   5.478  25.847   6.027
 2761POPC   NC345057  -4.407  15.339  19.699
 2761POPC   PO445058  -4.249  15.282  19.591
 2761POPC   GL145059  -4.091  15.225  19.483
 2761POPC   GL245060  -4.056  15.173  19.560
 2761POPC   C1A45061  -3.933  15.168  19.374
 2761POPC   D2A45062  -3.775  15.110  19.266
 2761POPC   C3A45063  -3.617  15.053  19.157
 2761POPC   C4A45064  -3.459  14.996  19.049
 2761POPC   C1B45065  -4.034  15.007  19.311
 2761POPC   C2B45066  -3.876  14.950  19.203
 2761POPC   C3B45067  -3.718  14.893  19.095
 2761POPC   C4B45068  -3.560  14.835  18.986
 2762POPC   NC345069  -5.067   8.370  19.959
 2762POPC   PO445070  -4.902   8.384  19.847
 2762POPC   GL145071  -4.737   8.398  19.735
 2762POPC   GL245072  -4.688   8.340  19.799
 2762POPC   C1A45073  -4.572   8.412  19.622
 2762POPC   D2A45074  -4.408   8.427  19.510
 2762POPC   C3A45075  -4.243   8.441  19.397
 2762POPC   C4A45076  -4.078   8.455  19.285
 2762POPC   C1B45077  -4.629   8.251  19.519
 2762POPC   C2B45078  -4.464   8.265  19.406
 2762POPC   C3B45079  -4.299   8.279  19.294
 2762POPC   C4B45080  -4.135   8.293  19.182
 2763POPC   NC345081   7.960  27.845  11.924
 2763POPC   PO445082   7.977  27.647  11.904
 2763POPC   GL145083   7.994  27.449  11.884
 2763POPC   GL245084   8.006  27.440  11.982
 2763POPC   C1A45085   8.011  27.251  11.863
 2763POPC   D2A45086   8.027  27.052  11.843
 2763POPC   C3A45087   8.044  26.854  11.822
 2763POPC   C4A45088   8.061  26.656  11.802
 2763POPC   C1B45089   7.813  27.231  11.886
 2763POPC   C2B45090   7.830  27.033  11.866
 2763POPC   C3B45091   7.846  26.835  11.845
 2763POPC   C4B45092   7.863  26.637  11.825
 2764POPC   NC345093   4.471  25.313   2.040
 2764POPC   PO445094   4.532  25.146   2.131
 2764POPC   GL145095   4.593  24.979   2.222
 2764POPC   GL245096   4.643  25.034   2.289
 2764POPC   C1A45097   4.654  24.812   2.314
 2764POPC   D2A45098   4.716  24.645   2.405
 2764POPC   C3A45099   4.777  24.478   2.497
 2764POPC   C4A45100   4.838  24.311   2.588
 2764POPC   C1B45101   4.493  24.817   2.431
 2764POPC   C2B45102   4.554  24.650   2.523
 2764POPC   C3B45103   4.615  24.483   2.614
 2764POPC   C4B45104   4.676  24.316   2.706
 2765POPC   NC345105  21.820  23.515   8.964
 2765POPC   PO445106  21.691  23.362   8.975
 2765POPC   GL145107  21.562  23.209   8.986
 2765POPC   GL245108  21.547  23.215   8.887
 2765POPC   C1A45109  21.433  23.057   8.997
 2765POPC   D2A45110  21.305  22.904   9.007
 2765POPC   C3A45111  21.176  22.752   9.018
 2765POPC   C4A45112  21.047  22.599   9.029
 2765POPC   C1B45113  21.583  22.928   8.965
 2765POPC   C2B45114  21.454  22.775   8.976
 2765POPC   C3B45115  21.326  22.623   8.987
 2765POPC   C4B45116  21.197  22.470   8.998
 2766POPC   NC345117  19.782  -4.755   6.683
 2766POPC   PO445118  19.674  -4.591   6.720
 2766POPC   GL145119  19.566  -4.427   6.757
 2766POPC   GL245120  19.529  -4.430   6.664
 2766POPC   C1A45121  19.458  -4.262   6.793
 2766POPC   D2A45122  19.350  -4.098   6.830
 2766POPC   C3A45123  19.242  -3.933   6.866
 2766POPC   C4A45124  19.134  -3.769   6.903
 2766POPC   C1B45125  19.307  -4.376   6.858
 2766POPC   C2B45126  19.199  -4.212   6.895
 2766POPC   C3B45127  19.091  -4.047   6.932
 2766POPC   C4B45128  18.983  -3.883   6.968
 2767POPC   NC345129  19.590  10.460  -5.234
 2767POPC   PO445130  19.484  10.453  -5.064
 2767POPC   GL145131  19.378  10.446  -4.894
 2767POPC   GL245132  19.342  10.538  -4.913
 2767POPC   C1A45133  19.273  10.440  -4.724
 2767POPC   D2A45134  19.167  10.433  -4.555
 2767POPC   C3A45135  19.062  10.427  -4.385
 2767POPC   C4A45136  18.956  10.420  -4.215
 2767POPC   C1B45137  19.119  10.358  -4.823
 2767POPC   C2B45138  19.014  10.351  -4.653
 2767POPC   C3B45139  18.908  10.345  -4.483
 2767POPC   C4B45140  18.802  10.338  -4.314
 2768POPC   NC345141  -6.635   5.055  15.371
 2768POPC   PO445142  -6.451   5.112  15.317
 2768POPC   GL145143  -6.267   5.169  15.263
 2768POPC   GL245144  -6.243   5.182  15.359
 2768POPC   C1A45145  -6.083   5.225  15.209
 2768POPC   D2A45146  -5.899   5.282  15.154
 2768POPC   C3A45147  -5.715   5.338  15.100
 2768POPC   C4A45148  -5.531   5.395  15.046
 2768POPC   C1B45149  -6.021   5.035  15.220
 2768POPC   C2B45150  -5.837   5.092  15.166
 2768POPC   C3B45151  -5.653   5.149  15.112
 2768POPC   C4B45152  -5.469   5.205  15.057
 2769POPC   NC345153  20.536  -4.382   7.458
 2769POPC   PO445154  20.418  -4.223   7.486
 2769POPC   GL145155  20.300  -4.064   7.514
 2769POPC   GL245156  20.288  -4.055   7.416
 2769POPC   C1A45157  20.182  -3.905   7.543
 2769POPC   D2A45158  20.065  -3.745   7.571
 2769POPC   C3A45159  19.947  -3.586   7.600
 2769POPC   C4A45160  19.829  -3.427   7.628
 2769POPC   C1B45161  20.023  -4.024   7.552
 2769POPC   C2B45162  19.905  -3.865   7.581
 2769POPC   C3B45163  19.787  -3.706   7.609
 2769POPC   C4B45164  19.669  -3.547   7.638
 2770POPC   NC345165  16.959  17.660  -4.787
 2770POPC   PO445166  16.881  17.574  -4.624
 2770POPC   GL145167  16.803  17.488  -4.461
 2770POPC   GL245168  16.818  17.398  -4.501
 2770POPC   C1A45169  16.724  17.403  -4.298
 2770POPC   D2A45170  16.646  17.317  -4.136
 2770POPC   C3A45171  16.567  17.232  -3.973
 2770POPC   C4A45172  16.489  17.146  -3.810
 2770POPC   C1B45173  16.906  17.396  -4.214
 2770POPC   C2B45174  16.827  17.311  -4.052
 2770POPC   C3B45175  16.749  17.225  -3.889
 2770POPC   C4B45176  16.670  17.140  -3.726
 2771POPC   NC345177  -3.356  16.655  20.306
 2771POPC   PO445178  -3.213  16.578  20.189
 2771POPC   GL145179  -3.070  16.501  20.072
 2771POPC   GL245180  -3.020  16.587  20.077
 2771POPC   C1A45181  -2.928  16.424  19.954
 2771POPC   D2A45182  -2.785  16.348  19.837
 2771POPC   C3A45183  -2.643  16.271  19.719
 2771POPC   C4A45184  -2.500  16.194  19.602
 2771POPC   C1B45185  -2.831  16.358  20.116
 2771POPC   C2B45186  -2.688  16.281  19.998
 2771POPC   C3B45187  -2.545  16.204  19.881
 2771POPC   C4B45188  -2.403  16.128  19.764
 2772POPC   NC345189   5.736  26.028   2.661
 2772POPC   PO445190   5.780  25.852   2.745
 2772POPC   GL145191   5.824  25.676   2.829
 2772POPC   GL245192   5.894  25.660   2.759
 2772POPC   C1A45193   5.868  25.500   2.913
 2772POPC   D2A45194   5.911  25.323   2.996
 2772POPC   C3A45195   5.955  25.147   3.080
 2772POPC   C4A45196   5.999  24.971   3.164
 2772POPC   C1B45197   6.004  25.589   3.029
 2772POPC   C2B45198   6.048  25.413   3.113
 2772POPC   C3B45199   6.091  25.236   3.196
 2772POPC   C4B45200   6.135  25.060   3.280
 2773POPC   NC345201  -4.686   9.059  20.561
 2773POPC   PO445202  -4.525   9.066  20.442
 2773POPC   GL145203  -4.364   9.073  20.323
 2773POPC   GL245204  -4.312   9.021  20.391
 2773POPC   C1A45205  -4.203   9.079  20.205
 2773POPC   D2A45206  -4.043   9.086  20.086
 2773POPC   C3A45207  -3.882   9.092  19.968
 2773POPC   C4A45208  -3.721   9.099  19.849
 2773POPC   C1B45209  -4.260   8.908  20.119
 2773POPC   C2B45210  -4.099   8.914  20.000
 2773POPC   C3B45211  -3.938   8.921  19.881
 2773POPC   C4B45212  -3.777   8.928  19.763
 2774POPC   NC345213   2.504  26.313   7.698
 2774POPC   PO445214   2.594  26.136   7.724
 2774POPC   GL145215   2.684  25.959   7.750
 2774POPC   GL245216   2.731  25.971   7.662
 2774POPC   C1A45217   2.774  25.783   7.775
 2774POPC   D2A45218   2.865  25.606   7.801
 2774POPC   C3A45219   2.955  25.430   7.826
 2774POPC   C4A45220   3.045  25.253   7.852
 2774POPC   C1B45221   2.926  25.874   7.868
 2774POPC   C2B45222   3.016  25.697   7.894
 2774POPC   C3B45223   3.107  25.521   7.919
 2774POPC   C4B45224   3.197  25.344   7.945
 2775POPC   NC345225  13.678  -1.013  -3.846
 2775POPC   PO445226  13.637  -0.892  -3.692
 2775POPC   GL145227  13.596  -0.771  -3.538
 2775POPC   GL245228  13.658  -0.702  -3.577
 2775POPC   C1A45229  13.556  -0.649  -3.385
 2775POPC   D2A45230  13.515  -0.528  -3.231
 2775POPC   C3A45231  13.475  -0.406  -3.078
 2775POPC   C4A45232  13.434  -0.285  -2.924
 2775POPC   C1B45233  13.403  -0.570  -3.487
 2775POPC   C2B45234  13.363  -0.449  -3.334
 2775POPC   C3B45235  13.322  -0.328  -3.180
 2775POPC   C4B45236  13.282  -0.206  -3.027
 2776POPC   NC345237  19.337  -5.236   7.824
 2776POPC   PO445238  19.234  -5.066   7.848
 2776POPC   GL145239  19.131  -4.896   7.872
 2776POPC   GL245240  19.216  -4.844   7.861
 2776POPC   C1A45241  19.029  -4.726   7.895
 2776POPC   D2A45242  18.926  -4.556   7.919
 2776POPC   C3A45243  18.824  -4.386   7.942
 2776POPC   C4A45244  18.721  -4.216   7.966
 2776POPC   C1B45245  18.999  -4.717   7.698
 2776POPC   C2B45246  18.897  -4.547   7.721
 2776POPC   C3B45247  18.794  -4.377   7.745
 2776POPC   C4B45248  18.691  -4.207   7.768
 2777POPC   NC345249  -6.439  17.576  11.695
 2777POPC   PO445250  -6.258  17.493  11.675
 2777POPC   GL145251  -6.077  17.410  11.655
 2777POPC   GL245252  -6.082  17.376  11.748
 2777POPC   C1A45253  -5.896  17.327  11.634
 2777POPC   D2A45254  -5.715  17.245  11.614
 2777POPC   C3A45255  -5.534  17.162  11.593
 2777POPC   C4A45256  -5.353  17.079  11.573
 2777POPC   C1B45257  -5.981  17.159  11.568
 2777POPC   C2B45258  -5.800  17.076  11.548
 2777POPC   C3B45259  -5.619  16.993  11.527
 2777POPC   C4B45260  -5.438  16.910  11.507
 2778POPC   NC345261  25.595  15.739  16.684
 2778POPC   PO445262  25.419  15.679  16.611
 2778POPC   GL145263  25.243  15.619  16.538
 2778POPC   GL245264  25.273  15.641  16.446
 2778POPC   C1A45265  25.066  15.559  16.466
 2778POPC   D2A45266  24.890  15.499  16.393
 2778POPC   C3A45267  24.713  15.439  16.321
 2778POPC   C4A45268  24.537  15.379  16.248
 2778POPC   C1B45269  25.138  15.374  16.444
 2778POPC   C2B45270  24.962  15.314  16.372
 2778POPC   C3B45271  24.785  15.254  16.299
 2778POPC   C4B45272  24.609  15.194  16.227
 2779POPC   NC345273  10.758  18.351  -6.030
 2779POPC   PO445274  10.745  18.260  -5.852
 2779POPC   GL145275  10.732  18.169  -5.674
 2779POPC   GL245276  10.791  18.096  -5.708
 2779POPC   C1A45277  10.719  18.078  -5.497
 2779POPC   D2A45278  10.707  17.987  -5.319
 2779POPC   C3A45279  10.694  17.896  -5.142
 2779POPC   C4A45280  10.681  17.805  -4.964
 2779POPC   C1B45281  10.880  18.179  -5.434
 2779POPC   C2B45282  10.868  18.088  -5.256
 2779POPC   C3B45283  10.855  17.997  -5.079
 2779POPC   C4B45284  10.842  17.906  -4.901
 2780POPC   NC345285   6.254  -6.921   4.739
 2780POPC   PO445286   6.295  -6.734   4.798
 2780POPC   GL145287   6.336  -6.547   4.857
 2780POPC   GL245288   6.397  -6.536   4.778
 2780POPC   C1A45289   6.378  -6.361   4.916
 2780POPC   D2A45290   6.419  -6.174   4.975
 2780POPC   C3A45291   6.461  -5.988   5.034
 2780POPC   C4A45292   6.502  -5.801   5.093
 2780POPC   C1B45293   6.223  -6.293   4.809
 2780POPC   C2B45294   6.265  -6.106   4.868
 2780POPC   C3B45295   6.306  -5.919   4.927
 2780POPC   C4B45296   6.348  -5.733   4.986
 2781POPC   NC345297  -1.144  -1.114   0.834
 2781POPC   PO445298  -1.027  -0.991   0.940
 2781POPC   GL145299  -0.910  -0.868   1.046
 2781POPC   GL245300  -0.859  -0.947   1.081
 2781POPC   C1A45301  -0.792  -0.746   1.152
 2781POPC   D2A45302  -0.675  -0.623   1.257
 2781POPC   C3A45303  -0.557  -0.501   1.363
 2781POPC   C4A45304  -0.440  -0.378   1.469
 2781POPC   C1B45305  -0.665  -0.734   0.997
 2781POPC   C2B45306  -0.548  -0.611   1.103
 2781POPC   C3B45307  -0.431  -0.489   1.209
 2781POPC   C4B45308  -0.313  -0.366   1.315
 2782POPC   NC345309  11.587   5.461  27.335
 2782POPC   PO445310  11.568   5.512  27.143
 2782POPC   GL145311  11.549   5.563  26.951
 2782POPC   GL245312  11.592   5.477  26.923
 2782POPC   C1A45313  11.530   5.615  26.758
 2782POPC   D2A45314  11.511   5.666  26.566
 2782POPC   C3A45315  11.492   5.718  26.373
 2782POPC   C4A45316  11.473   5.769  26.181
 2782POPC   C1B45317  11.350   5.527  26.753
 2782POPC   C2B45318  11.331   5.579  26.560
 2782POPC   C3B45319  11.312   5.630  26.368
 2782POPC   C4B45320  11.293   5.681  26.175
 2783POPC   NC345321  11.033  -0.051  24.896
 2783POPC   PO445322  11.020   0.059  24.730
 2783POPC   GL145323  11.007   0.169  24.564
 2783POPC   GL245324  11.086   0.224  24.594
 2783POPC   C1A45325  10.995   0.279  24.397
 2783POPC   D2A45326  10.982   0.390  24.231
 2783POPC   C3A45327  10.970   0.500  24.064
 2783POPC   C4A45328  10.957   0.610  23.898
 2783POPC   C1B45329  11.119   0.153  24.304
 2783POPC   C2B45330  11.106   0.263  24.138
 2783POPC   C3B45331  11.093   0.373  23.971
 2783POPC   C4B45332  11.081   0.484  23.805
 2784POPC   NC345333   6.854  24.643  20.066
 2784POPC   PO445334   6.888  24.482  19.952
 2784POPC   GL145335   6.922  24.321  19.838
 2784POPC   GL245336   7.016  24.316  19.873
 2784POPC   C1A45337   6.956  24.160  19.724
 2784POPC   D2A45338   6.990  24.000  19.611
 2784POPC   C3A45339   7.024  23.839  19.497
 2784POPC   C4A45340   7.058  23.678  19.383
 2784POPC   C1B45341   6.895  24.042  19.873
 2784POPC   C2B45342   6.929  23.881  19.760
 2784POPC   C3B45343   6.963  23.720  19.646
 2784POPC   C4B45344   6.997  23.560  19.532
 2785POPC   NC345345   9.761  -3.791  -1.741
 2785POPC   PO445346   9.764  -3.638  -1.613
 2785POPC   GL145347   9.767  -3.485  -1.485
 2785POPC   GL245348   9.867  -3.485  -1.486
 2785POPC   C1A45349   9.769  -3.331  -1.356
 2785POPC   D2A45350   9.772  -3.178  -1.228
 2785POPC   C3A45351   9.774  -3.024  -1.099
 2785POPC   C4A45352   9.777  -2.871  -0.971
 2785POPC   C1B45353   9.767  -3.203  -1.510
 2785POPC   C2B45354   9.770  -3.049  -1.381
 2785POPC   C3B45355   9.773  -2.896  -1.253
 2785POPC   C4B45356   9.775  -2.743  -1.124
 2786POPC   NC345357  10.579  -0.725  24.455
 2786POPC   PO445358  10.569  -0.606  24.295
 2786POPC   GL145359  10.559  -0.487  24.135
 2786POPC   GL245360  10.642  -0.440  24.165
 2786POPC   C1A45361  10.549  -0.368  23.974
 2786POPC   D2A45362  10.539  -0.249  23.814
 2786POPC   C3A45363  10.529  -0.130  23.653
 2786POPC   C4A45364  10.519  -0.011  23.493
 2786POPC   C1B45365  10.661  -0.498  23.871
 2786POPC   C2B45366  10.651  -0.379  23.711
 2786POPC   C3B45367  10.641  -0.260  23.550
 2786POPC   C4B45368  10.631  -0.141  23.390
 2787POPC   NC345369  25.603   3.857   3.449
 2787POPC   PO445370  25.429   3.925   3.519
 2787POPC   GL145371  25.255   3.993   3.589
 2787POPC   GL245372  25.269   4.080   3.542
 2787POPC   C1A45373  25.080   4.061   3.659
 2787POPC   D2A45374  24.906   4.130   3.730
 2787POPC   C3A45375  24.731   4.198   3.800
 2787POPC   C4A45376  24.557   4.266   3.870
 2787POPC   C1B45377  24.987   3.989   3.498
 2787POPC   C2B45378  24.813   4.057   3.568
 2787POPC   C3B45379  24.638   4.125   3.638
 2787POPC   C4B45380  24.464   4.194   3.709
 2788POPC   NC345381   7.338   4.456  -7.049
 2788POPC   PO445382   7.361   4.516  -6.860
 2788POPC   GL145383   7.384   4.576  -6.671
 2788POPC   GL245384   7.326   4.501  -6.640
 2788POPC   C1A45385   7.407   4.636  -6.481
 2788POPC   D2A45386   7.429   4.697  -6.292
 2788POPC   C3A45387   7.452   4.757  -6.102
 2788POPC   C4A45388   7.475   4.817  -5.913
 2788POPC   C1B45389   7.568   4.519  -6.463
 2788POPC   C2B45390   7.590   4.579  -6.274
 2788POPC   C3B45391   7.613   4.640  -6.085
 2788POPC   C4B45392   7.636   4.700  -5.895
 2789POPC   NC345393  -3.849  19.893   3.582
 2789POPC   PO445394  -3.696  19.786   3.653
 2789POPC   GL145395  -3.543  19.679   3.724
 2789POPC   GL245396  -3.570  19.703   3.818
 2789POPC   C1A45397  -3.390  19.572   3.796
 2789POPC   D2A45398  -3.237  19.464   3.867
 2789POPC   C3A45399  -3.084  19.357   3.939
 2789POPC   C4A45400  -2.931  19.250   4.010
 2789POPC   C1B45401  -3.507  19.410   3.803
 2789POPC   C2B45402  -3.354  19.302   3.874
 2789POPC   C3B45403  -3.201  19.195   3.946
 2789POPC   C4B45404  -3.048  19.088   4.017
 2790POPC   NC345405  23.758  18.082  18.249
 2790POPC   PO445406  23.607  17.989  18.157
 2790POPC   GL145407  23.456  17.896  18.065
 2790POPC   GL245408  23.440  17.977  18.009
 2790POPC   C1A45409  23.305  17.802  17.973
 2790POPC   D2A45410  23.153  17.709  17.882
 2790POPC   C3A45411  23.002  17.615  17.790
 2790POPC   C4A45412  22.851  17.522  17.698
 2790POPC   C1B45413  23.431  17.733  17.835
 2790POPC   C2B45414  23.280  17.639  17.744
 2790POPC   C3B45415  23.129  17.546  17.652
 2790POPC   C4B45416  22.978  17.452  17.560
 2791POPC   NC345417  13.777  27.142  13.879
 2791POPC   PO445418  13.735  26.952  13.835
 2791POPC   GL145419  13.693  26.762  13.791
 2791POPC   GL245420  13.706  26.781  13.694
 2791POPC   C1A45421  13.651  26.571  13.747
 2791POPC   D2A45422  13.610  26.381  13.702
 2791POPC   C3A45423  13.568  26.190  13.658
 2791POPC   C4A45424  13.526  26.000  13.614
 2791POPC   C1B45425  13.845  26.525  13.763
 2791POPC   C2B45426  13.803  26.334  13.719
 2791POPC   C3B45427  13.762  26.144  13.675
 2791POPC   C4B45428  13.720  25.954  13.630
 2792POPC   NC345429  25.767  14.282   2.515
 2792POPC   PO445430  25.592  14.236   2.600
 2792POPC   GL145431  25.417  14.190   2.685
 2792POPC   GL245432  25.376  14.272   2.645
 2792POPC   C1A45433  25.242  14.144   2.771
 2792POPC   D2A45434  25.068  14.097   2.856
 2792POPC   C3A45435  24.893  14.051   2.942
 2792POPC   C4A45436  24.718  14.005   3.027
 2792POPC   C1B45437  25.191  14.038   2.609
 2792POPC   C2B45438  25.016  13.992   2.694
 2792POPC   C3B45439  24.841  13.946   2.780
 2792POPC   C4B45440  24.667  13.900   2.865
 2793POPC   NC345441  23.013   2.980  20.078
 2793POPC   PO445442  22.869   3.054  19.960
 2793POPC   GL145443  22.725   3.128  19.842
 2793POPC   GL245444  22.737   3.051  19.779
 2793POPC   C1A45445  22.581   3.202  19.725
 2793POPC   D2A45446  22.438   3.276  19.607
 2793POPC   C3A45447  22.294   3.350  19.490
 2793POPC   C4A45448  22.150   3.424  19.372
 2793POPC   C1B45449  22.445   3.097  19.826
 2793POPC   C2B45450  22.301   3.171  19.709
 2793POPC   C3B45451  22.157   3.245  19.591
 2793POPC   C4B45452  22.013   3.319  19.473
 2794POPC   NC345453   7.793  -6.743  16.433
 2794POPC   PO445454   7.816  -6.558  16.360
 2794POPC   GL145455   7.839  -6.373  16.287
 2794POPC   GL245456   7.873  -6.411  16.201
 2794POPC   C1A45457   7.862  -6.188  16.214
 2794POPC   D2A45458   7.885  -6.004  16.142
 2794POPC   C3A45459   7.908  -5.819  16.069
 2794POPC   C4A45460   7.931  -5.634  15.996
 2794POPC   C1B45461   7.675  -6.193  16.143
 2794POPC   C2B45462   7.698  -6.009  16.070
 2794POPC   C3B45463   7.721  -5.824  15.997
 2794POPC   C4B45464   7.744  -5.639  15.924
 2795POPC   NC345465  11.158  -1.429  -3.984
 2795POPC   PO445466  11.141  -1.304  -3.829
 2795POPC   GL145467  11.124  -1.179  -3.674
 2795POPC   GL245468  11.218  -1.200  -3.647
 2795POPC   C1A45469  11.107  -1.054  -3.518
 2795POPC   D2A45470  11.090  -0.930  -3.363
 2795POPC   C3A45471  11.073  -0.805  -3.207
 2795POPC   C4A45472  11.056  -0.680  -3.052
 2795POPC   C1B45473  11.173  -0.904  -3.632
 2795POPC   C2B45474  11.156  -0.779  -3.477
 2795POPC   C3B45475  11.139  -0.654  -3.321
 2795POPC   C4B45476  11.122  -0.529  -3.166
 2796POPC   NC345477  -3.309  12.124  22.072
 2796POPC   PO445478  -3.161  12.102  21.939
 2796POPC   GL145479  -3.013  12.080  21.806
 2796POPC   GL245480  -2.973  12.007  21.862
 2796POPC   C1A45481  -2.865  12.058  21.673
 2796POPC   D2A45482  -2.717  12.035  21.541
 2796POPC   C3A45483  -2.569  12.013  21.408
 2796POPC   C4A45484  -2.421  11.991  21.275
 2796POPC   C1B45485  -2.974  11.922  21.575
 2796POPC   C2B45486  -2.826  11.899  21.442
 2796POPC   C3B45487  -2.678  11.877  21.309
 2796POPC   C4B45488  -2.530  11.855  21.177
 2797POPC   NC345489  14.737  10.522  -7.463
 2797POPC   PO445490  14.680  10.515  -7.271
 2797POPC   GL145491  14.623  10.508  -7.079
 2797POPC   GL245492  14.552  10.441  -7.103
 2797POPC   C1A45493  14.566  10.500  -6.888
 2797POPC   D2A45494  14.509  10.493  -6.696
 2797POPC   C3A45495  14.452  10.485  -6.505
 2797POPC   C4A45496  14.395  10.478  -6.313
 2797POPC   C1B45497  14.695  10.351  -6.855
 2797POPC   C2B45498  14.638  10.343  -6.664
 2797POPC   C3B45499  14.581  10.336  -6.472
 2797POPC   C4B45500  14.524  10.329  -6.280
 2798POPC   NC345501   4.214  23.381  20.610
 2798POPC   PO445502   4.274  23.234  20.489
 2798POPC   GL145503   4.334  23.087  20.368
 2798POPC   GL245504   4.400  23.149  20.325
 2798POPC   C1A45505   4.395  22.939  20.247
 2798POPC   D2A45506   4.455  22.792  20.127
 2798POPC   C3A45507   4.516  22.644  20.006
 2798POPC   C4A45508   4.576  22.497  19.885
 2798POPC   C1B45509   4.533  22.886  20.381
 2798POPC   C2B45510   4.594  22.739  20.261
 2798POPC   C3B45511   4.654  22.591  20.140
 2798POPC   C4B45512   4.715  22.444  20.019
 2799POPC   NC345513  14.686  21.396  -3.270
 2799POPC   PO445514  14.635  21.272  -3.121
 2799POPC   GL145515  14.584  21.148  -2.972
 2799POPC   GL245516  14.641  21.077  -3.013
 2799POPC   C1A45517  14.533  21.024  -2.824
 2799POPC   D2A45518  14.483  20.901  -2.675
 2799POPC   C3A45519  14.432  20.777  -2.527
 2799POPC   C4A45520  14.381  20.653  -2.378
 2799POPC   C1B45521  14.690  21.088  -2.717
 2799POPC   C2B45522  14.639  20.965  -2.568
 2799POPC   C3B45523  14.588  20.841  -2.420
 2799POPC   C4B45524  14.537  20.717  -2.271
 2800POPC   NC345525  21.588  16.570  21.870
 2800POPC   PO445526  21.460  16.501  21.732
 2800POPC   GL145527  21.332  16.432  21.594
 2800POPC   GL245528  21.406  16.378  21.553
 2800POPC   C1A45529  21.205  16.363  21.457
 2800POPC   D2A45530  21.077  16.293  21.319
 2800POPC   C3A45531  20.950  16.224  21.182
 2800POPC   C4A45532  20.822  16.155  21.044
 2800POPC   C1B45533  21.159  16.209  21.577
 2800POPC   C2B45534  21.031  16.140  21.439
 2800POPC   C3B45535  20.904  16.071  21.302
 2800POPC   C4B45536  20.776  16.002  21.164
 2801POPC   NC345537  -7.346   5.117  12.158
 2801POPC   PO445538  -7.155   5.171  12.132
 2801POPC   GL145539  -6.964   5.225  12.106
 2801POPC   GL245540  -6.976   5.298  12.174
 2801POPC   C1A45541  -6.773   5.279  12.080
 2801POPC   D2A45542  -6.583   5.334  12.053
 2801POPC   C3A45543  -6.392   5.388  12.027
 2801POPC   C4A45544  -6.201   5.442  12.001
 2801POPC   C1B45545  -6.718   5.153  12.224
 2801POPC   C2B45546  -6.527   5.207  12.198
 2801POPC   C3B45547  -6.336   5.261  12.171
 2801POPC   C4B45548  -6.145   5.315  12.145
 2802POPC   NC345549  26.827   3.776  10.126
 2802POPC   PO445550  26.639   3.844  10.122
 2802POPC   GL145551  26.451   3.912  10.118
 2802POPC   GL245552  26.485   4.006  10.114
 2802POPC   C1A45553  26.263   3.981  10.114
 2802POPC   D2A45554  26.075   4.049  10.111
 2802POPC   C3A45555  25.887   4.118  10.107
 2802POPC   C4A45556  25.699   4.186  10.103
 2802POPC   C1B45557  26.264   3.971   9.915
 2802POPC   C2B45558  26.076   4.040   9.911
 2802POPC   C3B45559  25.888   4.108   9.907
 2802POPC   C4B45560  25.700   4.176   9.903
 2803POPC   NC345561   4.464  -3.316  20.890
 2803POPC   PO445562   4.523  -3.169  20.768
 2803POPC   GL145563   4.582  -3.022  20.646
 2803POPC   GL245564   4.648  -3.084  20.603
 2803POPC   C1A45565   4.642  -2.875  20.524
 2803POPC   D2A45566   4.701  -2.727  20.403
 2803POPC   C3A45567   4.761  -2.580  20.281
 2803POPC   C4A45568   4.820  -2.433  20.159
 2803POPC   C1B45569   4.503  -2.929  20.391
 2803POPC   C2B45570   4.563  -2.782  20.269
 2803POPC   C3B45571   4.622  -2.635  20.147
 2803POPC   C4B45572   4.682  -2.488  20.025
 2804POPC   NC345573  14.643  24.733   0.674
 2804POPC   PO445574  14.590  24.567   0.772
 2804POPC   GL145575  14.537  24.401   0.870
 2804POPC   GL245576  14.580  24.436   0.953
 2804POPC   C1A45577  14.485  24.235   0.969
 2804POPC   D2A45578  14.432  24.069   1.067
 2804POPC   C3A45579  14.380  23.903   1.166
 2804POPC   C4A45580  14.327  23.737   1.264
 2804POPC   C1B45581  14.312  24.321   1.022
 2804POPC   C2B45582  14.260  24.155   1.120
 2804POPC   C3B45583  14.207  23.989   1.218
 2804POPC   C4B45584  14.154  23.823   1.317
 2805POPC   NC345585  -5.925  13.905   2.139
 2805POPC   PO445586  -5.748  13.858   2.220
 2805POPC   GL145587  -5.571  13.811   2.301
 2805POPC   GL245588  -5.609  13.824   2.392
 2805POPC   C1A45589  -5.394  13.764   2.381
 2805POPC   D2A45590  -5.217  13.717   2.462
 2805POPC   C3A45591  -5.040  13.670   2.542
 2805POPC   C4A45592  -4.863  13.623   2.623
 2805POPC   C1B45593  -5.448  13.571   2.386
 2805POPC   C2B45594  -5.271  13.524   2.467
 2805POPC   C3B45595  -5.094  13.477   2.548
 2805POPC   C4B45596  -4.917  13.430   2.628
 2806POPC   NC345597  15.184  12.597  -7.128
 2806POPC   PO445598  15.127  12.567  -6.939
 2806POPC   GL145599  15.070  12.537  -6.750
 2806POPC   GL245600  14.985  12.495  -6.782
 2806POPC   C1A45601  15.013  12.508  -6.560
 2806POPC   D2A45602  14.955  12.478  -6.371
 2806POPC   C3A45603  14.898  12.449  -6.181
 2806POPC   C4A45604  14.841  12.419  -5.992
 2806POPC   C1B45605  15.103  12.329  -6.561
 2806POPC   C2B45606  15.046  12.300  -6.371
 2806POPC   C3B45607  14.989  12.270  -6.182
 2806POPC   C4B45608  14.931  12.241  -5.993
 2807POPC   NC345609   5.058  25.236  18.359
 2807POPC   PO445610   5.111  25.066  18.268
 2807POPC   GL145611   5.164  24.896  18.177
 2807POPC   GL245612   5.228  24.947  18.119
 2807POPC   C1A45613   5.217  24.726  18.086
 2807POPC   D2A45614   5.270  24.556  17.995
 2807POPC   C3A45615   5.323  24.386  17.904
 2807POPC   C4A45616   5.376  24.216  17.813
 2807POPC   C1B45617   5.362  24.699  18.221
 2807POPC   C2B45618   5.415  24.529  18.130
 2807POPC   C3B45619   5.468  24.359  18.039
 2807POPC   C4B45620   5.521  24.189  17.948
 2808POPC   NC345621  -3.151  -2.338  12.211
 2808POPC   PO445622  -3.008  -2.200  12.187
 2808POPC   GL145623  -2.865  -2.062  12.163
 2808POPC   GL245624  -2.853  -2.058  12.262
 2808POPC   C1A45625  -2.723  -1.924  12.138
 2808POPC   D2A45626  -2.580  -1.785  12.114
 2808POPC   C3A45627  -2.438  -1.647  12.089
 2808POPC   C4A45628  -2.295  -1.509  12.065
 2808POPC   C1B45629  -2.585  -2.068  12.126
 2808POPC   C2B45630  -2.442  -1.930  12.102
 2808POPC   C3B45631  -2.300  -1.792  12.078
 2808POPC   C4B45632  -2.157  -1.653  12.053
 2809POPC   NC345633  23.036  21.897   6.711
 2809POPC   PO445634  22.885  21.772   6.751
 2809POPC   GL145635  22.734  21.647   6.791
 2809POPC   GL245636  22.699  21.659   6.698
 2809POPC   C1A45637  22.583  21.523   6.831
 2809POPC   D2A45638  22.431  21.398   6.871
 2809POPC   C3A45639  22.280  21.274   6.911
 2809POPC   C4A45640  22.129  21.149   6.951
 2809POPC   C1B45641  22.694  21.368   6.770
 2809POPC   C2B45642  22.543  21.244   6.810
 2809POPC   C3B45643  22.391  21.119   6.850
 2809POPC   C4B45644  22.240  20.994   6.890
 2810POPC   NC345645  16.640  -4.805   2.141
 2810POPC   PO445646  16.563  -4.640   2.223
 2810POPC   GL145647  16.486  -4.475   2.305
 2810POPC   GL245648  16.562  -4.421   2.269
 2810POPC   C1A45649  16.408  -4.310   2.387
 2810POPC   D2A45650  16.331  -4.145   2.470
 2810POPC   C3A45651  16.253  -3.980   2.552
 2810POPC   C4A45652  16.176  -3.815   2.634
 2810POPC   C1B45653  16.305  -4.275   2.220
 2810POPC   C2B45654  16.227  -4.110   2.302
 2810POPC   C3B45655  16.150  -3.945   2.384
 2810POPC   C4B45656  16.072  -3.780   2.467
 2811POPC   NC345657   9.084  10.866  27.947
 2811POPC   PO445658   9.102  10.855  27.748
 2811POPC   GL145659   9.120  10.844  27.549
 2811POPC   GL245660   9.123  10.943  27.544
 2811POPC   C1A45661   9.138  10.832  27.350
 2811POPC   D2A45662   9.155  10.821  27.152
 2811POPC   C3A45663   9.173  10.809  26.953
 2811POPC   C4A45664   9.191  10.798  26.754
 2811POPC   C1B45665   9.337  10.826  27.369
 2811POPC   C2B45666   9.354  10.815  27.170
 2811POPC   C3B45667   9.372  10.803  26.971
 2811POPC   C4B45668   9.390  10.792  26.772
 2812POPC   NC345669   7.865   9.422  -7.993
 2812POPC   PO445670   7.887   9.429  -7.794
 2812POPC   GL145671   7.909   9.436  -7.595
 2812POPC   GL245672   7.829   9.378  -7.584
 2812POPC   C1A45673   7.931   9.443  -7.397
 2812POPC   D2A45674   7.954   9.449  -7.198
 2812POPC   C3A45675   7.976   9.456  -7.000
 2812POPC   C4A45676   7.998   9.463  -6.801
 2812POPC   C1B45677   8.048   9.280  -7.404
 2812POPC   C2B45678   8.070   9.287  -7.206
 2812POPC   C3B45679   8.092   9.294  -7.007
 2812POPC   C4B45680   8.114   9.300  -6.808
 2813POPC   NC345681  27.225   9.551   5.127
 2813POPC   PO445682  27.032   9.556   5.178
 2813POPC   GL145683  26.839   9.561   5.229
 2813POPC   GL245684  26.825   9.473   5.184
 2813POPC   C1A45685  26.645   9.566   5.279
 2813POPC   D2A45686  26.452   9.571   5.330
 2813POPC   C3A45687  26.258   9.576   5.380
 2813POPC   C4A45688  26.065   9.581   5.431
 2813POPC   C1B45689  26.688   9.472   5.451
 2813POPC   C2B45690  26.494   9.477   5.501
 2813POPC   C3B45691  26.301   9.482   5.552
 2813POPC   C4B45692  26.108   9.487   5.603
 2814POPC   NC345693   1.783  -0.616  -2.124
 2814POPC   PO445694   1.873  -0.496  -1.991
 2814POPC   GL145695   1.963  -0.376  -1.858
 2814POPC   GL245696   2.050  -0.420  -1.878
 2814POPC   C1A45697   2.052  -0.257  -1.725
 2814POPC   D2A45698   2.142  -0.137  -1.593
 2814POPC   C3A45699   2.231  -0.018  -1.460
 2814POPC   C4A45700   2.321   0.102  -1.327
 2814POPC   C1B45701   2.087  -0.123  -1.870
 2814POPC   C2B45702   2.176  -0.003  -1.737
 2814POPC   C3B45703   2.266   0.117  -1.604
 2814POPC   C4B45704   2.355   0.236  -1.471
 2815POPC   NC345705   5.785  -5.019   0.766
 2815POPC   PO445706   5.827  -4.851   0.867
 2815POPC   GL145707   5.869  -4.683   0.968
 2815POPC   GL245708   5.964  -4.713   0.977
 2815POPC   C1A45709   5.910  -4.516   1.069
 2815POPC   D2A45710   5.952  -4.348   1.170
 2815POPC   C3A45711   5.993  -4.181   1.271
 2815POPC   C4A45712   6.035  -4.013   1.372
 2815POPC   C1B45713   5.955  -4.424   0.897
 2815POPC   C2B45714   5.997  -4.256   0.998
 2815POPC   C3B45715   6.039  -4.088   1.099
 2815POPC   C4B45716   6.080  -3.921   1.200
 2816POPC   NC345717  -4.860   0.099  13.312
 2816POPC   PO445718  -4.696   0.206  13.273
 2816POPC   GL145719  -4.532   0.313  13.234
 2816POPC   GL245720  -4.486   0.230  13.200
 2816POPC   C1A45721  -4.367   0.420  13.194
 2816POPC   D2A45722  -4.203   0.527  13.155
 2816POPC   C3A45723  -4.038   0.634  13.115
 2816POPC   C4A45724  -3.874   0.741  13.076
 2816POPC   C1B45725  -4.435   0.457  13.010
 2816POPC   C2B45726  -4.271   0.564  12.970
 2816POPC   C3B45727  -4.107   0.671  12.931
 2816POPC   C4B45728  -3.942   0.778  12.892
 2817POPC   NC345729  12.686  -2.527  22.492
 2817POPC   PO445730  12.656  -2.386  22.353
 2817POPC   GL145731  12.626  -2.245  22.214
 2817POPC   GL245732  12.725  -2.234  22.205
 2817POPC   C1A45733  12.597  -2.104  22.075
 2817POPC   D2A45734  12.567  -1.963  21.937
 2817POPC   C3A45735  12.538  -1.822  21.798
 2817POPC   C4A45736  12.508  -1.681  21.659
 2817POPC   C1B45737  12.599  -2.244  21.933
 2817POPC   C2B45738  12.569  -2.103  21.794
 2817POPC   C3B45739  12.540  -1.962  21.655
 2817POPC   C4B45740  12.510  -1.821  21.516
 2818POPC   NC345741  -6.061  10.202   1.422
 2818POPC   PO445742  -5.883  10.202   1.514
 2818POPC   GL145743  -5.705  10.202   1.606
 2818POPC   GL245744  -5.726  10.112   1.645
 2818POPC   C1A45745  -5.528  10.201   1.698
 2818POPC   D2A45746  -5.350  10.201   1.789
 2818POPC   C3A45747  -5.173  10.200   1.881
 2818POPC   C4A45748  -4.995  10.200   1.973
 2818POPC   C1B45749  -5.445  10.114   1.538
 2818POPC   C2B45750  -5.268  10.113   1.630
 2818POPC   C3B45751  -5.090  10.113   1.721
 2818POPC   C4B45752  -4.913  10.113   1.813
 2819POPC   NC345753  16.295  11.592  -6.866
 2819POPC   PO445754  16.221  11.577  -6.681
 2819POPC   GL145755  16.147  11.562  -6.496
 2819POPC   GL245756  16.095  11.481  -6.523
 2819POPC   C1A45757  16.073  11.547  -6.311
 2819POPC   D2A45758  16.000  11.531  -6.125
 2819POPC   C3A45759  15.926  11.516  -5.940
 2819POPC   C4A45760  15.852  11.501  -5.755
 2819POPC   C1B45761  16.228  11.430  -6.259
 2819POPC   C2B45762  16.154  11.415  -6.074
 2819POPC   C3B45763  16.080  11.400  -5.888
 2819POPC   C4B45764  16.006  11.385  -5.703
 2820POPC   NC345765   2.573  13.042  26.145
 2820POPC   PO445766   2.649  13.010  25.963
 2820POPC   GL145767   2.725  12.978  25.781
 2820POPC   GL245768   2.770  13.067  25.784
 2820POPC   C1A45769   2.801  12.946  25.599
 2820POPC   D2A45770   2.876  12.913  25.416
 2820POPC   C3A45771   2.952  12.881  25.234
 2820POPC   C4A45772   3.028  12.849  25.052
 2820POPC   C1B45773   2.962  12.860  25.681
 2820POPC   C2B45774   3.037  12.828  25.499
 2820POPC   C3B45775   3.113  12.796  25.316
 2820POPC   C4B45776   3.189  12.764  25.134
 2821POPC   NC345777   7.910   8.975  27.831
 2821POPC   PO445778   7.934   8.986  27.633
 2821POPC   GL145779   7.958   8.997  27.435
 2821POPC   GL245780   8.048   9.037  27.448
 2821POPC   C1A45781   7.982   9.008  27.237
 2821POPC   D2A45782   8.005   9.018  27.038
 2821POPC   C3A45783   8.029   9.029  26.840
 2821POPC   C4A45784   8.053   9.040  26.642
 2821POPC   C1B45785   8.063   8.825  27.236
 2821POPC   C2B45786   8.087   8.836  27.038
 2821POPC   C3B45787   8.111   8.847  26.840
 2821POPC   C4B45788   8.135   8.857  26.642
 2822POPC   NC345789  10.880  23.048  -2.449
 2822POPC   PO445790  10.872  22.904  -2.310
 2822POPC   GL145791  10.864  22.760  -2.171
 2822POPC   GL245792  10.963  22.765  -2.161
 2822POPC   C1A45793  10.855  22.617  -2.032
 2822POPC   D2A45794  10.847  22.473  -1.894
 2822POPC   C3A45795  10.838  22.330  -1.755
 2822POPC   C4A45796  10.830  22.186  -1.616
 2822POPC   C1B45797  10.835  22.756  -1.890
 2822POPC   C2B45798  10.826  22.612  -1.751
 2822POPC   C3B45799  10.818  22.468  -1.612
 2822POPC   C4B45800  10.809  22.325  -1.474
 2823POPC   NC345801   6.195  27.603   8.141
 2823POPC   PO445802   6.232  27.407   8.160
 2823POPC   GL145803   6.269  27.211   8.179
 2823POPC   GL245804   6.264  27.220   8.278
 2823POPC   C1A45805   6.306  27.016   8.198
 2823POPC   D2A45806   6.343  26.820   8.217
 2823POPC   C3A45807   6.380  26.625   8.236
 2823POPC   C4A45808   6.417  26.429   8.255
 2823POPC   C1B45809   6.110  26.978   8.191
 2823POPC   C2B45810   6.147  26.782   8.210
 2823POPC   C3B45811   6.184  26.587   8.229
 2823POPC   C4B45812   6.221  26.391   8.248
 2824POPC   NC345813  23.789   2.961  19.047
 2824POPC   PO445814  23.636   3.031  18.939
 2824POPC   GL145815  23.483   3.101  18.831
 2824POPC   GL245816  23.547   3.136  18.763
 2824POPC   C1A45817  23.330   3.172  18.724
 2824POPC   D2A45818  23.176   3.242  18.616
 2824POPC   C3A45819  23.023   3.313  18.509
 2824POPC   C4A45820  22.870   3.383  18.401
 2824POPC   C1B45821  23.318   2.998  18.626
 2824POPC   C2B45822  23.165   3.068  18.519
 2824POPC   C3B45823  23.011   3.138  18.411
 2824POPC   C4B45824  22.858   3.209  18.303
 2825POPC   NC345825   0.437  23.786   3.316
 2825POPC   PO445826   0.542  23.632   3.388
 2825POPC   GL145827   0.647  23.478   3.460
 2825POPC   GL245828   0.731  23.534   3.457
 2825POPC   C1A45829   0.753  23.324   3.532
 2825POPC   D2A45830   0.858  23.171   3.605
 2825POPC   C3A45831   0.964  23.017   3.677
 2825POPC   C4A45832   1.069  22.863   3.749
 2825POPC   C1B45833   0.717  23.388   3.719
 2825POPC   C2B45834   0.823  23.234   3.791
 2825POPC   C3B45835   0.928  23.080   3.863
 2825POPC   C4B45836   1.034  22.926   3.935
 2826POPC   NC345837   7.529  -6.640  16.603
 2826POPC   PO445838   7.555  -6.456  16.529
 2826POPC   GL145839   7.581  -6.272  16.455
 2826POPC   GL245840   7.674  -6.270  16.491
 2826POPC   C1A45841   7.606  -6.088  16.380
 2826POPC   D2A45842   7.632  -5.904  16.306
 2826POPC   C3A45843   7.657  -5.720  16.231
 2826POPC   C4A45844   7.683  -5.536  16.157
 2826POPC   C1B45845   7.675  -6.167  16.210
 2826POPC   C2B45846   7.701  -5.983  16.135
 2826POPC   C3B45847   7.726  -5.799  16.061
 2826POPC   C4B45848   7.752  -5.615  15.986
 2827POPC   NC345849  -3.062  22.547   8.714
 2827POPC   PO445850  -2.923  22.404   8.727
 2827POPC   GL145851  -2.784  22.261   8.740
 2827POPC   GL245852  -2.757  22.295   8.830
 2827POPC   C1A45853  -2.645  22.118   8.753
 2827POPC   D2A45854  -2.506  21.974   8.766
 2827POPC   C3A45855  -2.367  21.831   8.779
 2827POPC   C4A45856  -2.228  21.688   8.792
 2827POPC   C1B45857  -2.778  21.996   8.840
 2827POPC   C2B45858  -2.639  21.853   8.853
 2827POPC   C3B45859  -2.500  21.710   8.866
 2827POPC   C4B45860  -2.361  21.567   8.879
 2828POPC   NC345861  23.081   9.204  -2.296
 2828POPC   PO445862  22.931   9.208  -2.163
 2828POPC   GL145863  22.781   9.212  -2.030
 2828POPC   GL245864  22.765   9.309  -2.052
 2828POPC   C1A45865  22.632   9.217  -1.898
 2828POPC   D2A45866  22.482   9.221  -1.765
 2828POPC   C3A45867  22.333   9.226  -1.633
 2828POPC   C4A45868  22.183   9.230  -1.500
 2828POPC   C1B45869  22.503   9.163  -2.041
 2828POPC   C2B45870  22.354   9.168  -1.909
 2828POPC   C3B45871  22.204   9.172  -1.776
 2828POPC   C4B45872  22.054   9.176  -1.643
 2829POPC   NC345873  20.466  -2.168   1.785
 2829POPC   PO445874  20.349  -2.034   1.877
 2829POPC   GL145875  20.232  -1.900   1.969
 2829POPC   GL245876  20.306  -1.879   2.032
 2829POPC   C1A45877  20.115  -1.767   2.061
 2829POPC   D2A45878  19.997  -1.633   2.152
 2829POPC   C3A45879  19.880  -1.500   2.244
 2829POPC   C4A45880  19.763  -1.366   2.336
 2829POPC   C1B45881  20.179  -1.624   1.936
 2829POPC   C2B45882  20.062  -1.491   2.028
 2829POPC   C3B45883  19.945  -1.357   2.120
 2829POPC   C4B45884  19.828  -1.224   2.211
 2830POPC   NC345885   8.991  -4.465  20.739
 2830POPC   PO445886   8.999  -4.305  20.619
 2830POPC   GL145887   9.007  -4.145  20.499
 2830POPC   GL245888   9.078  -4.190  20.444
 2830POPC   C1A45889   9.016  -3.986  20.378
 2830POPC   D2A45890   9.024  -3.826  20.258
 2830POPC   C3A45891   9.033  -3.667  20.137
 2830POPC   C4A45892   9.041  -3.507  20.017
 2830POPC   C1B45893   8.874  -4.066  20.262
 2830POPC   C2B45894   8.883  -3.907  20.141
 2830POPC   C3B45895   8.891  -3.747  20.021
 2830POPC   C4B45896   8.900  -3.587  19.901
 2831POPC   NC345897  21.322  -0.488  19.144
 2831POPC   PO445898  21.199  -0.370  19.039
 2831POPC   GL145899  21.076  -0.252  18.934
 2831POPC   GL245900  21.152  -0.226  18.875
 2831POPC   C1A45901  20.953  -0.134  18.829
 2831POPC   D2A45902  20.830  -0.017  18.725
 2831POPC   C3A45903  20.707   0.101  18.620
 2831POPC   C4A45904  20.584   0.219  18.515
 2831POPC   C1B45905  20.911  -0.287  18.707
 2831POPC   C2B45906  20.788  -0.169  18.602
 2831POPC   C3B45907  20.665  -0.051  18.498
 2831POPC   C4B45908  20.542   0.066  18.393
 2832POPC   NC345909  23.742  12.174  -1.312
 2832POPC   PO445910  23.587  12.154  -1.187
 2832POPC   GL145911  23.432  12.134  -1.062
 2832POPC   GL245912  23.376  12.100  -1.137
 2832POPC   C1A45913  23.278  12.114  -0.937
 2832POPC   D2A45914  23.123  12.093  -0.811
 2832POPC   C3A45915  22.969  12.073  -0.686
 2832POPC   C4A45916  22.814  12.053  -0.561
 2832POPC   C1B45917  23.336  11.927  -0.895
 2832POPC   C2B45918  23.181  11.906  -0.770
 2832POPC   C3B45919  23.026  11.886  -0.645
 2832POPC   C4B45920  22.872  11.866  -0.520
 2833POPC   NC345921  25.833  10.124   1.542
 2833POPC   PO445922  25.657  10.122   1.637
 2833POPC   GL145923  25.481  10.120   1.732
 2833POPC   GL245924  25.467  10.216   1.708
 2833POPC   C1A45925  25.305  10.118   1.827
 2833POPC   D2A45926  25.129  10.116   1.923
 2833POPC   C3A45927  24.953  10.114   2.018
 2833POPC   C4A45928  24.777  10.112   2.113
 2833POPC   C1B45929  25.214  10.063   1.658
 2833POPC   C2B45930  25.038  10.061   1.753
 2833POPC   C3B45931  24.862  10.059   1.848
 2833POPC   C4B45932  24.686  10.057   1.944
 2834POPC   NC345933  14.126  25.919   2.739
 2834POPC   PO445934  14.080  25.740   2.815
 2834POPC   GL145935  14.034  25.561   2.891
 2834POPC   GL245936  14.123  25.526   2.862
 2834POPC   C1A45937  13.987  25.382   2.967
 2834POPC   D2A45938  13.941  25.203   3.043
 2834POPC   C3A45939  13.894  25.024   3.119
 2834POPC   C4A45940  13.848  24.845   3.195
 2834POPC   C1B45941  14.065  25.436   3.143
 2834POPC   C2B45942  14.019  25.257   3.219
 2834POPC   C3B45943  13.973  25.078   3.295
 2834POPC   C4B45944  13.926  24.899   3.371
 2835POPC   NC345945  -5.028  20.035  11.853
 2835POPC   PO445946  -4.864  19.922  11.829
 2835POPC   GL145947  -4.700  19.809  11.805
 2835POPC   GL245948  -4.706  19.781  11.901
 2835POPC   C1A45949  -4.537  19.697  11.781
 2835POPC   D2A45950  -4.373  19.584  11.757
 2835POPC   C3A45951  -4.210  19.472  11.733
 2835POPC   C4A45952  -4.046  19.359  11.709
 2835POPC   C1B45953  -4.651  19.542  11.728
 2835POPC   C2B45954  -4.488  19.429  11.704
 2835POPC   C3B45955  -4.324  19.317  11.680
 2835POPC   C4B45956  -4.161  19.204  11.656
 2836POPC   NC345957  11.062  -5.645   0.967
 2836POPC   PO445958  11.049  -5.473   1.067
 2836POPC   GL145959  11.036  -5.301   1.167
 2836POPC   GL245960  11.079  -5.344   1.247
 2836POPC   C1A45961  11.024  -5.128   1.268
 2836POPC   D2A45962  11.011  -4.956   1.368
 2836POPC   C3A45963  10.999  -4.783   1.469
 2836POPC   C4A45964  10.986  -4.611   1.569
 2836POPC   C1B45965  11.205  -5.076   1.200
 2836POPC   C2B45966  11.192  -4.903   1.301
 2836POPC   C3B45967  11.179  -4.731   1.401
 2836POPC   C4B45968  11.167  -4.558   1.501
 2837POPC   NC345969   6.799  -6.714   3.821
 2837POPC   PO445970   6.833  -6.529   3.890
 2837POPC   GL145971   6.867  -6.344   3.959
 2837POPC   GL245972   6.886  -6.382   4.050
 2837POPC   C1A45973   6.902  -6.160   4.027
 2837POPC   D2A45974   6.936  -5.975   4.096
 2837POPC   C3A45975   6.971  -5.791   4.164
 2837POPC   C4A45976   7.005  -5.606   4.233
 2837POPC   C1B45977   7.095  -6.178   3.980
 2837POPC   C2B45978   7.130  -5.994   4.049
 2837POPC   C3B45979   7.164  -5.809   4.117
 2837POPC   C4B45980   7.198  -5.624   4.186
 2838POPC   NC345981  -8.043  12.420   9.294
 2838POPC   PO445982  -7.845  12.393   9.306
 2838POPC   GL145983  -7.647  12.366   9.318
 2838POPC   GL245984  -7.635  12.463   9.336
 2838POPC   C1A45985  -7.449  12.338   9.329
 2838POPC   D2A45986  -7.252  12.311   9.341
 2838POPC   C3A45987  -7.054  12.283   9.352
 2838POPC   C4A45988  -6.856  12.256   9.364
 2838POPC   C1B45989  -7.466  12.303   9.525
 2838POPC   C2B45990  -7.268  12.276   9.537
 2838POPC   C3B45991  -7.070  12.249   9.549
 2838POPC   C4B45992  -6.872  12.221   9.560
 2839POPC   NC345993  10.262   7.675  -7.956
 2839POPC   PO445994  10.262   7.702  -7.758
 2839POPC   GL145995  10.262   7.729  -7.560
 2839POPC   GL245996  10.362   7.728  -7.560
 2839POPC   C1A45997  10.262   7.756  -7.362
 2839POPC   D2A45998  10.262   7.784  -7.163
 2839POPC   C3A45999  10.262   7.811  -6.965
 2839POPC   C4A46000  10.262   7.838  -6.767
 2839POPC   C1B46001  10.264   7.955  -7.389
 2839POPC   C2B46002  10.264   7.982  -7.191
 2839POPC   C3B46003  10.264   8.009  -6.992
 2839POPC   C4B46004  10.264   8.036  -6.794
 2840POPC   NC346005  -3.612  14.760  -1.219
 2840POPC   PO446006  -3.466  14.707  -1.093
 2840POPC   GL146007  -3.320  14.654  -0.967
 2840POPC   GL246008  -3.276  14.743  -0.981
 2840POPC   C1A46009  -3.174  14.601  -0.842
 2840POPC   D2A46010  -3.027  14.547  -0.716
 2840POPC   C3A46011  -2.881  14.494  -0.591
 2840POPC   C4A46012  -2.735  14.441  -0.465
 2840POPC   C1B46013  -3.278  14.675  -0.688
 2840POPC   C2B46014  -3.132  14.622  -0.563
 2840POPC   C3B46015  -2.986  14.569  -0.437
 2840POPC   C4B46016  -2.839  14.516  -0.312
 2841POPC   NC346017  27.022   7.212  14.882
 2841POPC   PO446018  26.832   7.244  14.829
 2841POPC   GL146019  26.642   7.276  14.776
 2841POPC   GL246020  26.639   7.186  14.732
 2841POPC   C1A46021  26.452   7.308  14.723
 2841POPC   D2A46022  26.261   7.341  14.670
 2841POPC   C3A46023  26.071   7.373  14.617
 2841POPC   C4A46024  25.881   7.405  14.564
 2841POPC   C1B46025  26.390   7.226  14.895
 2841POPC   C2B46026  26.200   7.259  14.842
 2841POPC   C3B46027  26.009   7.291  14.789
 2841POPC   C4B46028  25.819   7.323  14.736
 2842POPC   NC346029   5.530  18.475  25.324
 2842POPC   PO446030   5.576  18.377  25.156
 2842POPC   GL146031   5.622  18.279  24.988
 2842POPC   GL246032   5.716  18.270  25.019
 2842POPC   C1A46033   5.667  18.181  24.820
 2842POPC   D2A46034   5.713  18.083  24.651
 2842POPC   C3A46035   5.758  17.985  24.483
 2842POPC   C4A46036   5.804  17.887  24.315
 2842POPC   C1B46037   5.622  18.008  24.908
 2842POPC   C2B46038   5.668  17.910  24.740
 2842POPC   C3B46039   5.713  17.812  24.572
 2842POPC   C4B46040   5.759  17.714  24.404
 2843POPC   NC346041  -3.616  21.020  14.650
 2843POPC   PO446042  -3.465  20.899  14.599
 2843POPC   GL146043  -3.314  20.778  14.548
 2843POPC   GL246044  -3.272  20.852  14.497
 2843POPC   C1A46045  -3.163  20.657  14.497
 2843POPC   D2A46046  -3.013  20.535  14.447
 2843POPC   C3A46047  -2.862  20.414  14.396
 2843POPC   C4A46048  -2.711  20.293  14.345
 2843POPC   C1B46049  -3.063  20.712  14.661
 2843POPC   C2B46050  -2.913  20.591  14.611
 2843POPC   C3B46051  -2.762  20.470  14.560
 2843POPC   C4B46052  -2.611  20.349  14.509
 2844POPC   NC346053  -1.185  23.971  13.161
 2844POPC   PO446054  -1.065  23.815  13.125
 2844POPC   GL146055  -0.945  23.659  13.089
 2844POPC   GL246056  -0.901  23.710  13.015
 2844POPC   C1A46057  -0.825  23.503  13.053
 2844POPC   D2A46058  -0.705  23.347  13.017
 2844POPC   C3A46059  -0.585  23.191  12.981
 2844POPC   C4A46060  -0.465  23.035  12.945
 2844POPC   C1B46061  -0.692  23.575  13.184
 2844POPC   C2B46062  -0.572  23.419  13.148
 2844POPC   C3B46063  -0.452  23.263  13.112
 2844POPC   C4B46064  -0.332  23.107  13.076
 2845POPC   NC346065   9.323  20.907  -4.403
 2845POPC   PO446066   9.327  20.782  -4.247
 2845POPC   GL146067   9.331  20.657  -4.091
 2845POPC   GL246068   9.424  20.687  -4.069
 2845POPC   C1A46069   9.335  20.531  -3.935
 2845POPC   D2A46070   9.340  20.406  -3.780
 2845POPC   C3A46071   9.344  20.280  -3.624
 2845POPC   C4A46072   9.348  20.155  -3.468
 2845POPC   C1B46073   9.261  20.675  -3.818
 2845POPC   C2B46074   9.266  20.550  -3.662
 2845POPC   C3B46075   9.270  20.424  -3.506
 2845POPC   C4B46076   9.274  20.299  -3.350
 2846POPC   NC346077  27.564   7.972   7.342
 2846POPC   PO446078  27.367   7.992   7.369
 2846POPC   GL146079  27.170   8.012   7.396
 2846POPC   GL246080  27.157   7.915   7.376
 2846POPC   C1A46081  26.973   8.032   7.422
 2846POPC   D2A46082  26.775   8.053   7.449
 2846POPC   C3A46083  26.578   8.073   7.475
 2846POPC   C4A46084  26.381   8.093   7.502
 2846POPC   C1B46085  26.995   7.991   7.617
 2846POPC   C2B46086  26.797   8.011   7.643
 2846POPC   C3B46087  26.600   8.032   7.670
 2846POPC   C4B46088  26.403   8.052   7.696
 2847POPC   NC346089   3.731  26.418  14.208
 2847POPC   PO446090   3.800  26.236  14.160
 2847POPC   GL146091   3.869  26.054  14.112
 2847POPC   GL246092   3.858  26.025  14.207
 2847POPC   C1A46093   3.937  25.873  14.064
 2847POPC   D2A46094   4.006  25.691  14.015
 2847POPC   C3A46095   4.074  25.510  13.967
 2847POPC   C4A46096   4.143  25.328  13.919
 2847POPC   C1B46097   3.751  25.813  14.025
 2847POPC   C2B46098   3.819  25.631  13.976
 2847POPC   C3B46099   3.888  25.449  13.928
 2847POPC   C4B46100   3.956  25.268  13.880
 2848POPC   NC346101   8.082  27.636   6.523
 2848POPC   PO446102   8.100  27.440   6.559
 2848POPC   GL146103   8.118  27.244   6.595
 2848POPC   GL246104   8.167  27.233   6.509
 2848POPC   C1A46105   8.136  27.048   6.630
 2848POPC   D2A46106   8.153  26.852   6.666
 2848POPC   C3A46107   8.171  26.656   6.701
 2848POPC   C4A46108   8.189  26.460   6.737
 2848POPC   C1B46109   8.308  27.081   6.726
 2848POPC   C2B46110   8.326  26.885   6.761
 2848POPC   C3B46111   8.344  26.689   6.797
 2848POPC   C4B46112   8.362  26.493   6.832
 2849POPC   NC346113   7.912  -6.097   2.012
 2849POPC   PO446114   7.934  -5.919   2.101
 2849POPC   GL146115   7.956  -5.741   2.190
 2849POPC   GL246116   8.040  -5.725   2.137
 2849POPC   C1A46117   7.978  -5.563   2.279
 2849POPC   D2A46118   8.000  -5.386   2.367
 2849POPC   C3A46119   8.022  -5.208   2.456
 2849POPC   C4A46120   8.044  -5.030   2.545
 2849POPC   C1B46121   7.871  -5.477   2.133
 2849POPC   C2B46122   7.893  -5.300   2.222
 2849POPC   C3B46123   7.915  -5.122   2.311
 2849POPC   C4B46124   7.937  -4.944   2.400
 2850POPC   NC346125  11.979   6.714  27.571
 2850POPC   PO446126  11.950   6.751  27.376
 2850POPC   GL146127  11.921   6.788  27.181
 2850POPC   GL246128  11.957   6.697  27.159
 2850POPC   C1A46129  11.893   6.824  26.987
 2850POPC   D2A46130  11.864   6.861  26.792
 2850POPC   C3A46131  11.836   6.897  26.598
 2850POPC   C4A46132  11.807   6.934  26.403
 2850POPC   C1B46133  11.708   6.749  27.000
 2850POPC   C2B46134  11.679   6.786  26.805
 2850POPC   C3B46135  11.651   6.822  26.611
 2850POPC   C4B46136  11.622   6.859  26.416
 2851POPC   NC346137   9.488   4.052  26.935
 2851POPC   PO446138   9.497   4.119  26.747
 2851POPC   GL146139   9.506   4.186  26.559
 2851POPC   GL246140   9.546   4.100  26.529
 2851POPC   C1A46141   9.514   4.254  26.371
 2851POPC   D2A46142   9.523   4.321  26.182
 2851POPC   C3A46143   9.531   4.389  25.994
 2851POPC   C4A46144   9.540   4.456  25.806
 2851POPC   C1B46145   9.331   4.181  26.336
 2851POPC   C2B46146   9.340   4.248  26.148
 2851POPC   C3B46147   9.348   4.316  25.960
 2851POPC   C4B46148   9.357   4.383  25.772
 2852POPC   NC346149  24.645  19.497  13.999
 2852POPC   PO446150  24.482  19.391  13.954
 2852POPC   GL146151  24.319  19.285  13.909
 2852POPC   GL246152  24.328  19.311  13.813
 2852POPC   C1A46153  24.156  19.178  13.864
 2852POPC   D2A46154  23.992  19.072  13.819
 2852POPC   C3A46155  23.829  18.965  13.774
 2852POPC   C4A46156  23.666  18.859  13.729
 2852POPC   C1B46157  24.270  19.017  13.831
 2852POPC   C2B46158  24.106  18.911  13.786
 2852POPC   C3B46159  23.943  18.804  13.741
 2852POPC   C4B46160  23.780  18.698  13.696
 2853POPC   NC346161  24.869   1.150  14.737
 2853POPC   PO446162  24.704   1.250  14.685
 2853POPC   GL146163  24.539   1.350  14.633
 2853POPC   GL246164  24.576   1.364  14.541
 2853POPC   C1A46165  24.373   1.449  14.580
 2853POPC   D2A46166  24.208   1.549  14.528
 2853POPC   C3A46167  24.042   1.648  14.475
 2853POPC   C4A46168  23.877   1.748  14.423
 2853POPC   C1B46169  24.290   1.278  14.518
 2853POPC   C2B46170  24.125   1.378  14.465
 2853POPC   C3B46171  23.959   1.478  14.413
 2853POPC   C4B46172  23.794   1.577  14.361
 2854POPC   NC346173   8.077  -3.622  -1.792
 2854POPC   PO446174   8.098  -3.471  -1.663
 2854POPC   GL146175   8.119  -3.320  -1.534
 2854POPC   GL246176   8.211  -3.301  -1.570
 2854POPC   C1A46177   8.141  -3.169  -1.404
 2854POPC   D2A46178   8.162  -3.018  -1.275
 2854POPC   C3A46179   8.184  -2.867  -1.145
 2854POPC   C4A46180   8.205  -2.716  -1.016
 2854POPC   C1B46181   8.061  -3.043  -1.538
 2854POPC   C2B46182   8.083  -2.892  -1.408
 2854POPC   C3B46183   8.104  -2.741  -1.279
 2854POPC   C4B46184   8.125  -2.590  -1.150
 2855POPC   NC346185  27.435   6.022   9.011
 2855POPC   PO446186  27.239   6.059   9.022
 2855POPC   GL146187  27.043   6.096   9.033
 2855POPC   GL246188  27.042   6.117   8.935
 2855POPC   C1A46189  26.847   6.134   9.043
 2855POPC   D2A46190  26.650   6.171   9.054
 2855POPC   C3A46191  26.454   6.209   9.064
 2855POPC   C4A46192  26.258   6.246   9.075
 2855POPC   C1B46193  26.808   5.942   9.003
 2855POPC   C2B46194  26.612   5.979   9.014
 2855POPC   C3B46195  26.416   6.016   9.024
 2855POPC   C4B46196  26.219   6.054   9.035
 2856POPC   NC346197  15.654  20.041  23.782
 2856POPC   PO446198  15.590  19.931  23.627
 2856POPC   GL146199  15.526  19.821  23.472
 2856POPC   GL246200  15.620  19.794  23.453
 2856POPC   C1A46201  15.462  19.711  23.318
 2856POPC   D2A46202  15.399  19.602  23.163
 2856POPC   C3A46203  15.335  19.492  23.009
 2856POPC   C4A46204  15.271  19.382  22.854
 2856POPC   C1B46205  15.441  19.553  23.439
 2856POPC   C2B46206  15.378  19.444  23.284
 2856POPC   C3B46207  15.314  19.334  23.129
 2856POPC   C4B46208  15.250  19.224  22.975
 2857POPC   NC346209  -5.166   1.620  15.337
 2857POPC   PO446210  -4.999   1.713  15.279
 2857POPC   GL146211  -4.832   1.806  15.221
 2857POPC   GL246212  -4.832   1.859  15.305
 2857POPC   C1A46213  -4.665   1.899  15.162
 2857POPC   D2A46214  -4.497   1.992  15.104
 2857POPC   C3A46215  -4.330   2.085  15.045
 2857POPC   C4A46216  -4.163   2.178  14.987
 2857POPC   C1B46217  -4.555   1.757  15.251
 2857POPC   C2B46218  -4.388   1.850  15.192
 2857POPC   C3B46219  -4.220   1.943  15.134
 2857POPC   C4B46220  -4.053   2.036  15.075
 2858POPC   NC346221  11.662  -5.102   0.178
 2858POPC   PO446222  11.642  -4.935   0.286
 2858POPC   GL146223  11.622  -4.768   0.394
 2858POPC   GL246224  11.627  -4.713   0.310
 2858POPC   C1A46225  11.602  -4.601   0.502
 2858POPC   D2A46226  11.583  -4.433   0.610
 2858POPC   C3A46227  11.563  -4.266   0.718
 2858POPC   C4A46228  11.543  -4.099   0.826
 2858POPC   C1B46229  11.404  -4.612   0.484
 2858POPC   C2B46230  11.384  -4.445   0.592
 2858POPC   C3B46231  11.364  -4.278   0.700
 2858POPC   C4B46232  11.344  -4.111   0.808
 2859POPC   NC346233  25.383  17.618   4.865
 2859POPC   PO446234  25.211  17.529   4.916
 2859POPC   GL146235  25.039  17.440   4.967
 2859POPC   GL246236  25.021  17.421   4.871
 2859POPC   C1A46237  24.868  17.351   5.018
 2859POPC   D2A46238  24.696  17.261   5.070
 2859POPC   C3A46239  24.525  17.172   5.121
 2859POPC   C4A46240  24.353  17.083   5.172
 2859POPC   C1B46241  24.964  17.176   5.035
 2859POPC   C2B46242  24.792  17.087   5.086
 2859POPC   C3B46243  24.620  16.997   5.137
 2859POPC   C4B46244  24.449  16.908   5.188
 2860POPC   NC346245  10.658  20.811  -4.460
 2860POPC   PO446246  10.649  20.687  -4.303
 2860POPC   GL146247  10.640  20.563  -4.146
 2860POPC   GL246248  10.727  20.601  -4.112
 2860POPC   C1A46249  10.632  20.440  -3.989
 2860POPC   D2A46250  10.623  20.316  -3.832
 2860POPC   C3A46251  10.615  20.193  -3.675
 2860POPC   C4A46252  10.606  20.069  -3.518
 2860POPC   C1B46253  10.531  20.578  -3.886
 2860POPC   C2B46254  10.522  20.455  -3.729
 2860POPC   C3B46255  10.514  20.331  -3.572
 2860POPC   C4B46256  10.505  20.207  -3.415
 2861POPC   NC346257  12.793  27.498   6.774
 2861POPC   PO446258  12.759  27.305   6.812
 2861POPC   GL146259  12.725  27.112   6.850
 2861POPC   GL246260  12.818  27.102   6.885
 2861POPC   C1A46261  12.691  26.918   6.888
 2861POPC   D2A46262  12.658  26.725   6.927
 2861POPC   C3A46263  12.624  26.531   6.965
 2861POPC   C4A46264  12.590  26.338   7.003
 2861POPC   C1B46265  12.628  26.966   7.072
 2861POPC   C2B46266  12.594  26.772   7.110
 2861POPC   C3B46267  12.560  26.579   7.148
 2861POPC   C4B46268  12.526  26.385   7.187
 2862POPC   NC346269  11.554  -7.436  14.370
 2862POPC   PO446270  11.533  -7.243  14.324
 2862POPC   GL146271  11.512  -7.050  14.278
 2862POPC   GL246272  11.589  -7.056  14.214
 2862POPC   C1A46273  11.491  -6.856  14.231
 2862POPC   D2A46274  11.470  -6.663  14.185
 2862POPC   C3A46275  11.449  -6.469  14.138
 2862POPC   C4A46276  11.428  -6.276  14.092
 2862POPC   C1B46277  11.365  -6.905  14.084
 2862POPC   C2B46278  11.344  -6.712  14.038
 2862POPC   C3B46279  11.323  -6.518  13.991
 2862POPC   C4B46280  11.302  -6.325  13.945
 2863POPC   NC346281  14.263   0.895  -5.047
 2863POPC   PO446282  14.220   0.998  -4.881
 2863POPC   GL146283  14.177   1.101  -4.715
 2863POPC   GL246284  14.275   1.110  -4.695
 2863POPC   C1A46285  14.134   1.204  -4.549
 2863POPC   D2A46286  14.091   1.308  -4.384
 2863POPC   C3A46287  14.048   1.411  -4.218
 2863POPC   C4A46288  14.005   1.514  -4.052
 2863POPC   C1B46289  14.140   1.375  -4.654
 2863POPC   C2B46290  14.097   1.478  -4.488
 2863POPC   C3B46291  14.054   1.581  -4.322
 2863POPC   C4B46292  14.011   1.685  -4.156
 2864POPC   NC346293  13.151   0.368  24.865
 2864POPC   PO446294  13.115   0.480  24.703
 2864POPC   GL146295  13.079   0.592  24.541
 2864POPC   GL246296  13.178   0.600  24.525
 2864POPC   C1A46297  13.044   0.704  24.379
 2864POPC   D2A46298  13.008   0.816  24.218
 2864POPC   C3A46299  12.973   0.928  24.056
 2864POPC   C4A46300  12.937   1.040  23.894
 2864POPC   C1B46301  13.039   0.539  24.266
 2864POPC   C2B46302  13.003   0.651  24.105
 2864POPC   C3B46303  12.967   0.763  23.943
 2864POPC   C4B46304  12.932   0.875  23.781
 2865POPC   NC346305  12.128  -6.550  16.947
 2865POPC   PO446306  12.099  -6.367  16.871
 2865POPC   GL146307  12.070  -6.184  16.795
 2865POPC   GL246308  12.093  -6.144  16.884
 2865POPC   C1A46309  12.042  -6.001  16.720
 2865POPC   D2A46310  12.013  -5.818  16.644
 2865POPC   C3A46311  11.985  -5.635  16.569
 2865POPC   C4A46312  11.956  -5.452  16.493
 2865POPC   C1B46313  12.234  -5.993  16.666
 2865POPC   C2B46314  12.206  -5.810  16.591
 2865POPC   C3B46315  12.177  -5.627  16.515
 2865POPC   C4B46316  12.149  -5.444  16.439
 2866POPC   NC346317  -3.394   8.805  22.133
 2866POPC   PO446318  -3.246   8.814  21.998
 2866POPC   GL146319  -3.098   8.823  21.863
 2866POPC   GL246320  -3.032   8.803  21.935
 2866POPC   C1A46321  -2.951   8.832  21.729
 2866POPC   D2A46322  -2.803   8.842  21.594
 2866POPC   C3A46323  -2.656   8.851  21.460
 2866POPC   C4A46324  -2.508   8.860  21.325
 2866POPC   C1B46325  -2.972   8.637  21.693
 2866POPC   C2B46326  -2.824   8.646  21.558
 2866POPC   C3B46327  -2.676   8.655  21.423
 2866POPC   C4B46328  -2.529   8.664  21.289
 2867POPC   NC346329   9.166  20.477  -4.733
 2867POPC   PO446330   9.172  20.356  -4.574
 2867POPC   GL146331   9.178  20.235  -4.415
 2867POPC   GL246332   9.277  20.245  -4.411
 2867POPC   C1A46333   9.183  20.115  -4.255
 2867POPC   D2A46334   9.189  19.994  -4.096
 2867POPC   C3A46335   9.194  19.874  -3.936
 2867POPC   C4A46336   9.200  19.753  -3.777
 2867POPC   C1B46337   9.162  20.273  -4.135
 2867POPC   C2B46338   9.168  20.153  -3.975
 2867POPC   C3B46339   9.174  20.032  -3.816
 2867POPC   C4B46340   9.179  19.911  -3.657
 2868POPC   NC346341  16.881  14.741  25.917
 2868POPC   PO446342  16.802  14.684  25.742
 2868POPC   GL146343  16.723  14.627  25.567
 2868POPC   GL246344  16.748  14.532  25.587
 2868POPC   C1A46345  16.643  14.570  25.393
 2868POPC   D2A46346  16.564  14.513  25.218
 2868POPC   C3A46347  16.484  14.456  25.044
 2868POPC   C4A46348  16.405  14.399  24.869
 2868POPC   C1B46349  16.467  14.541  25.483
 2868POPC   C2B46350  16.388  14.484  25.308
 2868POPC   C3B46351  16.308  14.427  25.133
 2868POPC   C4B46352  16.229  14.370  24.959
 2869POPC   NC346353  -0.704  -2.500  17.625
 2869POPC   PO446354  -0.588  -2.362  17.538
 2869POPC   GL146355  -0.472  -2.224  17.451
 2869POPC   GL246356  -0.465  -2.175  17.537
 2869POPC   C1A46357  -0.356  -2.087  17.363
 2869POPC   D2A46358  -0.241  -1.949  17.276
 2869POPC   C3A46359  -0.125  -1.812  17.188
 2869POPC   C4A46360  -0.009  -1.674  17.101
 2869POPC   C1B46361  -0.194  -2.193  17.411
 2869POPC   C2B46362  -0.078  -2.056  17.324
 2869POPC   C3B46363   0.038  -1.918  17.236
 2869POPC   C4B46364   0.153  -1.780  17.149
 2870POPC   NC346365   2.786   6.105  -6.256
 2870POPC   PO446366   2.864   6.146  -6.077
 2870POPC   GL146367   2.942   6.187  -5.898
 2870POPC   GL246368   2.862   6.146  -5.854
 2870POPC   C1A46369   3.020   6.229  -5.718
 2870POPC   D2A46370   3.097   6.270  -5.539
 2870POPC   C3A46371   3.175   6.312  -5.359
 2870POPC   C4A46372   3.253   6.353  -5.180
 2870POPC   C1B46373   3.112   6.052  -5.718
 2870POPC   C2B46374   3.190   6.093  -5.538
 2870POPC   C3B46375   3.268   6.134  -5.359
 2870POPC   C4B46376   3.346   6.176  -5.179
 2871POPC   NC346377  24.547   1.282  15.890
 2871POPC   PO446378  24.384   1.380  15.827
 2871POPC   GL146379  24.221   1.478  15.764
 2871POPC   GL246380  24.276   1.523  15.693
 2871POPC   C1A46381  24.058   1.576  15.701
 2871POPC   D2A46382  23.896   1.673  15.639
 2871POPC   C3A46383  23.733   1.771  15.576
 2871POPC   C4A46384  23.570   1.869  15.513
 2871POPC   C1B46385  24.018   1.426  15.575
 2871POPC   C2B46386  23.855   1.524  15.512
 2871POPC   C3B46387  23.692   1.622  15.449
 2871POPC   C4B46388  23.529   1.720  15.386
 2872POPC   NC346389  -5.331  16.037   2.404
 2872POPC   PO446390  -5.161  15.968   2.483
 2872POPC   GL146391  -4.991  15.899   2.562
 2872POPC   GL246392  -5.005  15.957   2.643
 2872POPC   C1A46393  -4.821  15.830   2.642
 2872POPC   D2A46394  -4.650  15.762   2.721
 2872POPC   C3A46395  -4.480  15.693   2.801
 2872POPC   C4A46396  -4.310  15.624   2.880
 2872POPC   C1B46397  -4.922  15.682   2.730
 2872POPC   C2B46398  -4.752  15.614   2.810
 2872POPC   C3B46399  -4.581  15.545   2.889
 2872POPC   C4B46400  -4.411  15.476   2.969
 2873POPC   NC346401  16.439  14.464  26.191
 2873POPC   PO446402  16.367  14.411  26.012
 2873POPC   GL146403  16.295  14.358  25.833
 2873POPC   GL246404  16.295  14.454  25.805
 2873POPC   C1A46405  16.223  14.306  25.654
 2873POPC   D2A46406  16.150  14.253  25.475
 2873POPC   C3A46407  16.078  14.201  25.296
 2873POPC   C4A46408  16.006  14.148  25.117
 2873POPC   C1B46409  16.409  14.285  25.585
 2873POPC   C2B46410  16.337  14.232  25.406
 2873POPC   C3B46411  16.265  14.180  25.227
 2873POPC   C4B46412  16.192  14.127  25.048
 2874POPC   NC346413  -3.519  -2.076  11.319
 2874POPC   PO446414  -3.372  -1.941  11.304
 2874POPC   GL146415  -3.225  -1.806  11.289
 2874POPC   GL246416  -3.173  -1.855  11.359
 2874POPC   C1A46417  -3.078  -1.671  11.274
 2874POPC   D2A46418  -2.932  -1.536  11.260
 2874POPC   C3A46419  -2.785  -1.401  11.245
 2874POPC   C4A46420  -2.638  -1.266  11.230
 2874POPC   C1B46421  -2.991  -1.781  11.132
 2874POPC   C2B46422  -2.845  -1.646  11.117
 2874POPC   C3B46423  -2.698  -1.511  11.102
 2874POPC   C4B46424  -2.551  -1.376  11.087
 2875POPC   NC346425  -7.059   4.785  13.290
 2875POPC   PO446426  -6.871   4.843  13.254
 2875POPC   GL146427  -6.683   4.901  13.218
 2875POPC   GL246428  -6.672   4.925  13.314
 2875POPC   C1A46429  -6.495   4.959  13.182
 2875POPC   D2A46430  -6.307   5.018  13.145
 2875POPC   C3A46431  -6.119   5.076  13.109
 2875POPC   C4A46432  -5.931   5.134  13.073
 2875POPC   C1B46433  -6.430   4.774  13.220
 2875POPC   C2B46434  -6.242   4.832  13.184
 2875POPC   C3B46435  -6.054   4.891  13.148
 2875POPC   C4B46436  -5.866   4.949  13.112
 2876POPC   NC346437  -2.306  -1.258   2.636
 2876POPC   PO446438  -2.169  -1.135   2.714
 2876POPC   GL146439  -2.032  -1.012   2.792
 2876POPC   GL246440  -1.968  -1.088   2.799
 2876POPC   C1A46441  -1.895  -0.889   2.870
 2876POPC   D2A46442  -1.757  -0.766   2.947
 2876POPC   C3A46443  -1.620  -0.643   3.025
 2876POPC   C4A46444  -1.483  -0.520   3.103
 2876POPC   C1B46445  -1.826  -0.849   2.686
 2876POPC   C2B46446  -1.689  -0.726   2.764
 2876POPC   C3B46447  -1.552  -0.603   2.842
 2876POPC   C4B46448  -1.415  -0.480   2.919
 2877POPC   NC346449   8.926  11.582  27.877
 2877POPC   PO446450   8.946  11.564  27.679
 2877POPC   GL146451   8.966  11.546  27.481
 2877POPC   GL246452   8.980  11.447  27.491
 2877POPC   C1A46453   8.987  11.528  27.283
 2877POPC   D2A46454   9.007  11.510  27.084
 2877POPC   C3A46455   9.028  11.492  26.886
 2877POPC   C4A46456   9.048  11.474  26.688
 2877POPC   C1B46457   8.790  11.500  27.265
 2877POPC   C2B46458   8.810  11.482  27.067
 2877POPC   C3B46459   8.830  11.464  26.868
 2877POPC   C4B46460   8.851  11.446  26.670
 2878POPC   NC346461  -7.425   5.780  12.795
 2878POPC   PO446462  -7.233   5.828  12.763
 2878POPC   GL146463  -7.041   5.876  12.731
 2878POPC   GL246464  -7.026   5.881  12.830
 2878POPC   C1A46465  -6.850   5.924  12.699
 2878POPC   D2A46466  -6.658   5.971  12.668
 2878POPC   C3A46467  -6.467   6.019  12.636
 2878POPC   C4A46468  -6.275   6.067  12.604
 2878POPC   C1B46469  -6.801   5.730  12.702
 2878POPC   C2B46470  -6.610   5.777  12.670
 2878POPC   C3B46471  -6.418   5.825  12.638
 2878POPC   C4B46472  -6.226   5.873  12.606
 2879POPC   NC346473  -7.134  14.718   6.305
 2879POPC   PO446474  -6.946  14.667   6.349
 2879POPC   GL146475  -6.758  14.616   6.393
 2879POPC   GL246476  -6.767  14.658   6.483
 2879POPC   C1A46477  -6.570  14.564   6.438
 2879POPC   D2A46478  -6.381  14.513   6.482
 2879POPC   C3A46479  -6.193  14.461   6.527
 2879POPC   C4A46480  -6.005  14.410   6.571
 2879POPC   C1B46481  -6.635  14.391   6.514
 2879POPC   C2B46482  -6.447  14.340   6.558
 2879POPC   C3B46483  -6.258  14.288   6.602
 2879POPC   C4B46484  -6.070  14.237   6.647
 2880POPC   NC346485  24.728   0.169  12.924
 2880POPC   PO446486  24.565   0.280  12.889
 2880POPC   GL146487  24.402   0.391  12.854
 2880POPC   GL246488  24.388   0.343  12.768
 2880POPC   C1A46489  24.240   0.502  12.819
 2880POPC   D2A46490  24.077   0.613  12.783
 2880POPC   C3A46491  23.915   0.724  12.748
 2880POPC   C4A46492  23.752   0.835  12.713
 2880POPC   C1B46493  24.127   0.367  12.913
 2880POPC   C2B46494  23.964   0.478  12.878
 2880POPC   C3B46495  23.802   0.589  12.843
 2880POPC   C4B46496  23.639   0.700  12.808
 2881POPC   NC346497  17.191  25.140   3.426
 2881POPC   PO446498  17.114  24.970   3.498
 2881POPC   GL146499  17.037  24.800   3.570
 2881POPC   GL246500  17.114  24.791   3.633
 2881POPC   C1A46501  16.959  24.630   3.642
 2881POPC   D2A46502  16.882  24.461   3.714
 2881POPC   C3A46503  16.804  24.291   3.786
 2881POPC   C4A46504  16.727  24.121   3.858
 2881POPC   C1B46505  16.859  24.735   3.780
 2881POPC   C2B46506  16.782  24.565   3.852
 2881POPC   C3B46507  16.704  24.395   3.924
 2881POPC   C4B46508  16.627  24.225   3.996
 2882POPC   NC346509   2.433  25.931   5.980
 2882POPC   PO446510   2.525  25.759   6.023
 2882POPC   GL146511   2.617  25.587   6.066
 2882POPC   GL246512   2.689  25.637   6.114
 2882POPC   C1A46513   2.709  25.414   6.109
 2882POPC   D2A46514   2.801  25.242   6.152
 2882POPC   C3A46515   2.893  25.069   6.195
 2882POPC   C4A46516   2.985  24.897   6.238
 2882POPC   C1B46517   2.604  25.401   6.279
 2882POPC   C2B46518   2.696  25.228   6.322
 2882POPC   C3B46519   2.788  25.056   6.365
 2882POPC   C4B46520   2.880  24.883   6.408
 2883POPC   NC346521  14.249  25.623   2.148
 2883POPC   PO446522  14.201  25.447   2.230
 2883POPC   GL146523  14.153  25.271   2.312
 2883POPC   GL246524  14.250  25.245   2.312
 2883POPC   C1A46525  14.106  25.095   2.395
 2883POPC   D2A46526  14.058  24.919   2.477
 2883POPC   C3A46527  14.011  24.743   2.560
 2883POPC   C4A46528  13.963  24.567   2.642
 2883POPC   C1B46529  14.128  25.174   2.577
 2883POPC   C2B46530  14.080  24.998   2.659
 2883POPC   C3B46531  14.033  24.822   2.742
 2883POPC   C4B46532  13.985  24.646   2.824
 2884POPC   NC346533  26.617  14.350   4.678
 2884POPC   PO446534  26.432  14.301   4.736
 2884POPC   GL146535  26.247  14.252   4.794
 2884POPC   GL246536  26.213  14.340   4.761
 2884POPC   C1A46537  26.062  14.202   4.852
 2884POPC   D2A46538  25.877  14.153   4.909
 2884POPC   C3A46539  25.692  14.103   4.967
 2884POPC   C4A46540  25.507  14.054   5.025
 2884POPC   C1B46541  26.027  14.121   4.672
 2884POPC   C2B46542  25.842  14.072   4.730
 2884POPC   C3B46543  25.657  14.022   4.788
 2884POPC   C4B46544  25.472  13.973   4.846
 2885POPC   NC346545  27.253  13.924  12.580
 2885POPC   PO446546  27.060  13.882  12.551
 2885POPC   GL146547  26.867  13.840  12.522
 2885POPC   GL246548  26.888  13.808  12.429
 2885POPC   C1A46549  26.673  13.798  12.492
 2885POPC   D2A46550  26.480  13.757  12.463
 2885POPC   C3A46551  26.286  13.715  12.433
 2885POPC   C4A46552  26.093  13.673  12.404
 2885POPC   C1B46553  26.702  13.613  12.562
 2885POPC   C2B46554  26.509  13.572  12.533
 2885POPC   C3B46555  26.316  13.530  12.504
 2885POPC   C4B46556  26.122  13.488  12.474
 2886POPC   NC346557   6.729  23.771  21.128
 2886POPC   PO446558   6.767  23.623  20.999
 2886POPC   GL146559   6.805  23.475  20.870
 2886POPC   GL246560   6.827  23.542  20.799
 2886POPC   C1A46561   6.842  23.327  20.741
 2886POPC   D2A46562   6.880  23.179  20.612
 2886POPC   C3A46563   6.917  23.031  20.483
 2886POPC   C4A46564   6.955  22.883  20.354
 2886POPC   C1B46565   7.033  23.325  20.799
 2886POPC   C2B46566   7.071  23.177  20.670
 2886POPC   C3B46567   7.109  23.029  20.541
 2886POPC   C4B46568   7.146  22.881  20.412
 2887POPC   NC346569  11.382  -6.982   3.779
 2887POPC   PO446570  11.368  -6.795   3.849
 2887POPC   GL146571  11.354  -6.608   3.919
 2887POPC   GL246572  11.399  -6.574   3.836
 2887POPC   C1A46573  11.340  -6.421   3.989
 2887POPC   D2A46574  11.325  -6.235   4.059
 2887POPC   C3A46575  11.311  -6.048   4.129
 2887POPC   C4A46576  11.297  -5.861   4.199
 2887POPC   C1B46577  11.161  -6.402   3.900
 2887POPC   C2B46578  11.147  -6.215   3.970
 2887POPC   C3B46579  11.133  -6.028   4.040
 2887POPC   C4B46580  11.119  -5.841   4.110
 2888POPC   NC346581   4.224  -5.800  16.695
 2888POPC   PO446582   4.289  -5.626  16.621
 2888POPC   GL146583   4.354  -5.452  16.547
 2888POPC   GL246584   4.439  -5.462  16.599
 2888POPC   C1A46585   4.419  -5.278  16.473
 2888POPC   D2A46586   4.485  -5.104  16.400
 2888POPC   C3A46587   4.550  -4.930  16.326
 2888POPC   C4A46588   4.615  -4.756  16.252
 2888POPC   C1B46589   4.503  -5.374  16.319
 2888POPC   C2B46590   4.568  -5.200  16.246
 2888POPC   C3B46591   4.633  -5.026  16.172
 2888POPC   C4B46592   4.698  -4.852  16.098
 2889POPC   NC346593   2.229  -3.956  18.510
 2889POPC   PO446594   2.314  -3.802  18.416
 2889POPC   GL146595   2.399  -3.648  18.322
 2889POPC   GL246596   2.428  -3.610  18.410
 2889POPC   C1A46597   2.484  -3.493  18.227
 2889POPC   D2A46598   2.570  -3.339  18.133
 2889POPC   C3A46599   2.655  -3.184  18.038
 2889POPC   C4A46600   2.740  -3.030  17.944
 2889POPC   C1B46601   2.656  -3.595  18.215
 2889POPC   C2B46602   2.741  -3.441  18.121
 2889POPC   C3B46603   2.826  -3.286  18.026
 2889POPC   C4B46604   2.912  -3.132  17.932
 2890POPC   NC346605   7.646  13.064  -7.736
 2890POPC   PO446606   7.669  13.031  -7.540
 2890POPC   GL146607   7.692  12.998  -7.344
 2890POPC   GL246608   7.789  12.977  -7.359
 2890POPC   C1A46609   7.716  12.965  -7.148
 2890POPC   D2A46610   7.739  12.933  -6.952
 2890POPC   C3A46611   7.763  12.900  -6.756
 2890POPC   C4A46612   7.786  12.867  -6.560
 2890POPC   C1B46613   7.762  13.158  -7.121
 2890POPC   C2B46614   7.785  13.125  -6.925
 2890POPC   C3B46615   7.809  13.093  -6.729
 2890POPC   C4B46616   7.832  13.060  -6.533
 2891POPC   NC346617   9.079   5.655  27.427
 2891POPC   PO446618   9.091   5.709  27.235
 2891POPC   GL146619   9.103   5.763  27.043
 2891POPC   GL246620   9.196   5.728  27.039
 2891POPC   C1A46621   9.115   5.816  26.850
 2891POPC   D2A46622   9.126   5.870  26.658
 2891POPC   C3A46623   9.138   5.923  26.465
 2891POPC   C4A46624   9.150   5.977  26.273
 2891POPC   C1B46625   9.045   5.637  26.796
 2891POPC   C2B46626   9.057   5.690  26.604
 2891POPC   C3B46627   9.069   5.744  26.411
 2891POPC   C4B46628   9.081   5.797  26.219
 2892POPC   NC346629  26.070   2.652   6.975
 2892POPC   PO446630  25.891   2.735   7.006
 2892POPC   GL146631  25.712   2.818   7.037
 2892POPC   GL246632  25.680   2.782   6.950
 2892POPC   C1A46633  25.533   2.901   7.069
 2892POPC   D2A46634  25.353   2.984   7.100
 2892POPC   C3A46635  25.174   3.067   7.132
 2892POPC   C4A46636  24.995   3.150   7.163
 2892POPC   C1B46637  25.471   2.734   7.161
 2892POPC   C2B46638  25.292   2.817   7.192
 2892POPC   C3B46639  25.113   2.900   7.224
 2892POPC   C4B46640  24.934   2.983   7.255
 2893POPC   NC346641  24.873  16.272   2.079
 2893POPC   PO446642  24.707  16.204   2.168
 2893POPC   GL146643  24.541  16.136   2.257
 2893POPC   GL246644  24.590  16.052   2.283
 2893POPC   C1A46645  24.376  16.067   2.346
 2893POPC   D2A46646  24.210  15.999   2.434
 2893POPC   C3A46647  24.045  15.930   2.523
 2893POPC   C4A46648  23.879  15.862   2.612
 2893POPC   C1B46649  24.432  16.154   2.517
 2893POPC   C2B46650  24.266  16.085   2.606
 2893POPC   C3B46651  24.101  16.017   2.695
 2893POPC   C4B46652  23.935  15.949   2.783
 2894POPC   NC346653  -1.593  18.721  -1.013
 2894POPC   PO446654  -1.465  18.625  -0.893
 2894POPC   GL146655  -1.337  18.529  -0.773
 2894POPC   GL246656  -1.266  18.596  -0.794
 2894POPC   C1A46657  -1.209  18.433  -0.652
 2894POPC   D2A46658  -1.082  18.338  -0.532
 2894POPC   C3A46659  -0.954  18.242  -0.411
 2894POPC   C4A46660  -0.826  18.146  -0.291
 2894POPC   C1B46661  -1.269  18.547  -0.499
 2894POPC   C2B46662  -1.141  18.451  -0.378
 2894POPC   C3B46663  -1.014  18.355  -0.258
 2894POPC   C4B46664  -0.886  18.259  -0.137
 2895POPC   NC346665  21.700  19.770   0.507
 2895POPC   PO446666  21.571  19.656   0.609
 2895POPC   GL146667  21.442  19.542   0.711
 2895POPC   GL246668  21.407  19.505   0.625
 2895POPC   C1A46669  21.312  19.429   0.813
 2895POPC   D2A46670  21.183  19.315   0.914
 2895POPC   C3A46671  21.053  19.202   1.016
 2895POPC   C4A46672  20.924  19.088   1.118
 2895POPC   C1B46673  21.448  19.282   0.821
 2895POPC   C2B46674  21.318  19.168   0.923
 2895POPC   C3B46675  21.189  19.055   1.025
 2895POPC   C4B46676  21.060  18.941   1.127
 2896POPC   NC346677  15.420  -5.611  17.106
 2896POPC   PO446678  15.358  -5.437  17.029
 2896POPC   GL146679  15.296  -5.263  16.952
 2896POPC   GL246680  15.388  -5.226  16.962
 2896POPC   C1A46681  15.233  -5.089  16.875
 2896POPC   D2A46682  15.171  -4.916  16.799
 2896POPC   C3A46683  15.108  -4.742  16.722
 2896POPC   C4A46684  15.046  -4.568  16.645
 2896POPC   C1B46685  15.279  -5.154  16.692
 2896POPC   C2B46686  15.217  -4.980  16.615
 2896POPC   C3B46687  15.155  -4.806  16.538
 2896POPC   C4B46688  15.092  -4.632  16.461
 2897POPC   NC346689  27.656  10.500  12.592
 2897POPC   PO446690  27.458  10.494  12.567
 2897POPC   GL146691  27.260  10.488  12.542
 2897POPC   GL246692  27.258  10.587  12.533
 2897POPC   C1A46693  27.062  10.482  12.516
 2897POPC   D2A46694  26.863  10.475  12.491
 2897POPC   C3A46695  26.665  10.469  12.465
 2897POPC   C4A46696  26.467  10.463  12.440
 2897POPC   C1B46697  27.087  10.465  12.319
 2897POPC   C2B46698  26.889  10.459  12.293
 2897POPC   C3B46699  26.691  10.453  12.268
 2897POPC   C4B46700  26.493  10.447  12.242
 2898POPC   NC346701  23.752   8.174  21.285
 2898POPC   PO446702  23.597   8.197  21.161
 2898POPC   GL146703  23.442   8.220  21.037
 2898POPC   GL246704  23.472   8.313  21.016
 2898POPC   C1A46705  23.286   8.243  20.913
 2898POPC   D2A46706  23.131   8.267  20.790
 2898POPC   C3A46707  22.975   8.290  20.666
 2898POPC   C4A46708  22.820   8.313  20.542
 2898POPC   C1B46709  23.397   8.174  20.762
 2898POPC   C2B46710  23.241   8.197  20.638
 2898POPC   C3B46711  23.086   8.220  20.514
 2898POPC   C4B46712  22.930   8.243  20.391
 2899POPC   NC346713  21.217  -1.113  18.519
 2899POPC   PO446714  21.094  -0.988  18.422
 2899POPC   GL146715  20.971  -0.863  18.325
 2899POPC   GL246716  21.042  -0.793  18.326
 2899POPC   C1A46717  20.849  -0.739  18.228
 2899POPC   D2A46718  20.726  -0.614  18.130
 2899POPC   C3A46719  20.604  -0.490  18.033
 2899POPC   C4A46720  20.481  -0.365  17.936
 2899POPC   C1B46721  20.919  -0.807  18.053
 2899POPC   C2B46722  20.796  -0.682  17.956
 2899POPC   C3B46723  20.673  -0.557  17.858
 2899POPC   C4B46724  20.551  -0.433  17.761
 2900POPC   NC346725  11.923   4.814  -7.220
 2900POPC   PO446726  11.904   4.873  -7.030
 2900POPC   GL146727  11.885   4.932  -6.840
 2900POPC   GL246728  11.883   5.027  -6.870
 2900POPC   C1A46729  11.867   4.991  -6.650
 2900POPC   D2A46730  11.848   5.050  -6.459
 2900POPC   C3A46731  11.830   5.109  -6.269
 2900POPC   C4A46732  11.811   5.168  -6.079
 2900POPC   C1B46733  11.668   4.980  -6.666
 2900POPC   C2B46734  11.649   5.039  -6.475
 2900POPC   C3B46735  11.631   5.098  -6.285
 2900POPC   C4B46736  11.612   5.157  -6.095
 2901POPC   NC346737  18.157   0.376  22.765
 2901POPC   PO446738  18.063   0.482  22.624
 2901POPC   GL146739  17.969   0.588  22.483
 2901POPC   GL246740  18.006   0.528  22.413
 2901POPC   C1A46741  17.875   0.694  22.342
 2901POPC   D2A46742  17.780   0.801  22.202
 2901POPC   C3A46743  17.686   0.907  22.061
 2901POPC   C4A46744  17.592   1.013  21.920
 2901POPC   C1B46745  17.715   0.575  22.360
 2901POPC   C2B46746  17.621   0.682  22.219
 2901POPC   C3B46747  17.526   0.788  22.078
 2901POPC   C4B46748  17.432   0.894  21.937
 2902POPC   NC346749   5.845   9.569  -7.657
 2902POPC   PO446750   5.888   9.574  -7.462
 2902POPC   GL146751   5.931   9.579  -7.267
 2902POPC   GL246752   5.844   9.534  -7.247
 2902POPC   C1A46753   5.974   9.583  -7.072
 2902POPC   D2A46754   6.018   9.588  -6.876
 2902POPC   C3A46755   6.061   9.592  -6.681
 2902POPC   C4A46756   6.104   9.597  -6.486
 2902POPC   C1B46757   6.063   9.404  -7.087
 2902POPC   C2B46758   6.106   9.409  -6.892
 2902POPC   C3B46759   6.149   9.414  -6.697
 2902POPC   C4B46760   6.192   9.418  -6.501
 2903POPC   NC346761  18.643  -5.360  13.500
 2903POPC   PO446762  18.545  -5.190  13.461
 2903POPC   GL146763  18.447  -5.020  13.422
 2903POPC   GL246764  18.490  -5.016  13.332
 2903POPC   C1A46765  18.349  -4.850  13.383
 2903POPC   D2A46766  18.252  -4.679  13.345
 2903POPC   C3A46767  18.154  -4.509  13.306
 2903POPC   C4A46768  18.056  -4.339  13.267
 2903POPC   C1B46769  18.197  -4.955  13.308
 2903POPC   C2B46770  18.099  -4.784  13.269
 2903POPC   C3B46771  18.001  -4.614  13.230
 2903POPC   C4B46772  17.904  -4.444  13.191
 2904POPC   NC346773  22.996   0.673  18.232
 2904POPC   PO446774  22.852   0.776  18.139
 2904POPC   GL146775  22.708   0.879  18.046
 2904POPC   GL246776  22.760   0.963  18.059
 2904POPC   C1A46777  22.563   0.982  17.954
 2904POPC   D2A46778  22.419   1.085  17.861
 2904POPC   C3A46779  22.274   1.188  17.769
 2904POPC   C4A46780  22.130   1.291  17.676
 2904POPC   C1B46781  22.654   0.952  17.778
 2904POPC   C2B46782  22.510   1.055  17.686
 2904POPC   C3B46783  22.366   1.158  17.593
 2904POPC   C4B46784  22.221   1.261  17.501
 2905POPC   NC346785  22.999  13.329  21.791
 2905POPC   PO446786  22.859  13.289  21.654
 2905POPC   GL146787  22.719  13.249  21.517
 2905POPC   GL246788  22.770  13.301  21.449
 2905POPC   C1A46789  22.578  13.208  21.381
 2905POPC   D2A46790  22.438  13.168  21.244
 2905POPC   C3A46791  22.297  13.127  21.108
 2905POPC   C4A46792  22.157  13.087  20.971
 2905POPC   C1B46793  22.677  13.042  21.328
 2905POPC   C2B46794  22.536  13.002  21.192
 2905POPC   C3B46795  22.396  12.961  21.055
 2905POPC   C4B46796  22.255  12.921  20.919
 2906POPC   NC346797   4.536   2.789  25.624
 2906POPC   PO446798   4.587   2.866  25.446
 2906POPC   GL146799   4.638   2.943  25.268
 2906POPC   GL246800   4.651   2.850  25.232
 2906POPC   C1A46801   4.689   3.019  25.091
 2906POPC   D2A46802   4.741   3.096  24.913
 2906POPC   C3A46803   4.792   3.172  24.736
 2906POPC   C4A46804   4.843   3.249  24.558
 2906POPC   C1B46805   4.498   3.015  25.034
 2906POPC   C2B46806   4.549   3.091  24.856
 2906POPC   C3B46807   4.600   3.168  24.678
 2906POPC   C4B46808   4.651   3.244  24.501
 2907POPC   NC346809  23.372  21.533  12.870
 2907POPC   PO446810  23.224  21.404  12.834
 2907POPC   GL146811  23.076  21.275  12.798
 2907POPC   GL246812  23.126  21.203  12.847
 2907POPC   C1A46813  22.928  21.145  12.761
 2907POPC   D2A46814  22.779  21.016  12.725
 2907POPC   C3A46815  22.631  20.886  12.688
 2907POPC   C4A46816  22.483  20.757  12.652
 2907POPC   C1B46817  22.838  21.200  12.932
 2907POPC   C2B46818  22.690  21.070  12.895
 2907POPC   C3B46819  22.542  20.941  12.859
 2907POPC   C4B46820  22.394  20.811  12.822
 2908POPC   NC346821   3.272  -1.396  -2.376
 2908POPC   PO446822   3.352  -1.271  -2.242
 2908POPC   GL146823   3.432  -1.146  -2.108
 2908POPC   GL246824   3.371  -1.183  -2.037
 2908POPC   C1A46825   3.512  -1.022  -1.973
 2908POPC   D2A46826   3.592  -0.897  -1.839
 2908POPC   C3A46827   3.672  -0.773  -1.704
 2908POPC   C4A46828   3.752  -0.648  -1.570
 2908POPC   C1B46829   3.649  -1.160  -1.926
 2908POPC   C2B46830   3.729  -1.035  -1.792
 2908POPC   C3B46831   3.809  -0.911  -1.658
 2908POPC   C4B46832   3.889  -0.786  -1.523
 2909POPC   NC346833  11.603  27.899   8.602
 2909POPC   PO446834  11.586  27.700   8.615
 2909POPC   GL146835  11.569  27.501   8.628
 2909POPC   GL246836  11.665  27.495   8.654
 2909POPC   C1A46837  11.551  27.302   8.641
 2909POPC   D2A46838  11.534  27.104   8.655
 2909POPC   C3A46839  11.516  26.905   8.668
 2909POPC   C4A46840  11.499  26.706   8.681
 2909POPC   C1B46841  11.500  27.320   8.834
 2909POPC   C2B46842  11.483  27.121   8.847
 2909POPC   C3B46843  11.466  26.922   8.860
 2909POPC   C4B46844  11.448  26.723   8.874
 2910POPC   NC346845  -0.258  18.920  21.872
 2910POPC   PO446846  -0.145  18.824  21.737
 2910POPC   GL146847  -0.032  18.728  21.602
 2910POPC   GL246848   0.050  18.762  21.647
 2910POPC   C1A46849   0.080  18.632  21.467
 2910POPC   D2A46850   0.193  18.537  21.333
 2910POPC   C3A46851   0.305  18.441  21.198
 2910POPC   C4A46852   0.418  18.345  21.063
 2910POPC   C1B46853   0.083  18.471  21.585
 2910POPC   C2B46854   0.196  18.375  21.450
 2910POPC   C3B46855   0.308  18.279  21.315
 2910POPC   C4B46856   0.421  18.183  21.180
 2911POPC   NC346857   4.253  24.541  19.064
 2911POPC   PO446858   4.316  24.381  18.962
 2911POPC   GL146859   4.379  24.221  18.860
 2911POPC   GL246860   4.474  24.253  18.868
 2911POPC   C1A46861   4.442  24.061  18.758
 2911POPC   D2A46862   4.506  23.901  18.657
 2911POPC   C3A46863   4.569  23.741  18.555
 2911POPC   C4A46864   4.632  23.581  18.453
 2911POPC   C1B46865   4.462  23.960  18.930
 2911POPC   C2B46866   4.525  23.800  18.828
 2911POPC   C3B46867   4.588  23.640  18.726
 2911POPC   C4B46868   4.651  23.480  18.624
 2912POPC   NC346869  12.523  24.941   0.178
 2912POPC   PO446870  12.493  24.773   0.283
 2912POPC   GL146871  12.463  24.605   0.388
 2912POPC   GL246872  12.540  24.562   0.341
 2912POPC   C1A46873  12.434  24.438   0.493
 2912POPC   D2A46874  12.404  24.270   0.599
 2912POPC   C3A46875  12.375  24.103   0.704
 2912POPC   C4A46876  12.345  23.935   0.809
 2912POPC   C1B46877  12.559  24.504   0.634
 2912POPC   C2B46878  12.530  24.337   0.740
 2912POPC   C3B46879  12.500  24.169   0.845
 2912POPC   C4B46880  12.470  24.001   0.950
 2913POPC   NC346881  -7.541  14.841  10.293
 2913POPC   PO446882  -7.349  14.786  10.288
 2913POPC   GL146883  -7.157  14.731  10.283
 2913POPC   GL246884  -7.177  14.655  10.345
 2913POPC   C1A46885  -6.965  14.676  10.278
 2913POPC   D2A46886  -6.772  14.621  10.274
 2913POPC   C3A46887  -6.580  14.566  10.269
 2913POPC   C4A46888  -6.388  14.511  10.264
 2913POPC   C1B46889  -7.002  14.558  10.121
 2913POPC   C2B46890  -6.810  14.503  10.117
 2913POPC   C3B46891  -6.618  14.448  10.112
 2913POPC   C4B46892  -6.426  14.393  10.107
 2914POPC   NC346893   0.950  24.132  16.673
 2914POPC   PO446894   1.048  23.973  16.601
 2914POPC   GL146895   1.146  23.814  16.529
 2914POPC   GL246896   1.203  23.874  16.474
 2914POPC   C1A46897   1.243  23.655  16.458
 2914POPC   D2A46898   1.341  23.495  16.386
 2914POPC   C3A46899   1.438  23.336  16.315
 2914POPC   C4A46900   1.536  23.177  16.243
 2914POPC   C1B46901   1.374  23.667  16.609
 2914POPC   C2B46902   1.472  23.508  16.537
 2914POPC   C3B46903   1.569  23.349  16.465
 2914POPC   C4B46904   1.667  23.189  16.394
 2915POPC   NC346905   3.493  -4.013  19.410
 2915POPC   PO446906   3.563  -3.858  19.305
 2915POPC   GL146907   3.633  -3.703  19.200
 2915POPC   GL246908   3.709  -3.760  19.167
 2915POPC   C1A46909   3.703  -3.548  19.095
 2915POPC   D2A46910   3.773  -3.393  18.989
 2915POPC   C3A46911   3.843  -3.238  18.884
 2915POPC   C4A46912   3.913  -3.083  18.779
 2915POPC   C1B46913   3.592  -3.605  18.938
 2915POPC   C2B46914   3.662  -3.450  18.833
 2915POPC   C3B46915   3.732  -3.295  18.727
 2915POPC   C4B46916   3.802  -3.140  18.622
 2916POPC   NC346917  22.647  18.263  19.649
 2916POPC   PO446918  22.508  18.170  19.539
 2916POPC   GL146919  22.369  18.077  19.429
 2916POPC   GL246920  22.438  18.012  19.397
 2916POPC   C1A46921  22.231  17.985  19.318
 2916POPC   D2A46922  22.092  17.892  19.208
 2916POPC   C3A46923  21.954  17.800  19.097
 2916POPC   C4A46924  21.815  17.707  18.987
 2916POPC   C1B46925  22.188  17.865  19.472
 2916POPC   C2B46926  22.050  17.772  19.362
 2916POPC   C3B46927  21.911  17.679  19.252
 2916POPC   C4B46928  21.772  17.587  19.141
 2917POPC   NC346929  -6.245   9.555   1.810
 2917POPC   PO446930  -6.065   9.561   1.898
 2917POPC   GL146931  -5.885   9.567   1.986
 2917POPC   GL246932  -5.896   9.472   2.014
 2917POPC   C1A46933  -5.706   9.573   2.073
 2917POPC   D2A46934  -5.526   9.580   2.161
 2917POPC   C3A46935  -5.347   9.586   2.248
 2917POPC   C4A46936  -5.167   9.592   2.336
 2917POPC   C1B46937  -5.620   9.514   1.903
 2917POPC   C2B46938  -5.441   9.520   1.990
 2917POPC   C3B46939  -5.261   9.526   2.078
 2917POPC   C4B46940  -5.082   9.532   2.165
 2918POPC   NC346941   6.101  -3.780  21.012
 2918POPC   PO446942   6.144  -3.629  20.888
 2918POPC   GL146943   6.187  -3.478  20.764
 2918POPC   GL246944   6.248  -3.439  20.833
 2918POPC   C1A46945   6.231  -3.327  20.640
 2918POPC   D2A46946   6.274  -3.177  20.516
 2918POPC   C3A46947   6.318  -3.026  20.392
 2918POPC   C4A46948   6.361  -2.875  20.268
 2918POPC   C1B46949   6.384  -3.432  20.566
 2918POPC   C2B46950   6.428  -3.282  20.442
 2918POPC   C3B46951   6.471  -3.131  20.318
 2918POPC   C4B46952   6.514  -2.980  20.194
 2919POPC   NC346953   8.467  13.716  27.521
 2919POPC   PO446954   8.490  13.677  27.326
 2919POPC   GL146955   8.513  13.638  27.131
 2919POPC   GL246956   8.569  13.558  27.154
 2919POPC   C1A46957   8.536  13.600  26.936
 2919POPC   D2A46958   8.560  13.561  26.742
 2919POPC   C3A46959   8.583  13.523  26.547
 2919POPC   C4A46960   8.606  13.484  26.352
 2919POPC   C1B46961   8.372  13.487  26.939
 2919POPC   C2B46962   8.395  13.448  26.744
 2919POPC   C3B46963   8.418  13.409  26.550
 2919POPC   C4B46964   8.441  13.371  26.355
 2920POPC   NC346965  25.102  19.572   9.109
 2920POPC   PO446966  24.933  19.466   9.122
 2920POPC   GL146967  24.764  19.360   9.135
 2920POPC   GL246968  24.815  19.276   9.117
 2920POPC   C1A46969  24.595  19.254   9.148
 2920POPC   D2A46970  24.426  19.147   9.162
 2920POPC   C3A46971  24.257  19.041   9.175
 2920POPC   C4A46972  24.088  18.935   9.188
 2920POPC   C1B46973  24.626  19.229   9.345
 2920POPC   C2B46974  24.457  19.123   9.358
 2920POPC   C3B46975  24.288  19.017   9.371
 2920POPC   C4B46976  24.119  18.911   9.384
 2921POPC   NC346977  23.181  -0.413   3.525
 2921POPC   PO446978  23.034  -0.297   3.595
 2921POPC   GL146979  22.887  -0.181   3.665
 2921POPC   GL246980  22.950  -0.104   3.672
 2921POPC   C1A46981  22.739  -0.065   3.735
 2921POPC   D2A46982  22.592   0.050   3.805
 2921POPC   C3A46983  22.444   0.166   3.875
 2921POPC   C4A46984  22.297   0.282   3.945
 2921POPC   C1B46985  22.693  -0.011   3.548
 2921POPC   C2B46986  22.546   0.105   3.618
 2921POPC   C3B46987  22.398   0.220   3.688
 2921POPC   C4B46988  22.251   0.336   3.758
 2922POPC   NC346989  -4.436  20.603  12.837
 2922POPC   PO446990  -4.278  20.485  12.803
 2922POPC   GL146991  -4.120  20.367  12.769
 2922POPC   GL246992  -4.059  20.445  12.782
 2922POPC   C1A46993  -3.963  20.249  12.735
 2922POPC   D2A46994  -3.805  20.130  12.700
 2922POPC   C3A46995  -3.648  20.012  12.666
 2922POPC   C4A46996  -3.490  19.894  12.632
 2922POPC   C1B46997  -3.952  20.207  12.930
 2922POPC   C2B46998  -3.794  20.089  12.896
 2922POPC   C3B46999  -3.636  19.971  12.861
 2922POPC   C4B47000  -3.479  19.852  12.827
 2923POPC   NC347001  23.519  -0.197  15.930
 2923POPC   PO447002  23.369  -0.080  15.869
 2923POPC   GL147003  23.219   0.037  15.808
 2923POPC   GL247004  23.239   0.014  15.713
 2923POPC   C1A47005  23.068   0.154  15.747
 2923POPC   D2A47006  22.918   0.271  15.687
 2923POPC   C3A47007  22.767   0.388  15.626
 2923POPC   C4A47008  22.617   0.505  15.565
 2923POPC   C1B47009  22.943  -0.001  15.759
 2923POPC   C2B47010  22.792   0.116  15.698
 2923POPC   C3B47011  22.642   0.233  15.637
 2923POPC   C4B47012  22.492   0.350  15.576
 2924POPC   NC347013  15.276   3.267  -5.949
 2924POPC   PO447014  15.216   3.335  -5.771
 2924POPC   GL147015  15.156   3.403  -5.593
 2924POPC   GL247016  15.098   3.471  -5.638
 2924POPC   C1A47017  15.096   3.472  -5.415
 2924POPC   D2A47018  15.036   3.540  -5.236
 2924POPC   C3A47019  14.976   3.609  -5.058
 2924POPC   C4A47020  14.916   3.677  -4.880
 2924POPC   C1B47021  14.944   3.341  -5.416
 2924POPC   C2B47022  14.884   3.410  -5.237
 2924POPC   C3B47023  14.824   3.478  -5.059
 2924POPC   C4B47024  14.764   3.547  -4.881
 2925POPC   NC347025   3.561  19.224  -4.301
 2925POPC   PO447026   3.631  19.126  -4.141
 2925POPC   GL147027   3.701  19.028  -3.981
 2925POPC   GL247028   3.786  19.009  -4.030
 2925POPC   C1A47029   3.770  18.930  -3.821
 2925POPC   D2A47030   3.840  18.833  -3.661
 2925POPC   C3A47031   3.909  18.735  -3.501
 2925POPC   C4A47032   3.979  18.637  -3.341
 2925POPC   C1B47033   3.848  19.101  -3.751
 2925POPC   C2B47034   3.918  19.003  -3.591
 2925POPC   C3B47035   3.987  18.905  -3.431
 2925POPC   C4B47036   4.057  18.807  -3.271
 2926POPC   NC347037  -2.714   8.060  -2.830
 2926POPC   PO447038  -2.572   8.077  -2.690
 2926POPC   GL147039  -2.430   8.094  -2.550
 2926POPC   GL247040  -2.461   8.187  -2.530
 2926POPC   C1A47041  -2.289   8.111  -2.410
 2926POPC   D2A47042  -2.147   8.129  -2.269
 2926POPC   C3A47043  -2.006   8.146  -2.129
 2926POPC   C4A47044  -1.864   8.163  -1.989
 2926POPC   C1B47045  -2.416   8.040  -2.273
 2926POPC   C2B47046  -2.274   8.057  -2.132
 2926POPC   C3B47047  -2.133   8.074  -1.992
 2926POPC   C4B47048  -1.991   8.091  -1.852
 2927POPC   NC347049  -6.897  16.749   9.563
 2927POPC   PO447050  -6.711  16.675   9.565
 2927POPC   GL147051  -6.525  16.601   9.567
 2927POPC   GL247052  -6.488  16.694   9.564
 2927POPC   C1A47053  -6.339  16.527   9.570
 2927POPC   D2A47054  -6.154  16.453   9.572
 2927POPC   C3A47055  -5.968  16.379   9.575
 2927POPC   C4A47056  -5.782  16.305   9.577
 2927POPC   C1B47057  -6.339  16.534   9.770
 2927POPC   C2B47058  -6.154  16.460   9.772
 2927POPC   C3B47059  -5.968  16.386   9.774
 2927POPC   C4B47060  -5.782  16.312   9.777
 2928POPC   NC347061  25.007  18.084   4.465
 2928POPC   PO447062  24.839  17.990   4.518
 2928POPC   GL147063  24.671  17.896   4.571
 2928POPC   GL247064  24.648  17.882   4.475
 2928POPC   C1A47065  24.502  17.802   4.624
 2928POPC   D2A47066  24.334  17.708   4.678
 2928POPC   C3A47067  24.165  17.614   4.731
 2928POPC   C4A47068  23.997  17.520   4.784
 2928POPC   C1B47069  24.600  17.628   4.627
 2928POPC   C2B47070  24.432  17.534   4.680
 2928POPC   C3B47071  24.264  17.440   4.733
 2928POPC   C4B47072  24.095  17.346   4.786
 2929POPC   NC347073   0.249   1.886  -2.937
 2929POPC   PO447074   0.357   1.978  -2.796
 2929POPC   GL147075   0.465   2.070  -2.655
 2929POPC   GL247076   0.395   2.047  -2.587
 2929POPC   C1A47077   0.572   2.162  -2.513
 2929POPC   D2A47078   0.680   2.253  -2.372
 2929POPC   C3A47079   0.787   2.345  -2.230
 2929POPC   C4A47080   0.895   2.437  -2.089
 2929POPC   C1B47081   0.667   1.990  -2.474
 2929POPC   C2B47082   0.775   2.082  -2.333
 2929POPC   C3B47083   0.882   2.174  -2.191
 2929POPC   C4B47084   0.990   2.265  -2.050
 2930POPC   NC347085   5.927   8.090  -7.581
 2930POPC   PO447086   5.969   8.110  -7.387
 2930POPC   GL147087   6.011   8.130  -7.193
 2930POPC   GL247088   5.928   8.080  -7.169
 2930POPC   C1A47089   6.054   8.150  -6.998
 2930POPC   D2A47090   6.096   8.171  -6.804
 2930POPC   C3A47091   6.139   8.191  -6.609
 2930POPC   C4A47092   6.181   8.211  -6.415
 2930POPC   C1B47093   6.156   7.979  -7.003
 2930POPC   C2B47094   6.199   7.999  -6.808
 2930POPC   C3B47095   6.241   8.019  -6.614
 2930POPC   C4B47096   6.284   8.039  -6.419
 2931POPC   NC347097  10.246  -5.109   0.035
 2931POPC   PO447098  10.243  -4.942   0.145
 2931POPC   GL147099  10.240  -4.775   0.255
 2931POPC   GL247100  10.246  -4.829   0.338
 2931POPC   C1A47101  10.237  -4.608   0.364
 2931POPC   D2A47102  10.233  -4.440   0.474
 2931POPC   C3A47103  10.230  -4.273   0.583
 2931POPC   C4A47104  10.227  -4.106   0.693
 2931POPC   C1B47105  10.436  -4.598   0.356
 2931POPC   C2B47106  10.433  -4.431   0.465
 2931POPC   C3B47107  10.430  -4.264   0.575
 2931POPC   C4B47108  10.427  -4.097   0.685
 2932POPC   NC347109  17.508  20.897  -2.296
 2932POPC   PO447110  17.420  20.777  -2.162
 2932POPC   GL147111  17.332  20.657  -2.028
 2932POPC   GL247112  17.406  20.591  -2.039
 2932POPC   C1A47113  17.244  20.537  -1.895
 2932POPC   D2A47114  17.157  20.417  -1.761
 2932POPC   C3A47115  17.069  20.297  -1.628
 2932POPC   C4A47116  16.981  20.177  -1.494
 2932POPC   C1B47117  17.346  20.626  -1.748
 2932POPC   C2B47118  17.258  20.506  -1.614
 2932POPC   C3B47119  17.170  20.386  -1.480
 2932POPC   C4B47120  17.083  20.266  -1.347
 2933POPC   NC347121  18.565  25.285  14.077
 2933POPC   PO447122  18.467  25.118  14.027
 2933POPC   GL147123  18.369  24.951  13.977
 2933POPC   GL247124  18.456  24.907  13.955
 2933POPC   C1A47125  18.272  24.784  13.927
 2933POPC   D2A47126  18.174  24.616  13.877
 2933POPC   C3A47127  18.077  24.449  13.827
 2933POPC   C4A47128  17.979  24.282  13.777
 2933POPC   C1B47129  18.286  24.719  14.116
 2933POPC   C2B47130  18.188  24.552  14.066
 2933POPC   C3B47131  18.091  24.384  14.016
 2933POPC   C4B47132  17.993  24.217  13.966
 2934POPC   NC347133   6.821   1.515  -5.774
 2934POPC   PO447134   6.851   1.606  -5.599
 2934POPC   GL147135   6.881   1.697  -5.424
 2934POPC   GL247136   6.944   1.624  -5.396
 2934POPC   C1A47137   6.911   1.788  -5.248
 2934POPC   D2A47138   6.941   1.880  -5.073
 2934POPC   C3A47139   6.971   1.971  -4.897
 2934POPC   C4A47140   7.001   2.062  -4.722
 2934POPC   C1B47141   7.063   1.891  -5.328
 2934POPC   C2B47142   7.093   1.982  -5.152
 2934POPC   C3B47143   7.123   2.073  -4.977
 2934POPC   C4B47144   7.153   2.164  -4.801
 2935POPC   NC347145   0.680   6.713  -5.294
 2935POPC   PO447146   0.783   6.747  -5.126
 2935POPC   GL147147   0.886   6.781  -4.958
 2935POPC   GL247148   0.851   6.696  -4.919
 2935POPC   C1A47149   0.989   6.815  -4.790
 2935POPC   D2A47150   1.093   6.848  -4.622
 2935POPC   C3A47151   1.196   6.882  -4.454
 2935POPC   C4A47152   1.299   6.916  -4.286
 2935POPC   C1B47153   1.146   6.715  -4.866
 2935POPC   C2B47154   1.249   6.749  -4.698
 2935POPC   C3B47155   1.352   6.783  -4.530
 2935POPC   C4B47156   1.455   6.817  -4.362
 2936POPC   NC347157  -0.396  24.817  10.933
 2936POPC   PO447158  -0.284  24.651  10.931
 2936POPC   GL147159  -0.172  24.485  10.929
 2936POPC   GL247160  -0.089  24.541  10.931
 2936POPC   C1A47161  -0.060  24.319  10.927
 2936POPC   D2A47162   0.051  24.154  10.925
 2936POPC   C3A47163   0.163  23.988  10.923
 2936POPC   C4A47164   0.275  23.822  10.921
 2936POPC   C1B47165  -0.062  24.316  11.127
 2936POPC   C2B47166   0.050  24.150  11.125
 2936POPC   C3B47167   0.162  23.985  11.123
 2936POPC   C4B47168   0.274  23.819  11.121
 2937POPC   NC347169  18.595  -5.658   7.804
 2937POPC   PO447170  18.500  -5.484   7.829
 2937POPC   GL147171  18.405  -5.310   7.854
 2937POPC   GL247172  18.475  -5.264   7.799
 2937POPC   C1A47173  18.310  -5.135   7.878
 2937POPC   D2A47174  18.216  -4.961   7.903
 2937POPC   C3A47175  18.121  -4.786   7.927
 2937POPC   C4A47176  18.026  -4.612   7.952
 2937POPC   C1B47177  18.203  -5.170   7.713
 2937POPC   C2B47178  18.109  -4.996   7.737
 2937POPC   C3B47179  18.014  -4.821   7.762
 2937POPC   C4B47180  17.919  -4.647   7.787
 2938POPC   NC347181  10.540  14.028  27.508
 2938POPC   PO447182  10.530  13.979  27.314
 2938POPC   GL147183  10.520  13.930  27.120
 2938POPC   GL247184  10.610  13.887  27.126
 2938POPC   C1A47185  10.509  13.881  26.927
 2938POPC   D2A47186  10.499  13.833  26.733
 2938POPC   C3A47187  10.488  13.784  26.540
 2938POPC   C4A47188  10.478  13.735  26.346
 2938POPC   C1B47189  10.423  13.707  26.975
 2938POPC   C2B47190  10.413  13.659  26.782
 2938POPC   C3B47191  10.403  13.610  26.588
 2938POPC   C4B47192  10.392  13.561  26.395
 2939POPC   NC347193  11.155  -4.113  -1.291
 2939POPC   PO447194  11.141  -3.956  -1.168
 2939POPC   GL147195  11.127  -3.799  -1.045
 2939POPC   GL247196  11.148  -3.858  -0.967
 2939POPC   C1A47197  11.113  -3.642  -0.922
 2939POPC   D2A47198  11.100  -3.485  -0.798
 2939POPC   C3A47199  11.086  -3.328  -0.675
 2939POPC   C4A47200  11.072  -3.171  -0.552
 2939POPC   C1B47201  11.309  -3.606  -0.945
 2939POPC   C2B47202  11.295  -3.449  -0.822
 2939POPC   C3B47203  11.281  -3.292  -0.699
 2939POPC   C4B47204  11.267  -3.135  -0.576
 2940POPC   NC347205  25.407   7.279  18.614
 2940POPC   PO447206  25.236   7.311  18.515
 2940POPC   GL147207  25.065   7.343  18.416
 2940POPC   GL247208  25.061   7.246  18.391
 2940POPC   C1A47209  24.895   7.375  18.316
 2940POPC   D2A47210  24.724   7.406  18.217
 2940POPC   C3A47211  24.554   7.438  18.117
 2940POPC   C4A47212  24.383   7.470  18.018
 2940POPC   C1B47213  24.791   7.337  18.483
 2940POPC   C2B47214  24.620   7.369  18.384
 2940POPC   C3B47215  24.450   7.401  18.284
 2940POPC   C4B47216  24.279   7.433  18.185
 2941POPC   NC347217   8.174   3.732  -6.888
 2941POPC   PO447218   8.188   3.799  -6.700
 2941POPC   GL147219   8.202   3.866  -6.512
 2941POPC   GL247220   8.262   3.940  -6.543
 2941POPC   C1A47221   8.216   3.933  -6.324
 2941POPC   D2A47222   8.230   4.000  -6.137
 2941POPC   C3A47223   8.244   4.067  -5.949
 2941POPC   C4A47224   8.258   4.134  -5.761
 2941POPC   C1B47225   8.057   4.050  -6.354
 2941POPC   C2B47226   8.071   4.117  -6.167
 2941POPC   C3B47227   8.085   4.184  -5.979
 2941POPC   C4B47228   8.099   4.251  -5.791
 2942POPC   NC347229  21.270  -4.007  10.537
 2942POPC   PO447230  21.145  -3.851  10.527
 2942POPC   GL147231  21.020  -3.695  10.517
 2942POPC   GL247232  21.083  -3.641  10.572
 2942POPC   C1A47233  20.895  -3.539  10.507
 2942POPC   D2A47234  20.770  -3.384  10.497
 2942POPC   C3A47235  20.645  -3.228  10.487
 2942POPC   C4A47236  20.520  -3.072  10.477
 2942POPC   C1B47237  20.987  -3.477  10.341
 2942POPC   C2B47238  20.862  -3.321  10.331
 2942POPC   C3B47239  20.737  -3.165  10.321
 2942POPC   C4B47240  20.612  -3.009  10.311
 2943POPC   NC347241  21.181  -3.752   6.850
 2943POPC   PO447242  21.055  -3.600   6.885
 2943POPC   GL147243  20.929  -3.448   6.920
 2943POPC   GL247244  20.955  -3.407   6.832
 2943POPC   C1A47245  20.803  -3.297   6.955
 2943POPC   D2A47246  20.678  -3.145   6.989
 2943POPC   C3A47247  20.552  -2.994   7.024
 2943POPC   C4A47248  20.426  -2.842   7.059
 2943POPC   C1B47249  20.657  -3.398   6.864
 2943POPC   C2B47250  20.531  -3.246   6.899
 2943POPC   C3B47251  20.405  -3.095   6.934
 2943POPC   C4B47252  20.279  -2.943   6.968
 2944POPC   NC347253  -5.727  17.804  14.713
 2944POPC   PO447254  -5.555  17.716  14.663
 2944POPC   GL147255  -5.383  17.628  14.613
 2944POPC   GL247256  -5.332  17.695  14.666
 2944POPC   C1A47257  -5.210  17.540  14.562
 2944POPC   D2A47258  -5.038  17.451  14.512
 2944POPC   C3A47259  -4.865  17.363  14.461
 2944POPC   C4A47260  -4.693  17.275  14.411
 2944POPC   C1B47261  -5.224  17.421  14.723
 2944POPC   C2B47262  -5.051  17.333  14.673
 2944POPC   C3B47263  -4.879  17.245  14.622
 2944POPC   C4B47264  -4.706  17.157  14.572
 2945POPC   NC347265  -6.939   7.766   3.746
 2945POPC   PO447266  -6.753   7.787   3.816
 2945POPC   GL147267  -6.567   7.808   3.886
 2945POPC   GL247268  -6.583   7.733   3.951
 2945POPC   C1A47269  -6.381   7.829   3.957
 2945POPC   D2A47270  -6.195   7.850   4.027
 2945POPC   C3A47271  -6.009   7.871   4.098
 2945POPC   C4A47272  -5.823   7.892   4.168
 2945POPC   C1B47273  -6.315   7.698   3.821
 2945POPC   C2B47274  -6.129   7.719   3.891
 2945POPC   C3B47275  -5.943   7.740   3.961
 2945POPC   C4B47276  -5.757   7.761   4.032
 2946POPC   NC347277   6.392  21.654  -3.389
 2946POPC   PO447278   6.426  21.520  -3.245
 2946POPC   GL147279   6.460  21.386  -3.101
 2946POPC   GL247280   6.556  21.414  -3.097
 2946POPC   C1A47281   6.494  21.252  -2.957
 2946POPC   D2A47282   6.529  21.117  -2.812
 2946POPC   C3A47283   6.563  20.983  -2.668
 2946POPC   C4A47284   6.597  20.849  -2.524
 2946POPC   C1B47285   6.448  21.388  -2.818
 2946POPC   C2B47286   6.482  21.254  -2.674
 2946POPC   C3B47287   6.517  21.120  -2.530
 2946POPC   C4B47288   6.551  20.986  -2.386
 2947POPC   NC347289  14.848  19.177  -4.781
 2947POPC   PO447290  14.795  19.077  -4.616
 2947POPC   GL147291  14.742  18.977  -4.451
 2947POPC   GL247292  14.738  18.892  -4.504
 2947POPC   C1A47293  14.689  18.877  -4.286
 2947POPC   D2A47294  14.635  18.776  -4.122
 2947POPC   C3A47295  14.582  18.676  -3.957
 2947POPC   C4A47296  14.529  18.576  -3.792
 2947POPC   C1B47297  14.881  18.842  -4.245
 2947POPC   C2B47298  14.828  18.742  -4.080
 2947POPC   C3B47299  14.775  18.642  -3.915
 2947POPC   C4B47300  14.722  18.542  -3.751
 2948POPC   NC347301   3.222  25.075  17.288
 2948POPC   PO447302   3.298  24.908  17.208
 2948POPC   GL147303   3.374  24.741  17.128
 2948POPC   GL247304   3.371  24.697  17.218
 2948POPC   C1A47305   3.451  24.574  17.048
 2948POPC   D2A47306   3.527  24.408  16.969
 2948POPC   C3A47307   3.604  24.241  16.889
 2948POPC   C4A47308   3.680  24.074  16.809
 2948POPC   C1B47309   3.266  24.509  17.008
 2948POPC   C2B47310   3.343  24.342  16.928
 2948POPC   C3B47311   3.419  24.175  16.848
 2948POPC   C4B47312   3.495  24.009  16.769
 2949POPC   NC347313   8.247  14.766  27.252
 2949POPC   PO447314   8.270  14.716  27.060
 2949POPC   GL147315   8.293  14.666  26.868
 2949POPC   GL247316   8.346  14.586  26.895
 2949POPC   C1A47317   8.316  14.617  26.675
 2949POPC   D2A47318   8.340  14.567  26.483
 2949POPC   C3A47319   8.363  14.518  26.290
 2949POPC   C4A47320   8.386  14.468  26.098
 2949POPC   C1B47321   8.148  14.509  26.683
 2949POPC   C2B47322   8.171  14.460  26.490
 2949POPC   C3B47323   8.194  14.410  26.298
 2949POPC   C4B47324   8.217  14.361  26.105
 2950POPC   NC347325  -7.070  11.622   4.026
 2950POPC   PO447326  -6.881  11.603   4.089
 2950POPC   GL147327  -6.692  11.584   4.152
 2950POPC   GL247328  -6.721  11.605   4.245
 2950POPC   C1A47329  -6.503  11.566   4.215
 2950POPC   D2A47330  -6.314  11.547   4.277
 2950POPC   C3A47331  -6.125  11.529   4.340
 2950POPC   C4A47332  -5.936  11.510   4.403
 2950POPC   C1B47333  -6.533  11.371   4.248
 2950POPC   C2B47334  -6.344  11.352   4.310
 2950POPC   C3B47335  -6.155  11.334   4.373
 2950POPC   C4B47336  -5.966  11.315   4.436
 2951POPC   NC347337   5.065   1.789  -5.493
 2951POPC   PO447338   5.120   1.880  -5.323
 2951POPC   GL147339   5.175   1.971  -5.153
 2951POPC   GL247340   5.218   1.886  -5.122
 2951POPC   C1A47341   5.230   2.061  -4.984
 2951POPC   D2A47342   5.286   2.152  -4.814
 2951POPC   C3A47343   5.341   2.242  -4.645
 2951POPC   C4A47344   5.396   2.333  -4.475
 2951POPC   C1B47345   5.402   2.117  -5.070
 2951POPC   C2B47346   5.458   2.207  -4.900
 2951POPC   C3B47347   5.513   2.298  -4.730
 2951POPC   C4B47348   5.568   2.389  -4.561
 2952POPC   NC347349  22.738   5.038  -1.718
 2952POPC   PO447350  22.599   5.098  -1.588
 2952POPC   GL147351  22.460   5.158  -1.458
 2952POPC   GL247352  22.389   5.141  -1.526
 2952POPC   C1A47353  22.321   5.218  -1.327
 2952POPC   D2A47354  22.181   5.279  -1.197
 2952POPC   C3A47355  22.042   5.339  -1.066
 2952POPC   C4A47356  21.903   5.399  -0.936
 2952POPC   C1B47357  22.303   5.031  -1.260
 2952POPC   C2B47358  22.163   5.091  -1.129
 2952POPC   C3B47359  22.024   5.151  -0.999
 2952POPC   C4B47360  21.885   5.212  -0.869
 2953POPC   NC347361  14.879  27.215   8.072
 2953POPC   PO447362  14.820  27.025   8.094
 2953POPC   GL147363  14.761  26.835   8.116
 2953POPC   GL247364  14.815  26.809   8.035
 2953POPC   C1A47365  14.702  26.645   8.137
 2953POPC   D2A47366  14.642  26.456   8.159
 2953POPC   C3A47367  14.583  26.266   8.180
 2953POPC   C4A47368  14.524  26.076   8.202
 2953POPC   C1B47369  14.859  26.610   8.255
 2953POPC   C2B47370  14.800  26.420   8.277
 2953POPC   C3B47371  14.741  26.230   8.298
 2953POPC   C4B47372  14.682  26.040   8.320
 2954POPC   NC347373  12.908  -6.803   3.864
 2954POPC   PO447374  12.871  -6.618   3.931
 2954POPC   GL147375  12.834  -6.433   3.998
 2954POPC   GL247376  12.882  -6.395   3.919
 2954POPC   C1A47377  12.797  -6.248   4.065
 2954POPC   D2A47378  12.761  -6.064   4.132
 2954POPC   C3A47379  12.724  -5.879   4.199
 2954POPC   C4A47380  12.687  -5.694   4.266
 2954POPC   C1B47381  12.626  -6.245   3.962
 2954POPC   C2B47382  12.589  -6.061   4.029
 2954POPC   C3B47383  12.552  -5.876   4.096
 2954POPC   C4B47384  12.515  -5.691   4.163
 2955POPC   NC347385   6.409  25.864   2.022
 2955POPC   PO447386   6.448  25.690   2.113
 2955POPC   GL147387   6.487  25.516   2.204
 2955POPC   GL247388   6.584  25.526   2.182
 2955POPC   C1A47389   6.525  25.343   2.296
 2955POPC   D2A47390   6.564  25.169   2.387
 2955POPC   C3A47391   6.602  24.996   2.479
 2955POPC   C4A47392   6.641  24.822   2.570
 2955POPC   C1B47393   6.556  25.440   2.468
 2955POPC   C2B47394   6.595  25.266   2.559
 2955POPC   C3B47395   6.633  25.093   2.651
 2955POPC   C4B47396   6.672  24.919   2.742
 2956POPC   NC347397  13.238  -7.776   9.072
 2956POPC   PO447398  13.201  -7.580   9.080
 2956POPC   GL147399  13.164  -7.384   9.088
 2956POPC   GL247400  13.203  -7.380   9.180
 2956POPC   C1A47401  13.128  -7.187   9.096
 2956POPC   D2A47402  13.091  -6.991   9.105
 2956POPC   C3A47403  13.055  -6.794   9.113
 2956POPC   C4A47404  13.018  -6.598   9.121
 2956POPC   C1B47405  13.309  -7.150   9.020
 2956POPC   C2B47406  13.272  -6.954   9.028
 2956POPC   C3B47407  13.236  -6.757   9.036
 2956POPC   C4B47408  13.199  -6.561   9.044
 2957POPC   NC347409  25.988   2.023   8.598
 2957POPC   PO447410  25.811   2.114   8.616
 2957POPC   GL147411  25.634   2.205   8.634
 2957POPC   GL247412  25.594   2.142   8.568
 2957POPC   C1A47413  25.457   2.297   8.652
 2957POPC   D2A47414  25.280   2.388   8.671
 2957POPC   C3A47415  25.103   2.480   8.689
 2957POPC   C4A47416  24.926   2.571   8.707
 2957POPC   C1B47417  25.408   2.173   8.801
 2957POPC   C2B47418  25.231   2.264   8.819
 2957POPC   C3B47419  25.054   2.355   8.838
 2957POPC   C4B47420  24.877   2.447   8.856
 2958POPC   NC347421   3.987  -4.693  18.696
 2958POPC   PO447422   4.054  -4.532  18.597
 2958POPC   GL147423   4.121  -4.371  18.498
 2958POPC   GL247424   4.203  -4.371  18.555
 2958POPC   C1A47425   4.188  -4.211  18.399
 2958POPC   D2A47426   4.254  -4.050  18.301
 2958POPC   C3A47427   4.321  -3.890  18.202
 2958POPC   C4A47428   4.388  -3.729  18.103
 2958POPC   C1B47429   4.279  -4.330  18.267
 2958POPC   C2B47430   4.346  -4.169  18.169
 2958POPC   C3B47431   4.413  -4.009  18.070
 2958POPC   C4B47432   4.479  -3.848  17.971
 2959POPC   NC347433  14.687  23.764  -0.770
 2959POPC   PO447434  14.631  23.609  -0.656
 2959POPC   GL147435  14.575  23.454  -0.542
 2959POPC   GL247436  14.668  23.418  -0.546
 2959POPC   C1A47437  14.519  23.299  -0.429
 2959POPC   D2A47438  14.463  23.145  -0.315
 2959POPC   C3A47439  14.407  22.990  -0.202
 2959POPC   C4A47440  14.351  22.835  -0.088
 2959POPC   C1B47441  14.565  23.403  -0.264
 2959POPC   C2B47442  14.509  23.249  -0.151
 2959POPC   C3B47443  14.453  23.094  -0.037
 2959POPC   C4B47444  14.397  22.939   0.077
 2960POPC   NC347445  22.146  -3.044   7.550
 2960POPC   PO447446  22.009  -2.901   7.577
 2960POPC   GL147447  21.872  -2.758   7.604
 2960POPC   GL247448  21.894  -2.720   7.514
 2960POPC   C1A47449  21.735  -2.614   7.631
 2960POPC   D2A47450  21.599  -2.471   7.658
 2960POPC   C3A47451  21.462  -2.327   7.685
 2960POPC   C4A47452  21.325  -2.184   7.712
 2960POPC   C1B47453  21.596  -2.732   7.549
 2960POPC   C2B47454  21.459  -2.588   7.576
 2960POPC   C3B47455  21.322  -2.445   7.603
 2960POPC   C4B47456  21.186  -2.301   7.630
 2961POPC   NC347457   4.731   9.320  -7.368
 2961POPC   PO447458   4.786   9.327  -7.176
 2961POPC   GL147459   4.841   9.334  -6.984
 2961POPC   GL247460   4.822   9.236  -6.975
 2961POPC   C1A47461   4.896   9.340  -6.792
 2961POPC   D2A47462   4.952   9.347  -6.599
 2961POPC   C3A47463   5.007   9.353  -6.407
 2961POPC   C4A47464   5.062   9.360  -6.215
 2961POPC   C1B47465   5.085   9.299  -6.844
 2961POPC   C2B47466   5.140   9.305  -6.652
 2961POPC   C3B47467   5.195   9.312  -6.460
 2961POPC   C4B47468   5.250   9.319  -6.268
 2962POPC   NC347469  -4.972  19.601  13.597
 2962POPC   PO447470  -4.810  19.491  13.555
 2962POPC   GL147471  -4.648  19.381  13.513
 2962POPC   GL247472  -4.678  19.312  13.579
 2962POPC   C1A47473  -4.486  19.271  13.471
 2962POPC   D2A47474  -4.325  19.162  13.429
 2962POPC   C3A47475  -4.163  19.052  13.387
 2962POPC   C4A47476  -4.001  18.942  13.345
 2962POPC   C1B47477  -4.588  19.177  13.327
 2962POPC   C2B47478  -4.426  19.067  13.285
 2962POPC   C3B47479  -4.264  18.957  13.243
 2962POPC   C4B47480  -4.102  18.848  13.201
 2963POPC   NC347481  21.748   3.854  -2.138
 2963POPC   PO447482  21.618   3.926  -2.004
 2963POPC   GL147483  21.488   3.998  -1.870
 2963POPC   GL247484  21.414   3.948  -1.915
 2963POPC   C1A47485  21.358   4.071  -1.737
 2963POPC   D2A47486  21.228   4.143  -1.603
 2963POPC   C3A47487  21.098   4.216  -1.470
 2963POPC   C4A47488  20.968   4.288  -1.336
 2963POPC   C1B47489  21.393   3.914  -1.617
 2963POPC   C2B47490  21.263   3.987  -1.484
 2963POPC   C3B47491  21.133   4.059  -1.350
 2963POPC   C4B47492  21.003   4.131  -1.217
 2964POPC   NC347493  -1.324  21.248   1.342
 2964POPC   PO447494  -1.202  21.120   1.435
 2964POPC   GL147495  -1.080  20.992   1.528
 2964POPC   GL247496  -1.138  20.994   1.608
 2964POPC   C1A47497  -0.957  20.864   1.620
 2964POPC   D2A47498  -0.835  20.735   1.713
 2964POPC   C3A47499  -0.712  20.607   1.805
 2964POPC   C4A47500  -0.590  20.479   1.898
 2964POPC   C1B47501  -1.063  20.710   1.548
 2964POPC   C2B47502  -0.941  20.582   1.640
 2964POPC   C3B47503  -0.818  20.454   1.733
 2964POPC   C4B47504  -0.696  20.326   1.826
 2965POPC   NC347505  -0.920   0.099  -0.607
 2965POPC   PO447506  -0.805   0.208  -0.485
 2965POPC   GL147507  -0.690   0.317  -0.363
 2965POPC   GL247508  -0.751   0.297  -0.287
 2965POPC   C1A47509  -0.574   0.426  -0.241
 2965POPC   D2A47510  -0.459   0.534  -0.119
 2965POPC   C3A47511  -0.343   0.643   0.003
 2965POPC   C4A47512  -0.228   0.752   0.125
 2965POPC   C1B47513  -0.467   0.262  -0.197
 2965POPC   C2B47514  -0.352   0.371  -0.075
 2965POPC   C3B47515  -0.237   0.480   0.047
 2965POPC   C4B47516  -0.121   0.589   0.169
 2966POPC   NC347517   0.677  -0.653  -1.284
 2966POPC   PO447518   0.775  -0.533  -1.158
 2966POPC   GL147519   0.873  -0.413  -1.032
 2966POPC   GL247520   0.807  -0.434  -0.960
 2966POPC   C1A47521   0.972  -0.293  -0.906
 2966POPC   D2A47522   1.070  -0.172  -0.780
 2966POPC   C3A47523   1.169  -0.052  -0.654
 2966POPC   C4A47524   1.267   0.068  -0.528
 2966POPC   C1B47525   1.085  -0.447  -0.847
 2966POPC   C2B47526   1.183  -0.327  -0.721
 2966POPC   C3B47527   1.282  -0.206  -0.595
 2966POPC   C4B47528   1.380  -0.086  -0.469
 2967POPC   NC347529  19.076  -2.162   0.242
 2967POPC   PO447530  18.974  -2.026   0.348
 2967POPC   GL147531  18.872  -1.890   0.454
 2967POPC   GL247532  18.847  -1.844   0.370
 2967POPC   C1A47533  18.771  -1.755   0.560
 2967POPC   D2A47534  18.669  -1.619   0.667
 2967POPC   C3A47535  18.568  -1.484   0.773
 2967POPC   C4A47536  18.466  -1.348   0.879
 2967POPC   C1B47537  18.606  -1.868   0.548
 2967POPC   C2B47538  18.505  -1.732   0.654
 2967POPC   C3B47539  18.403  -1.597   0.760
 2967POPC   C4B47540  18.302  -1.461   0.866
 2968POPC   NC347541  10.775   0.016  -5.069
 2968POPC   PO447542  10.762   0.125  -4.902
 2968POPC   GL147543  10.749   0.234  -4.735
 2968POPC   GL247544  10.833   0.283  -4.761
 2968POPC   C1A47545  10.737   0.343  -4.568
 2968POPC   D2A47546  10.724   0.453  -4.401
 2968POPC   C3A47547  10.712   0.562  -4.234
 2968POPC   C4A47548  10.699   0.671  -4.067
 2968POPC   C1B47549  10.627   0.479  -4.665
 2968POPC   C2B47550  10.614   0.588  -4.498
 2968POPC   C3B47551  10.601   0.698  -4.331
 2968POPC   C4B47552  10.589   0.807  -4.164
 2969POPC   NC347553   6.762  -6.355   2.940
 2969POPC   PO447554   6.796  -6.174   3.018
 2969POPC   GL147555   6.830  -5.993   3.096
 2969POPC   GL247556   6.842  -6.034   3.186
 2969POPC   C1A47557   6.864  -5.812   3.174
 2969POPC   D2A47558   6.898  -5.631   3.252
 2969POPC   C3A47559   6.932  -5.450   3.330
 2969POPC   C4A47560   6.966  -5.269   3.408
 2969POPC   C1B47561   7.060  -5.833   3.138
 2969POPC   C2B47562   7.094  -5.652   3.216
 2969POPC   C3B47563   7.128  -5.471   3.294
 2969POPC   C4B47564   7.162  -5.290   3.372
 2970POPC   NC347565  17.759  -3.338   0.630
 2970POPC   PO447566  17.672  -3.190   0.732
 2970POPC   GL147567  17.585  -3.042   0.834
 2970POPC   GL247568  17.671  -2.991   0.834
 2970POPC   C1A47569  17.498  -2.894   0.937
 2970POPC   D2A47570  17.410  -2.745   1.039
 2970POPC   C3A47571  17.323  -2.597   1.142
 2970POPC   C4A47572  17.236  -2.449   1.244
 2970POPC   C1B47573  17.444  -2.806   0.765
 2970POPC   C2B47574  17.357  -2.658   0.867
 2970POPC   C3B47575  17.270  -2.510   0.970
 2970POPC   C4B47576  17.183  -2.362   1.072
 2971POPC   NC347577   5.359  23.347  -1.282
 2971POPC   PO447578   5.406  23.196  -1.159
 2971POPC   GL147579   5.453  23.045  -1.036
 2971POPC   GL247580   5.502  23.109  -0.977
 2971POPC   C1A47581   5.500  22.895  -0.913
 2971POPC   D2A47582   5.546  22.744  -0.790
 2971POPC   C3A47583   5.593  22.594  -0.667
 2971POPC   C4A47584   5.640  22.443  -0.544
 2971POPC   C1B47585   5.332  22.928  -0.808
 2971POPC   C2B47586   5.379  22.778  -0.685
 2971POPC   C3B47587   5.426  22.627  -0.562
 2971POPC   C4B47588   5.473  22.476  -0.439
 2972POPC   NC347589   5.837  25.118  18.965
 2972POPC   PO447590   5.881  24.950  18.866
 2972POPC   GL147591   5.925  24.782  18.767
 2972POPC   GL247592   6.018  24.815  18.752
 2972POPC   C1A47593   5.969  24.614  18.668
 2972POPC   D2A47594   6.012  24.446  18.568
 2972POPC   C3A47595   6.056  24.278  18.469
 2972POPC   C4A47596   6.100  24.110  18.370
 2972POPC   C1B47597   6.025  24.528  18.839
 2972POPC   C2B47598   6.069  24.360  18.740
 2972POPC   C3B47599   6.113  24.192  18.640
 2972POPC   C4B47600   6.157  24.024  18.541
 2973POPC   NC347601   8.394  25.177   0.330
 2973POPC   PO447602   8.413  25.012   0.442
 2973POPC   GL147603   8.432  24.847   0.554
 2973POPC   GL247604   8.464  24.903   0.630
 2973POPC   C1A47605   8.451  24.682   0.666
 2973POPC   D2A47606   8.469  24.518   0.777
 2973POPC   C3A47607   8.488  24.353   0.889
 2973POPC   C4A47608   8.507  24.188   1.001
 2973POPC   C1B47609   8.262  24.704   0.729
 2973POPC   C2B47610   8.281  24.539   0.841
 2973POPC   C3B47611   8.300  24.374   0.953
 2973POPC   C4B47612   8.319  24.210   1.065
 2974POPC   NC347613  -2.232  20.624  18.106
 2974POPC   PO447614  -2.098  20.507  18.015
 2974POPC   GL147615  -1.964  20.390  17.924
 2974POPC   GL247616  -1.891  20.453  17.950
 2974POPC   C1A47617  -1.830  20.272  17.833
 2974POPC   D2A47618  -1.697  20.155  17.742
 2974POPC   C3A47619  -1.563  20.037  17.651
 2974POPC   C4A47620  -1.429  19.920  17.560
 2974POPC   C1B47621  -1.803  20.172  18.004
 2974POPC   C2B47622  -1.669  20.054  17.913
 2974POPC   C3B47623  -1.535  19.937  17.822
 2974POPC   C4B47624  -1.401  19.819  17.731
 2975POPC   NC347625  -4.171  21.289  11.228
 2975POPC   PO447626  -4.015  21.165  11.211
 2975POPC   GL147627  -3.859  21.041  11.194
 2975POPC   GL247628  -3.802  21.105  11.246
 2975POPC   C1A47629  -3.703  20.917  11.177
 2975POPC   D2A47630  -3.546  20.794  11.161
 2975POPC   C3A47631  -3.390  20.670  11.144
 2975POPC   C4A47632  -3.234  20.546  11.127
 2975POPC   C1B47633  -3.756  20.826  11.347
 2975POPC   C2B47634  -3.600  20.703  11.330
 2975POPC   C3B47635  -3.444  20.579  11.314
 2975POPC   C4B47636  -3.288  20.455  11.297
 2976POPC   NC347637   1.073   1.579  23.233
 2976POPC   PO447638   1.177   1.668  23.087
 2976POPC   GL147639   1.281   1.757  22.941
 2976POPC   GL247640   1.340   1.800  23.009
 2976POPC   C1A47641   1.385   1.845  22.795
 2976POPC   D2A47642   1.488   1.934  22.648
 2976POPC   C3A47643   1.592   2.022  22.502
 2976POPC   C4A47644   1.696   2.111  22.356
 2976POPC   C1B47645   1.508   1.688  22.787
 2976POPC   C2B47646   1.612   1.777  22.641
 2976POPC   C3B47647   1.716   1.865  22.495
 2976POPC   C4B47648   1.820   1.954  22.349
 2977POPC   NC347649   3.403  -3.868   0.285
 2977POPC   PO447650   3.476  -3.719   0.397
 2977POPC   GL147651   3.549  -3.570   0.509
 2977POPC   GL247652   3.634  -3.572   0.456
 2977POPC   C1A47653   3.622  -3.421   0.620
 2977POPC   D2A47654   3.695  -3.272   0.732
 2977POPC   C3A47655   3.768  -3.123   0.843
 2977POPC   C4A47656   3.841  -2.974   0.955
 2977POPC   C1B47657   3.545  -3.288   0.492
 2977POPC   C2B47658   3.618  -3.139   0.604
 2977POPC   C3B47659   3.691  -2.990   0.716
 2977POPC   C4B47660   3.764  -2.841   0.827
 2978POPC   NC347661  -6.175   7.037   2.203
 2978POPC   PO447662  -5.997   7.066   2.289
 2978POPC   GL147663  -5.819   7.095   2.375
 2978POPC   GL247664  -5.842   7.029   2.446
 2978POPC   C1A47665  -5.640   7.124   2.460
 2978POPC   D2A47666  -5.462   7.153   2.546
 2978POPC   C3A47667  -5.283   7.182   2.631
 2978POPC   C4A47668  -5.105   7.211   2.717
 2978POPC   C1B47669  -5.563   6.977   2.348
 2978POPC   C2B47670  -5.384   7.006   2.434
 2978POPC   C3B47671  -5.206   7.035   2.519
 2978POPC   C4B47672  -5.028   7.064   2.605
 2979POPC   NC347673  -0.769  14.893  23.586
 2979POPC   PO447674  -0.652  14.838  23.434
 2979POPC   GL147675  -0.535  14.783  23.282
 2979POPC   GL247676  -0.456  14.779  23.344
 2979POPC   C1A47677  -0.417  14.728  23.129
 2979POPC   D2A47678  -0.300  14.674  22.977
 2979POPC   C3A47679  -0.182  14.619  22.824
 2979POPC   C4A47680  -0.065  14.564  22.672
 2979POPC   C1B47681  -0.457  14.536  23.167
 2979POPC   C2B47682  -0.340  14.481  23.015
 2979POPC   C3B47683  -0.222  14.427  22.863
 2979POPC   C4B47684  -0.105  14.372  22.710
 2980POPC   NC347685   7.333  25.307  19.183
 2980POPC   PO447686   7.361  25.137  19.081
 2980POPC   GL147687   7.389  24.967  18.979
 2980POPC   GL247688   7.488  24.977  18.991
 2980POPC   C1A47689   7.417  24.797  18.877
 2980POPC   D2A47690   7.446  24.628  18.776
 2980POPC   C3A47691   7.474  24.458  18.674
 2980POPC   C4A47692   7.502  24.288  18.572
 2980POPC   C1B47693   7.408  24.693  19.048
 2980POPC   C2B47694   7.436  24.524  18.946
 2980POPC   C3B47695   7.464  24.354  18.844
 2980POPC   C4B47696   7.493  24.184  18.743
 2981POPC   NC347697  11.893  15.437  26.964
 2981POPC   PO447698  11.869  15.372  26.776
 2981POPC   GL147699  11.845  15.307  26.588
 2981POPC   GL247700  11.932  15.258  26.594
 2981POPC   C1A47701  11.821  15.242  26.401
 2981POPC   D2A47702  11.797  15.177  26.213
 2981POPC   C3A47703  11.773  15.112  26.026
 2981POPC   C4A47704  11.749  15.047  25.838
 2981POPC   C1B47705  11.725  15.080  26.469
 2981POPC   C2B47706  11.701  15.015  26.281
 2981POPC   C3B47707  11.677  14.950  26.094
 2981POPC   C4B47708  11.653  14.885  25.906
 2982POPC   NC347709  26.574  16.261   7.518
 2982POPC   PO447710  26.391  16.185   7.544
 2982POPC   GL147711  26.208  16.109   7.570
 2982POPC   GL247712  26.175  16.163   7.492
 2982POPC   C1A47713  26.025  16.033   7.595
 2982POPC   D2A47714  25.841  15.958   7.621
 2982POPC   C3A47715  25.658  15.882   7.646
 2982POPC   C4A47716  25.475  15.806   7.672
 2982POPC   C1B47717  26.070  15.883   7.472
 2982POPC   C2B47718  25.887  15.807   7.497
 2982POPC   C3B47719  25.703  15.731   7.523
 2982POPC   C4B47720  25.520  15.655   7.548
 2983POPC   NC347721  14.728  -6.723  14.700
 2983POPC   PO447722  14.673  -6.539  14.645
 2983POPC   GL147723  14.618  -6.355  14.590
 2983POPC   GL247724  14.650  -6.319  14.678
 2983POPC   C1A47725  14.563  -6.170  14.535
 2983POPC   D2A47726  14.509  -5.986  14.481
 2983POPC   C3A47727  14.454  -5.801  14.426
 2983POPC   C4A47728  14.399  -5.617  14.371
 2983POPC   C1B47729  14.745  -6.139  14.458
 2983POPC   C2B47730  14.690  -5.955  14.403
 2983POPC   C3B47731  14.636  -5.770  14.348
 2983POPC   C4B47732  14.581  -5.586  14.294
 2984POPC   NC347733   9.812   9.141  27.984
 2984POPC   PO447734   9.817   9.151  27.784
 2984POPC   GL147735   9.822   9.161  27.584
 2984POPC   GL247736   9.863   9.070  27.581
 2984POPC   C1A47737   9.827   9.171  27.385
 2984POPC   D2A47738   9.832   9.181  27.185
 2984POPC   C3A47739   9.837   9.191  26.986
 2984POPC   C4A47740   9.842   9.201  26.786
 2984POPC   C1B47741   9.644   9.090  27.376
 2984POPC   C2B47742   9.649   9.100  27.177
 2984POPC   C3B47743   9.654   9.110  26.977
 2984POPC   C4B47744   9.659   9.120  26.777
 2985POPC   NC347745  -3.325  -0.879  15.790
 2985POPC   PO447746  -3.177  -0.762  15.725
 2985POPC   GL147747  -3.029  -0.645  15.660
 2985POPC   GL247748  -3.001  -0.627  15.754
 2985POPC   C1A47749  -2.881  -0.527  15.594
 2985POPC   D2A47750  -2.733  -0.410  15.529
 2985POPC   C3A47751  -2.585  -0.292  15.463
 2985POPC   C4A47752  -2.437  -0.175  15.398
 2985POPC   C1B47753  -2.759  -0.685  15.587
 2985POPC   C2B47754  -2.611  -0.568  15.521
 2985POPC   C3B47755  -2.463  -0.451  15.456
 2985POPC   C4B47756  -2.315  -0.333  15.391
 2986POPC   NC347757  -4.824   4.697  19.161
 2986POPC   PO447758  -4.664   4.756  19.056
 2986POPC   GL147759  -4.504   4.815  18.951
 2986POPC   GL247760  -4.445   4.764  19.014
 2986POPC   C1A47761  -4.344   4.873  18.847
 2986POPC   D2A47762  -4.184   4.932  18.742
 2986POPC   C3A47763  -4.024   4.990  18.638
 2986POPC   C4A47764  -3.864   5.049  18.533
 2986POPC   C1B47765  -4.361   4.711  18.731
 2986POPC   C2B47766  -4.201   4.770  18.626
 2986POPC   C3B47767  -4.041   4.828  18.522
 2986POPC   C4B47768  -3.881   4.887  18.417
 2987POPC   NC347769  24.775  13.467  19.558
 2987POPC   PO447770  24.610  13.428  19.452
 2987POPC   GL147771  24.445  13.389  19.346
 2987POPC   GL247772  24.440  13.485  19.318
 2987POPC   C1A47773  24.280  13.350  19.240
 2987POPC   D2A47774  24.115  13.310  19.135
 2987POPC   C3A47775  23.950  13.271  19.029
 2987POPC   C4A47776  23.785  13.232  18.923
 2987POPC   C1B47777  24.393  13.308  19.080
 2987POPC   C2B47778  24.228  13.268  18.975
 2987POPC   C3B47779  24.063  13.229  18.869
 2987POPC   C4B47780  23.898  13.190  18.763
 2988POPC   NC347781  10.549  -7.401  14.862
 2988POPC   PO447782  10.538  -7.208  14.812
 2988POPC   GL147783  10.527  -7.015  14.762
 2988POPC   GL247784  10.626  -7.008  14.768
 2988POPC   C1A47785  10.516  -6.822  14.711
 2988POPC   D2A47786  10.505  -6.628  14.661
 2988POPC   C3A47787  10.494  -6.435  14.610
 2988POPC   C4A47788  10.483  -6.242  14.560
 2988POPC   C1B47789  10.531  -6.871  14.518
 2988POPC   C2B47790  10.520  -6.678  14.468
 2988POPC   C3B47791  10.509  -6.485  14.417
 2988POPC   C4B47792  10.498  -6.291  14.367
 2989POPC   NC347793   1.339   8.729  -5.939
 2989POPC   PO447794   1.436   8.740  -5.764
 2989POPC   GL147795   1.533   8.751  -5.589
 2989POPC   GL247796   1.487   8.667  -5.559
 2989POPC   C1A47797   1.630   8.761  -5.415
 2989POPC   D2A47798   1.727   8.772  -5.240
 2989POPC   C3A47799   1.824   8.782  -5.066
 2989POPC   C4A47800   1.921   8.793  -4.891
 2989POPC   C1B47801   1.779   8.651  -5.491
 2989POPC   C2B47802   1.876   8.662  -5.316
 2989POPC   C3B47803   1.973   8.673  -5.142
 2989POPC   C4B47804   2.070   8.683  -4.967
 2990POPC   NC347805  12.185  -0.406  24.490
 2990POPC   PO447806  12.155  -0.285  24.334
 2990POPC   GL147807  12.125  -0.164  24.178
 2990POPC   GL247808  12.218  -0.129  24.187
 2990POPC   C1A47809  12.095  -0.043  24.021
 2990POPC   D2A47810  12.065   0.077  23.865
 2990POPC   C3A47811  12.035   0.198  23.708
 2990POPC   C4A47812  12.005   0.319  23.552
 2990POPC   C1B47813  12.162  -0.186  23.898
 2990POPC   C2B47814  12.132  -0.065  23.742
 2990POPC   C3B47815  12.102   0.056  23.585
 2990POPC   C4B47816  12.072   0.176  23.429
 2991POPC   NC347817   3.880  -0.161  23.696
 2991POPC   PO447818   3.945  -0.048  23.544
 2991POPC   GL147819   4.010   0.065  23.392
 2991POPC   GL247820   4.078   0.107  23.453
 2991POPC   C1A47821   4.076   0.178  23.241
 2991POPC   D2A47822   4.141   0.291  23.089
 2991POPC   C3A47823   4.207   0.404  22.938
 2991POPC   C4A47824   4.272   0.517  22.786
 2991POPC   C1B47825   4.208   0.036  23.192
 2991POPC   C2B47826   4.273   0.149  23.040
 2991POPC   C3B47827   4.339   0.262  22.889
 2991POPC   C4B47828   4.404   0.375  22.737
 2992POPC   NC347829  26.361  15.014  15.177
 2992POPC   PO447830  26.177  14.963  15.118
 2992POPC   GL147831  25.993  14.912  15.059
 2992POPC   GL247832  25.983  15.000  15.012
 2992POPC   C1A47833  25.809  14.861  15.000
 2992POPC   D2A47834  25.625  14.810  14.940
 2992POPC   C3A47835  25.441  14.759  14.881
 2992POPC   C4A47836  25.257  14.708  14.822
 2992POPC   C1B47837  25.885  14.781  14.833
 2992POPC   C2B47838  25.701  14.730  14.773
 2992POPC   C3B47839  25.517  14.679  14.714
 2992POPC   C4B47840  25.333  14.628  14.655
 2993POPC   NC347841   3.904  15.247  26.185
 2993POPC   PO447842   3.971  15.197  26.003
 2993POPC   GL147843   4.038  15.147  25.821
 2993POPC   GL247844   4.104  15.222  25.825
 2993POPC   C1A47845   4.105  15.097  25.639
 2993POPC   D2A47846   4.171  15.047  25.458
 2993POPC   C3A47847   4.238  14.997  25.276
 2993POPC   C4A47848   4.305  14.947  25.094
 2993POPC   C1B47849   4.239  14.975  25.723
 2993POPC   C2B47850   4.306  14.925  25.541
 2993POPC   C3B47851   4.373  14.875  25.359
 2993POPC   C4B47852   4.440  14.825  25.177
 2994POPC   NC347853  25.131  11.843  19.444
 2994POPC   PO447854  24.961  11.824  19.340
 2994POPC   GL147855  24.791  11.805  19.236
 2994POPC   GL247856  24.824  11.718  19.199
 2994POPC   C1A47857  24.622  11.785  19.132
 2994POPC   D2A47858  24.452  11.766  19.028
 2994POPC   C3A47859  24.283  11.746  18.924
 2994POPC   C4A47860  24.113  11.727  18.820
 2994POPC   C1B47861  24.539  11.688  19.286
 2994POPC   C2B47862  24.369  11.668  19.182
 2994POPC   C3B47863  24.199  11.649  19.078
 2994POPC   C4B47864  24.030  11.630  18.974
 2995POPC   NC347865  -3.774   1.187   1.858
 2995POPC   PO447866  -3.624   1.287   1.945
 2995POPC   GL147867  -3.474   1.387   2.032
 2995POPC   GL247868  -3.426   1.301   2.047
 2995POPC   C1A47869  -3.325   1.487   2.119
 2995POPC   D2A47870  -3.175   1.587   2.207
 2995POPC   C3A47871  -3.026   1.687   2.294
 2995POPC   C4A47872  -2.876   1.787   2.381
 2995POPC   C1B47873  -3.235   1.507   1.942
 2995POPC   C2B47874  -3.085   1.607   2.029
 2995POPC   C3B47875  -2.936   1.707   2.116
 2995POPC   C4B47876  -2.786   1.807   2.203
 2996POPC   NC347877   4.839   0.418  24.460
 2996POPC   PO447878   4.891   0.524  24.298
 2996POPC   GL147879   4.943   0.630  24.136
 2996POPC   GL247880   4.983   0.548  24.096
 2996POPC   C1A47881   4.995   0.735  23.974
 2996POPC   D2A47882   5.046   0.841  23.813
 2996POPC   C3A47883   5.098   0.946  23.651
 2996POPC   C4A47884   5.150   1.052  23.489
 2996POPC   C1B47885   4.819   0.691  23.889
 2996POPC   C2B47886   4.871   0.797  23.728
 2996POPC   C3B47887   4.923   0.902  23.566
 2996POPC   C4B47888   4.974   1.008  23.404
 2997POPC   NC347889   7.581  -7.620  13.239
 2997POPC   PO447890   7.606  -7.424  13.208
 2997POPC   GL147891   7.631  -7.228  13.177
 2997POPC   GL247892   7.651  -7.215  13.274
 2997POPC   C1A47893   7.656  -7.032  13.145
 2997POPC   D2A47894   7.680  -6.836  13.114
 2997POPC   C3A47895   7.705  -6.640  13.082
 2997POPC   C4A47896   7.730  -6.444  13.051
 2997POPC   C1B47897   7.850  -7.063  13.109
 2997POPC   C2B47898   7.875  -6.867  13.077
 2997POPC   C3B47899   7.899  -6.671  13.046
 2997POPC   C4B47900   7.924  -6.475  13.015
 2998POPC   NC347901  16.716  19.727  -3.662
 2998POPC   PO447902  16.639  19.623  -3.510
 2998POPC   GL147903  16.562  19.519  -3.358
 2998POPC   GL247904  16.578  19.434  -3.408
 2998POPC   C1A47905  16.485  19.414  -3.205
 2998POPC   D2A47906  16.409  19.310  -3.053
 2998POPC   C3A47907  16.332  19.205  -2.900
 2998POPC   C4A47908  16.255  19.101  -2.748
 2998POPC   C1B47909  16.668  19.399  -3.124
 2998POPC   C2B47910  16.591  19.295  -2.972
 2998POPC   C3B47911  16.514  19.190  -2.819
 2998POPC   C4B47912  16.437  19.086  -2.667
 2999POPC   NC347913  18.141  -3.484   1.210
 2999POPC   PO447914  18.048  -3.333   1.303
 2999POPC   GL147915  17.955  -3.182   1.396
 2999POPC   GL247916  18.016  -3.117   1.351
 2999POPC   C1A47917  17.862  -3.031   1.488
 2999POPC   D2A47918  17.769  -2.881   1.581
 2999POPC   C3A47919  17.676  -2.730   1.673
 2999POPC   C4A47920  17.583  -2.579   1.766
 2999POPC   C1B47921  17.734  -3.017   1.336
 2999POPC   C2B47922  17.641  -2.866   1.428
 2999POPC   C3B47923  17.548  -2.715   1.521
 2999POPC   C4B47924  17.455  -2.565   1.613
 3000POPC   NC347925  18.676  24.614  15.697
 3000POPC   PO447926  18.575  24.455  15.628
 3000POPC   GL147927  18.474  24.296  15.559
 3000POPC   GL247928  18.501  24.320  15.466
 3000POPC   C1A47929  18.374  24.138  15.490
 3000POPC   D2A47930  18.273  23.979  15.422
 3000POPC   C3A47931  18.173  23.821  15.353
 3000POPC   C4A47932  18.072  23.662  15.284
 3000POPC   C1B47933  18.538  24.026  15.508
 3000POPC   C2B47934  18.438  23.867  15.440
 3000POPC   C3B47935  18.337  23.708  15.371
 3000POPC   C4B47936  18.237  23.550  15.302
 3001POPC   NC347937  18.395  13.718  -5.560
 3001POPC   PO447938  18.298  13.680  -5.389
 3001POPC   GL147939  18.201  13.642  -5.218
 3001POPC   GL247940  18.114  13.657  -5.264
 3001POPC   C1A47941  18.105  13.604  -5.047
 3001POPC   D2A47942  18.008  13.565  -4.877
 3001POPC   C3A47943  17.912  13.527  -4.706
 3001POPC   C4A47944  17.815  13.489  -4.535
 3001POPC   C1B47945  18.097  13.410  -5.095
 3001POPC   C2B47946  18.000  13.371  -4.924
 3001POPC   C3B47947  17.904  13.333  -4.754
 3001POPC   C4B47948  17.807  13.295  -4.583
 3002POPC   NC347949   2.691   5.406  25.875
 3002POPC   PO447950   2.773   5.458  25.700
 3002POPC   GL147951   2.855   5.510  25.525
 3002POPC   GL247952   2.885   5.416  25.511
 3002POPC   C1A47953   2.936   5.563  25.350
 3002POPC   D2A47954   3.018   5.615  25.176
 3002POPC   C3A47955   3.099   5.668  25.001
 3002POPC   C4A47956   3.181   5.720  24.826
 3002POPC   C1B47957   2.764   5.520  25.257
 3002POPC   C2B47958   2.846   5.573  25.083
 3002POPC   C3B47959   2.928   5.625  24.908
 3002POPC   C4B47960   3.009   5.677  24.733
 3003POPC   NC347961  12.780   7.389  27.548
 3003POPC   PO447962  12.743   7.417  27.353
 3003POPC   GL147963  12.706   7.445  27.158
 3003POPC   GL247964  12.796   7.408  27.136
 3003POPC   C1A47965  12.670   7.474  26.964
 3003POPC   D2A47966  12.633   7.502  26.769
 3003POPC   C3A47967  12.597   7.531  26.575
 3003POPC   C4A47968  12.560   7.559  26.380
 3003POPC   C1B47969  12.591   7.290  26.952
 3003POPC   C2B47970  12.554   7.319  26.757
 3003POPC   C3B47971  12.518   7.347  26.563
 3003POPC   C4B47972  12.481   7.376  26.368
 3004POPC   NC347973  22.022  -1.655  16.473
 3004POPC   PO447974  21.887  -1.526  16.401
 3004POPC   GL147975  21.752  -1.397  16.329
 3004POPC   GL247976  21.729  -1.461  16.256
 3004POPC   C1A47977  21.617  -1.268  16.257
 3004POPC   D2A47978  21.483  -1.138  16.186
 3004POPC   C3A47979  21.348  -1.009  16.114
 3004POPC   C4A47980  21.213  -0.880  16.042
 3004POPC   C1B47981  21.477  -1.349  16.374
 3004POPC   C2B47982  21.342  -1.220  16.303
 3004POPC   C3B47983  21.208  -1.091  16.231
 3004POPC   C4B47984  21.073  -0.962  16.159
 3005POPC   NC347985  -6.696  11.204   2.902
 3005POPC   PO447986  -6.511  11.191   2.976
 3005POPC   GL147987  -6.326  11.178   3.050
 3005POPC   GL247988  -6.362  11.140   3.135
 3005POPC   C1A47989  -6.140  11.164   3.124
 3005POPC   D2A47990  -5.955  11.151   3.197
 3005POPC   C3A47991  -5.769  11.137   3.271
 3005POPC   C4A47992  -5.584  11.124   3.345
 3005POPC   C1B47993  -6.124  10.979   3.049
 3005POPC   C2B47994  -5.938  10.966   3.123
 3005POPC   C3B47995  -5.753  10.953   3.196
 3005POPC   C4B47996  -5.568  10.939   3.270
 3006POPC   NC347997   0.040  23.984   4.405
 3006POPC   PO447998   0.149  23.828   4.467
 3006POPC   GL147999   0.258  23.672   4.529
 3006POPC   GL248000   0.341  23.728   4.524
 3006POPC   C1A48001   0.367  23.516   4.591
 3006POPC   D2A48002   0.475  23.360   4.652
 3006POPC   C3A48003   0.584  23.204   4.714
 3006POPC   C4A48004   0.693  23.048   4.776
 3006POPC   C1B48005   0.340  23.573   4.781
 3006POPC   C2B48006   0.449  23.417   4.842
 3006POPC   C3B48007   0.558  23.261   4.904
 3006POPC   C4B48008   0.666  23.105   4.966
 3007POPC   NC348009  20.072   2.622  -2.959
 3007POPC   PO448010  19.955   2.703  -2.819
 3007POPC   GL148011  19.838   2.784  -2.679
 3007POPC   GL248012  19.909   2.851  -2.658
 3007POPC   C1A48013  19.720   2.865  -2.539
 3007POPC   D2A48014  19.603   2.947  -2.398
 3007POPC   C3A48015  19.485   3.028  -2.258
 3007POPC   C4A48016  19.368   3.109  -2.118
 3007POPC   C1B48017  19.643   2.989  -2.675
 3007POPC   C2B48018  19.525   3.070  -2.535
 3007POPC   C3B48019  19.408   3.152  -2.395
 3007POPC   C4B48020  19.291   3.233  -2.255
 3008POPC   NC348021  -8.154   8.763  10.867
 3008POPC   PO448022  -7.955   8.778  10.853
 3008POPC   GL148023  -7.756   8.793  10.839
 3008POPC   GL248024  -7.756   8.860  10.913
 3008POPC   C1A48025  -7.557   8.808  10.826
 3008POPC   D2A48026  -7.358   8.823  10.812
 3008POPC   C3A48027  -7.159   8.838  10.799
 3008POPC   C4A48028  -6.960   8.853  10.785
 3008POPC   C1B48029  -7.537   8.661  10.959
 3008POPC   C2B48030  -7.338   8.676  10.946
 3008POPC   C3B48031  -7.139   8.691  10.932
 3008POPC   C4B48032  -6.940   8.706  10.919
 3009POPC   NC348033  12.960  -7.459  13.428
 3009POPC   PO448034  12.927  -7.266  13.388
 3009POPC   GL148035  12.894  -7.073  13.348
 3009POPC   GL248036  12.942  -7.082  13.262
 3009POPC   C1A48037  12.861  -6.880  13.309
 3009POPC   D2A48038  12.827  -6.686  13.269
 3009POPC   C3A48039  12.794  -6.493  13.230
 3009POPC   C4A48040  12.761  -6.300  13.190
 3009POPC   C1B48041  12.689  -6.928  13.218
 3009POPC   C2B48042  12.656  -6.734  13.179
 3009POPC   C3B48043  12.622  -6.541  13.139
 3009POPC   C4B48044  12.589  -6.348  13.099
 3010POPC   NC348045  24.708  11.227  20.168
 3010POPC   PO448046  24.544  11.216  20.054
 3010POPC   GL148047  24.380  11.205  19.940
 3010POPC   GL248048  24.420  11.272  19.877
 3010POPC   C1A48049  24.217  11.194  19.825
 3010POPC   D2A48050  24.053  11.182  19.711
 3010POPC   C3A48051  23.890  11.171  19.596
 3010POPC   C4A48052  23.726  11.160  19.482
 3010POPC   C1B48053  24.301  11.046  19.720
 3010POPC   C2B48054  24.137  11.035  19.605
 3010POPC   C3B48055  23.974  11.024  19.491
 3010POPC   C4B48056  23.810  11.012  19.376
 3011POPC   NC348057  26.643   4.850  14.153
 3011POPC   PO448058  26.457   4.908  14.107
 3011POPC   GL148059  26.271   4.966  14.061
 3011POPC   GL248060  26.297   5.061  14.075
 3011POPC   C1A48061  26.085   5.024  14.015
 3011POPC   D2A48062  25.900   5.081  13.970
 3011POPC   C3A48063  25.714   5.139  13.924
 3011POPC   C4A48064  25.528   5.197  13.878
 3011POPC   C1B48065  26.137   5.037  13.823
 3011POPC   C2B48066  25.951   5.095  13.777
 3011POPC   C3B48067  25.766   5.153  13.731
 3011POPC   C4B48068  25.580   5.211  13.685
 3012POPC   NC348069  -1.320   6.935  -3.916
 3012POPC   PO448070  -1.195   6.964  -3.762
 3012POPC   GL148071  -1.070   6.993  -3.608
 3012POPC   GL248072  -1.139   6.958  -3.545
 3012POPC   C1A48073  -0.945   7.023  -3.455
 3012POPC   D2A48074  -0.821   7.052  -3.301
 3012POPC   C3A48075  -0.696   7.082  -3.148
 3012POPC   C4A48076  -0.571   7.111  -2.994
 3012POPC   C1B48077  -0.873   6.838  -3.478
 3012POPC   C2B48078  -0.748   6.867  -3.325
 3012POPC   C3B48079  -0.623   6.897  -3.171
 3012POPC   C4B48080  -0.498   6.926  -3.017
 3013POPC   NC348081  -7.438  15.209   9.791
 3013POPC   PO448082  -7.247  15.151   9.792
 3013POPC   GL148083  -7.056  15.093   9.793
 3013POPC   GL248084  -7.081  15.009   9.841
 3013POPC   C1A48085  -6.864  15.035   9.793
 3013POPC   D2A48086  -6.673  14.976   9.794
 3013POPC   C3A48087  -6.481  14.918   9.794
 3013POPC   C4A48088  -6.290  14.860   9.795
 3013POPC   C1B48089  -6.892  14.942   9.618
 3013POPC   C2B48090  -6.700  14.884   9.619
 3013POPC   C3B48091  -6.509  14.826   9.619
 3013POPC   C4B48092  -6.318  14.768   9.620
 3014POPC   NC348093  -0.735  -2.749  17.183
 3014POPC   PO448094  -0.619  -2.610  17.099
 3014POPC   GL148095  -0.503  -2.471  17.015
 3014POPC   GL248096  -0.459  -2.541  16.959
 3014POPC   C1A48097  -0.386  -2.331  16.931
 3014POPC   D2A48098  -0.270  -2.192  16.848
 3014POPC   C3A48099  -0.153  -2.052  16.764
 3014POPC   C4A48100  -0.037  -1.913  16.680
 3014POPC   C1B48101  -0.524  -2.302  16.789
 3014POPC   C2B48102  -0.407  -2.163  16.705
 3014POPC   C3B48103  -0.291  -2.023  16.622
 3014POPC   C4B48104  -0.175  -1.884  16.538
 3015POPC   NC348105   7.842   8.038  -7.885
 3015POPC   PO448106   7.863   8.061  -7.687
 3015POPC   GL148107   7.884   8.084  -7.489
 3015POPC   GL248108   7.865   7.987  -7.476
 3015POPC   C1A48109   7.905   8.107  -7.292
 3015POPC   D2A48110   7.925   8.131  -7.094
 3015POPC   C3A48111   7.946   8.154  -6.897
 3015POPC   C4A48112   7.967   8.177  -6.699
 3015POPC   C1B48113   8.100   8.068  -7.308
 3015POPC   C2B48114   8.121   8.091  -7.110
 3015POPC   C3B48115   8.142   8.114  -6.912
 3015POPC   C4B48116   8.162   8.138  -6.715
 3016POPC   NC348117  13.013  -7.769  11.186
 3016POPC   PO448118  12.981  -7.572  11.170
 3016POPC   GL148119  12.949  -7.375  11.154
 3016POPC   GL248120  12.967  -7.380  11.056
 3016POPC   C1A48121  12.916  -7.178  11.138
 3016POPC   D2A48122  12.884  -6.982  11.122
 3016POPC   C3A48123  12.851  -6.785  11.106
 3016POPC   C4A48124  12.819  -6.588  11.090
 3016POPC   C1B48125  12.722  -7.213  11.104
 3016POPC   C2B48126  12.690  -7.016  11.088
 3016POPC   C3B48127  12.657  -6.819  11.072
 3016POPC   C4B48128  12.625  -6.623  11.056
 3017POPC   NC348129  -4.133   3.215  19.195
 3017POPC   PO448130  -3.981   3.294  19.091
 3017POPC   GL148131  -3.829   3.373  18.987
 3017POPC   GL248132  -3.788   3.282  18.978
 3017POPC   C1A48133  -3.678   3.451  18.883
 3017POPC   D2A48134  -3.526   3.530  18.779
 3017POPC   C3A48135  -3.375   3.608  18.675
 3017POPC   C4A48136  -3.223   3.687  18.571
 3017POPC   C1B48137  -3.779   3.421  18.713
 3017POPC   C2B48138  -3.627   3.500  18.609
 3017POPC   C3B48139  -3.476   3.579  18.505
 3017POPC   C4B48140  -3.324   3.657  18.401
 3018POPC   NC348141  -0.677  23.457   4.388
 3018POPC   PO448142  -0.562  23.305   4.450
 3018POPC   GL148143  -0.447  23.153   4.512
 3018POPC   GL248144  -0.367  23.213   4.508
 3018POPC   C1A48145  -0.332  23.002   4.574
 3018POPC   D2A48146  -0.218  22.850   4.636
 3018POPC   C3A48147  -0.103  22.699   4.698
 3018POPC   C4A48148   0.012  22.547   4.760
 3018POPC   C1B48149  -0.363  23.057   4.764
 3018POPC   C2B48150  -0.248  22.905   4.826
 3018POPC   C3B48151  -0.133  22.754   4.888
 3018POPC   C4B48152  -0.018  22.602   4.950
 3019POPC   NC348153   6.100  26.511   3.587
 3019POPC   PO448154   6.138  26.328   3.659
 3019POPC   GL148155   6.176  26.145   3.731
 3019POPC   GL248156   6.274  26.158   3.711
 3019POPC   C1A48157   6.215  25.962   3.802
 3019POPC   D2A48158   6.253  25.780   3.874
 3019POPC   C3A48159   6.292  25.597   3.945
 3019POPC   C4A48160   6.330  25.414   4.017
 3019POPC   C1B48161   6.242  26.040   3.985
 3019POPC   C2B48162   6.281  25.857   4.056
 3019POPC   C3B48163   6.319  25.674   4.128
 3019POPC   C4B48164   6.357  25.491   4.199
 3020POPC   NC348165  19.211  18.533  -2.923
 3020POPC   PO448166  19.109  18.440  -2.778
 3020POPC   GL148167  19.007  18.347  -2.633
 3020POPC   GL248168  19.092  18.311  -2.596
 3020POPC   C1A48169  18.905  18.254  -2.489
 3020POPC   D2A48170  18.802  18.162  -2.344
 3020POPC   C3A48171  18.700  18.069  -2.200
 3020POPC   C4A48172  18.598  17.976  -2.055
 3020POPC   C1B48173  18.922  18.416  -2.373
 3020POPC   C2B48174  18.820  18.323  -2.228
 3020POPC   C3B48175  18.718  18.231  -2.083
 3020POPC   C4B48176  18.615  18.138  -1.939
 3021POPC   NC348177   7.825  -7.155   4.643
 3021POPC   PO448178   7.848  -6.966   4.703
 3021POPC   GL148179   7.871  -6.777   4.763
 3021POPC   GL248180   7.962  -6.775   4.722
 3021POPC   C1A48181   7.895  -6.587   4.823
 3021POPC   D2A48182   7.918  -6.398   4.883
 3021POPC   C3A48183   7.942  -6.208   4.943
 3021POPC   C4A48184   7.965  -6.019   5.003
 3021POPC   C1B48185   7.815  -6.523   4.651
 3021POPC   C2B48186   7.839  -6.334   4.711
 3021POPC   C3B48187   7.862  -6.144   4.771
 3021POPC   C4B48188   7.885  -5.955   4.831
 3022POPC   NC348189  27.460   7.909   6.720
 3022POPC   PO448190  27.264   7.930   6.755
 3022POPC   GL148191  27.068   7.951   6.790
 3022POPC   GL248192  27.074   8.047   6.764
 3022POPC   C1A48193  26.872   7.972   6.825
 3022POPC   D2A48194  26.677   7.992   6.860
 3022POPC   C3A48195  26.481   8.013   6.895
 3022POPC   C4A48196  26.285   8.034   6.930
 3022POPC   C1B48197  26.833   7.923   6.635
 3022POPC   C2B48198  26.638   7.944   6.670
 3022POPC   C3B48199  26.442   7.964   6.705
 3022POPC   C4B48200  26.246   7.985   6.740
 3023POPC   NC348201  23.707  16.375   0.246
 3023POPC   PO448202  23.552  16.305   0.351
 3023POPC   GL148203  23.397  16.235   0.456
 3023POPC   GL248204  23.338  16.244   0.376
 3023POPC   C1A48205  23.242  16.165   0.561
 3023POPC   D2A48206  23.087  16.094   0.666
 3023POPC   C3A48207  22.932  16.024   0.771
 3023POPC   C4A48208  22.777  15.954   0.876
 3023POPC   C1B48209  23.288  15.978   0.505
 3023POPC   C2B48210  23.133  15.908   0.610
 3023POPC   C3B48211  22.978  15.838   0.715
 3023POPC   C4B48212  22.823  15.768   0.820
 3024POPC   NC348213  15.554  -6.537   5.504
 3024POPC   PO448214  15.488  -6.355   5.553
 3024POPC   GL148215  15.422  -6.173   5.602
 3024POPC   GL248216  15.514  -6.147   5.631
 3024POPC   C1A48217  15.356  -5.991   5.651
 3024POPC   D2A48218  15.289  -5.808   5.701
 3024POPC   C3A48219  15.223  -5.626   5.750
 3024POPC   C4A48220  15.157  -5.444   5.799
 3024POPC   C1B48221  15.394  -5.926   5.466
 3024POPC   C2B48222  15.328  -5.744   5.515
 3024POPC   C3B48223  15.262  -5.562   5.564
 3024POPC   C4B48224  15.196  -5.380   5.614
 3025POPC   NC348225   7.548  -2.238  23.051
 3025POPC   PO448226   7.573  -2.101  22.907
 3025POPC   GL148227   7.598  -1.964  22.763
 3025POPC   GL248228   7.644  -2.032  22.707
 3025POPC   C1A48229   7.623  -1.827  22.620
 3025POPC   D2A48230   7.648  -1.690  22.476
 3025POPC   C3A48231   7.673  -1.553  22.333
 3025POPC   C4A48232   7.698  -1.416  22.189
 3025POPC   C1B48233   7.447  -1.879  22.539
 3025POPC   C2B48234   7.472  -1.742  22.396
 3025POPC   C3B48235   7.497  -1.605  22.252
 3025POPC   C4B48236   7.522  -1.468  22.109
 3026POPC   NC348237  -5.111  20.085  10.829
 3026POPC   PO448238  -4.947  19.972  10.815
 3026POPC   GL148239  -4.783  19.859  10.801
 3026POPC   GL248240  -4.765  19.873  10.899
 3026POPC   C1A48241  -4.618  19.746  10.788
 3026POPC   D2A48242  -4.454  19.633  10.774
 3026POPC   C3A48243  -4.289  19.520  10.761
 3026POPC   C4A48244  -4.125  19.407  10.747
 3026POPC   C1B48245  -4.727  19.583  10.830
 3026POPC   C2B48246  -4.562  19.470  10.816
 3026POPC   C3B48247  -4.398  19.357  10.803
 3026POPC   C4B48248  -4.233  19.244  10.789
 3027POPC   NC348249  22.989  19.745  17.523
 3027POPC   PO448250  22.847  19.630  17.442
 3027POPC   GL148251  22.705  19.515  17.361
 3027POPC   GL248252  22.763  19.500  17.280
 3027POPC   C1A48253  22.563  19.399  17.280
 3027POPC   D2A48254  22.421  19.284  17.199
 3027POPC   C3A48255  22.279  19.168  17.118
 3027POPC   C4A48256  22.137  19.053  17.037
 3027POPC   C1B48257  22.645  19.238  17.366
 3027POPC   C2B48258  22.503  19.123  17.285
 3027POPC   C3B48259  22.361  19.008  17.204
 3027POPC   C4B48260  22.219  18.892  17.123
 3028POPC   NC348261  -0.778  24.518   9.767
 3028POPC   PO448262  -0.662  24.355   9.777
 3028POPC   GL148263  -0.546  24.192   9.787
 3028POPC   GL248264  -0.469  24.249   9.815
 3028POPC   C1A48265  -0.431  24.029   9.797
 3028POPC   D2A48266  -0.315  23.866   9.807
 3028POPC   C3A48267  -0.200  23.703   9.817
 3028POPC   C4A48268  -0.084  23.540   9.827
 3028POPC   C1B48269  -0.483  24.004   9.989
 3028POPC   C2B48270  -0.367  23.841   9.999
 3028POPC   C3B48271  -0.252  23.678  10.009
 3028POPC   C4B48272  -0.136  23.515  10.019
 3029POPC   NC348273  -2.186   1.534  -0.536
 3029POPC   PO448274  -2.059   1.629  -0.414
 3029POPC   GL148275  -1.932   1.724  -0.292
 3029POPC   GL248276  -1.944   1.652  -0.223
 3029POPC   C1A48277  -1.804   1.819  -0.171
 3029POPC   D2A48278  -1.677   1.913  -0.049
 3029POPC   C3A48279  -1.549   2.008   0.072
 3029POPC   C4A48280  -1.422   2.103   0.194
 3029POPC   C1B48281  -1.652   1.715  -0.250
 3029POPC   C2B48282  -1.525   1.810  -0.128
 3029POPC   C3B48283  -1.397   1.905  -0.007
 3029POPC   C4B48284  -1.270   2.000   0.115
 3030POPC   NC348285  -3.273  18.456  18.997
 3030POPC   PO448286  -3.129  18.360  18.897
 3030POPC   GL148287  -2.985  18.264  18.797
 3030POPC   GL248288  -2.930  18.348  18.796
 3030POPC   C1A48289  -2.840  18.169  18.697
 3030POPC   D2A48290  -2.696  18.073  18.598
 3030POPC   C3A48291  -2.551  17.978  18.498
 3030POPC   C4A48292  -2.407  17.882  18.398
 3030POPC   C1B48293  -2.756  18.115  18.871
 3030POPC   C2B48294  -2.611  18.020  18.771
 3030POPC   C3B48295  -2.467  17.924  18.671
 3030POPC   C4B48296  -2.323  17.829  18.571
 3031POPC   NC348297  25.960   2.760  13.798
 3031POPC   PO448298  25.781   2.838  13.757
 3031POPC   GL148299  25.602   2.916  13.716
 3031POPC   GL248300  25.600   2.866  13.629
 3031POPC   C1A48301  25.422   2.994  13.674
 3031POPC   D2A48302  25.243   3.072  13.633
 3031POPC   C3A48303  25.063   3.150  13.591
 3031POPC   C4A48304  24.884   3.228  13.550
 3031POPC   C1B48305  25.334   2.840  13.766
 3031POPC   C2B48306  25.155   2.918  13.724
 3031POPC   C3B48307  24.975   2.996  13.683
 3031POPC   C4B48308  24.796   3.074  13.642
 3032POPC   NC348309   2.298  11.843  26.211
 3032POPC   PO448310   2.374  11.820  26.027
 3032POPC   GL148311   2.450  11.797  25.843
 3032POPC   GL248312   2.471  11.895  25.840
 3032POPC   C1A48313   2.526  11.775  25.660
 3032POPC   D2A48314   2.603  11.752  25.476
 3032POPC   C3A48315   2.679  11.730  25.293
 3032POPC   C4A48316   2.755  11.707  25.109
 3032POPC   C1B48317   2.707  11.740  25.739
 3032POPC   C2B48318   2.783  11.718  25.555
 3032POPC   C3B48319   2.859  11.695  25.372
 3032POPC   C4B48320   2.935  11.673  25.188
 3033POPC   NC348321  -2.974  15.497  21.390
 3033POPC   PO448322  -2.837  15.434  21.259
 3033POPC   GL148323  -2.700  15.371  21.128
 3033POPC   GL248324  -2.666  15.464  21.118
 3033POPC   C1A48325  -2.563  15.307  20.997
 3033POPC   D2A48326  -2.426  15.244  20.865
 3033POPC   C3A48327  -2.289  15.180  20.734
 3033POPC   C4A48328  -2.152  15.117  20.603
 3033POPC   C1B48329  -2.435  15.275  21.146
 3033POPC   C2B48330  -2.298  15.212  21.015
 3033POPC   C3B48331  -2.161  15.148  20.884
 3033POPC   C4B48332  -2.024  15.085  20.753
 3034POPC   NC348333  25.881  18.230   9.413
 3034POPC   PO448334  25.702  18.140   9.423
 3034POPC   GL148335  25.523  18.050   9.433
 3034POPC   GL248336  25.534  18.019   9.338
 3034POPC   C1A48337  25.345  17.961   9.442
 3034POPC   D2A48338  25.166  17.871   9.452
 3034POPC   C3A48339  24.988  17.782   9.461
 3034POPC   C4A48340  24.809  17.692   9.471
 3034POPC   C1B48341  25.432  17.793   9.508
 3034POPC   C2B48342  25.254  17.704   9.517
 3034POPC   C3B48343  25.075  17.614   9.527
 3034POPC   C4B48344  24.897  17.525   9.536
 3035POPC   NC348345  -1.016  16.248  22.822
 3035POPC   PO448346  -0.897  16.178  22.677
 3035POPC   GL148347  -0.778  16.108  22.532
 3035POPC   GL248348  -0.698  16.145  22.580
 3035POPC   C1A48349  -0.659  16.039  22.387
 3035POPC   D2A48350  -0.540  15.969  22.243
 3035POPC   C3A48351  -0.421  15.900  22.098
 3035POPC   C4A48352  -0.302  15.830  21.953
 3035POPC   C1B48353  -0.640  15.866  22.486
 3035POPC   C2B48354  -0.521  15.796  22.342
 3035POPC   C3B48355  -0.402  15.727  22.197
 3035POPC   C4B48356  -0.283  15.657  22.052
 3036POPC   NC348357   2.768  19.553  -3.715
 3036POPC   PO448358   2.847  19.451  -3.562
 3036POPC   GL148359   2.926  19.349  -3.409
 3036POPC   GL248360   2.844  19.366  -3.355
 3036POPC   C1A48361   3.005  19.247  -3.257
 3036POPC   D2A48362   3.085  19.144  -3.104
 3036POPC   C3A48363   3.164  19.042  -2.952
 3036POPC   C4A48364   3.243  18.940  -2.799
 3036POPC   C1B48365   2.923  19.078  -3.327
 3036POPC   C2B48366   3.002  18.976  -3.174
 3036POPC   C3B48367   3.082  18.874  -3.022
 3036POPC   C4B48368   3.161  18.772  -2.869
 3037POPC   NC348369   0.582  21.837  19.964
 3037POPC   PO448370   0.684  21.707  19.852
 3037POPC   GL148371   0.786  21.577  19.740
 3037POPC   GL248372   0.845  21.651  19.708
 3037POPC   C1A48373   0.889  21.446  19.628
 3037POPC   D2A48374   0.991  21.316  19.517
 3037POPC   C3A48375   1.094  21.185  19.405
 3037POPC   C4A48376   1.196  21.055  19.293
 3037POPC   C1B48377   1.014  21.413  19.781
 3037POPC   C2B48378   1.116  21.283  19.669
 3037POPC   C3B48379   1.218  21.153  19.558
 3037POPC   C4B48380   1.321  21.022  19.446
 3038POPC   NC348381  25.998  15.652  15.702
 3038POPC   PO448382  25.817  15.594  15.638
 3038POPC   GL148383  25.636  15.536  15.574
 3038POPC   GL248384  25.666  15.549  15.480
 3038POPC   C1A48385  25.456  15.479  15.510
 3038POPC   D2A48386  25.275  15.421  15.447
 3038POPC   C3A48387  25.095  15.364  15.383
 3038POPC   C4A48388  24.914  15.306  15.319
 3038POPC   C1B48389  25.518  15.289  15.505
 3038POPC   C2B48390  25.338  15.231  15.441
 3038POPC   C3B48391  25.157  15.174  15.377
 3038POPC   C4B48392  24.976  15.116  15.314
 3039POPC   NC348393  18.993  24.494   4.121
 3039POPC   PO448394  18.896  24.332   4.187
 3039POPC   GL148395  18.799  24.170   4.253
 3039POPC   GL248396  18.885  24.131   4.285
 3039POPC   C1A48397  18.701  24.009   4.319
 3039POPC   D2A48398  18.604  23.847   4.386
 3039POPC   C3A48399  18.506  23.686   4.452
 3039POPC   C4A48400  18.409  23.524   4.518
 3039POPC   C1B48401  18.676  24.097   4.497
 3039POPC   C2B48402  18.578  23.935   4.563
 3039POPC   C3B48403  18.481  23.774   4.630
 3039POPC   C4B48404  18.384  23.612   4.696
 3040POPC   NC348405   2.140  25.886  13.519
 3040POPC   PO448406   2.225  25.710  13.476
 3040POPC   GL148407   2.310  25.534  13.433
 3040POPC   GL248408   2.384  25.554  13.498
 3040POPC   C1A48409   2.395  25.359  13.390
 3040POPC   D2A48410   2.481  25.183  13.346
 3040POPC   C3A48411   2.566  25.008  13.303
 3040POPC   C4A48412   2.651  24.832  13.260
 3040POPC   C1B48413   2.290  25.272  13.535
 3040POPC   C2B48414   2.375  25.096  13.492
 3040POPC   C3B48415   2.460  24.920  13.449
 3040POPC   C4B48416   2.545  24.745  13.406
 3041POPC   NC348417  13.158  -3.915  20.857
 3041POPC   PO448418  13.124  -3.764  20.730
 3041POPC   GL148419  13.090  -3.613  20.603
 3041POPC   GL248420  13.147  -3.659  20.534
 3041POPC   C1A48421  13.056  -3.463  20.476
 3041POPC   D2A48422  13.023  -3.312  20.348
 3041POPC   C3A48423  12.989  -3.162  20.221
 3041POPC   C4A48424  12.955  -3.011  20.094
 3041POPC   C1B48425  12.895  -3.558  20.405
 3041POPC   C2B48426  12.861  -3.408  20.278
 3041POPC   C3B48427  12.828  -3.257  20.151
 3041POPC   C4B48428  12.794  -3.106  20.024
 3042POPC   NC348429   0.284  14.636  24.442
 3042POPC   PO448430   0.393  14.584  24.283
 3042POPC   GL148431   0.502  14.532  24.124
 3042POPC   GL248432   0.580  14.513  24.184
 3042POPC   C1A48433   0.612  14.480  23.965
 3042POPC   D2A48434   0.721  14.427  23.806
 3042POPC   C3A48435   0.831  14.375  23.647
 3042POPC   C4A48436   0.940  14.323  23.488
 3042POPC   C1B48437   0.550  14.290  23.985
 3042POPC   C2B48438   0.660  14.238  23.826
 3042POPC   C3B48439   0.769  14.186  23.667
 3042POPC   C4B48440   0.879  14.134  23.508
 3043POPC   NC348441  25.695  11.784  18.446
 3043POPC   PO448442  25.518  11.764  18.355
 3043POPC   GL148443  25.341  11.744  18.264
 3043POPC   GL248444  25.385  11.694  18.189
 3043POPC   C1A48445  25.164  11.724  18.173
 3043POPC   D2A48446  24.987  11.705  18.083
 3043POPC   C3A48447  24.810  11.685  17.992
 3043POPC   C4A48448  24.633  11.665  17.901
 3043POPC   C1B48449  25.133  11.552  18.270
 3043POPC   C2B48450  24.956  11.532  18.179
 3043POPC   C3B48451  24.779  11.512  18.089
 3043POPC   C4B48452  24.602  11.493  17.998
 3044POPC   NC348453  -3.466   5.461  -1.410
 3044POPC   PO448454  -3.318   5.509  -1.284
 3044POPC   GL148455  -3.170   5.557  -1.158
 3044POPC   GL248456  -3.223   5.519  -1.082
 3044POPC   C1A48457  -3.022   5.605  -1.032
 3044POPC   D2A48458  -2.875   5.652  -0.906
 3044POPC   C3A48459  -2.727   5.700  -0.780
 3044POPC   C4A48460  -2.579   5.748  -0.654
 3044POPC   C1B48461  -2.938   5.426  -1.063
 3044POPC   C2B48462  -2.791   5.474  -0.937
 3044POPC   C3B48463  -2.643   5.521  -0.811
 3044POPC   C4B48464  -2.495   5.569  -0.685
 3045POPC   NC348465  17.192  20.102  22.998
 3045POPC   PO448466  17.111  19.993  22.851
 3045POPC   GL148467  17.030  19.884  22.704
 3045POPC   GL248468  17.085  19.933  22.637
 3045POPC   C1A48469  16.949  19.775  22.558
 3045POPC   D2A48470  16.868  19.665  22.411
 3045POPC   C3A48471  16.787  19.556  22.265
 3045POPC   C4A48472  16.706  19.447  22.118
 3045POPC   C1B48473  17.095  19.640  22.578
 3045POPC   C2B48474  17.014  19.530  22.431
 3045POPC   C3B48475  16.933  19.421  22.285
 3045POPC   C4B48476  16.852  19.312  22.138
 3046POPC   NC348477  24.538  10.397  20.452
 3046POPC   PO448478  24.376  10.395  20.335
 3046POPC   GL148479  24.214  10.393  20.218
 3046POPC   GL248480  24.258  10.459  20.156
 3046POPC   C1A48481  24.052  10.392  20.101
 3046POPC   D2A48482  23.889  10.390  19.984
 3046POPC   C3A48483  23.727  10.389  19.867
 3046POPC   C4A48484  23.565  10.387  19.750
 3046POPC   C1B48485  24.129  10.240  19.996
 3046POPC   C2B48486  23.967  10.238  19.879
 3046POPC   C3B48487  23.804  10.237  19.762
 3046POPC   C4B48488  23.642  10.235  19.645
 3047POPC   NC348489  -1.003  21.850  18.171
 3047POPC   PO448490  -0.881  21.720  18.081
 3047POPC   GL148491  -0.759  21.590  17.991
 3047POPC   GL248492  -0.687  21.611  18.058
 3047POPC   C1A48493  -0.636  21.460  17.901
 3047POPC   D2A48494  -0.514  21.331  17.810
 3047POPC   C3A48495  -0.391  21.201  17.720
 3047POPC   C4A48496  -0.269  21.071  17.630
 3047POPC   C1B48497  -0.704  21.314  18.019
 3047POPC   C2B48498  -0.582  21.184  17.928
 3047POPC   C3B48499  -0.460  21.054  17.838
 3047POPC   C4B48500  -0.337  20.925  17.748
 3048POPC   NC348501  18.984  25.146   6.467
 3048POPC   PO448502  18.887  24.974   6.500
 3048POPC   GL148503  18.790  24.802   6.533
 3048POPC   GL248504  18.853  24.755   6.471
 3048POPC   C1A48505  18.693  24.630   6.565
 3048POPC   D2A48506  18.596  24.459   6.598
 3048POPC   C3A48507  18.499  24.287   6.630
 3048POPC   C4A48508  18.402  24.115   6.663
 3048POPC   C1B48509  18.814  24.591   6.720
 3048POPC   C2B48510  18.717  24.420   6.752
 3048POPC   C3B48511  18.620  24.248   6.785
 3048POPC   C4B48512  18.523  24.076   6.817
 3049POPC   NC348513  -0.467   3.314  23.022
 3049POPC   PO448514  -0.351   3.386  22.876
 3049POPC   GL148515  -0.235   3.458  22.730
 3049POPC   GL248516  -0.155   3.417  22.773
 3049POPC   C1A48517  -0.118   3.531  22.584
 3049POPC   D2A48518  -0.002   3.603  22.439
 3049POPC   C3A48519   0.115   3.676  22.293
 3049POPC   C4A48520   0.231   3.748  22.147
 3049POPC   C1B48521  -0.148   3.364  22.478
 3049POPC   C2B48522  -0.031   3.436  22.332
 3049POPC   C3B48523   0.085   3.509  22.187
 3049POPC   C4B48524   0.202   3.581  22.041
 3050POPC   NC348525   6.396  -6.991  15.084
 3050POPC   PO448526   6.434  -6.803  15.027
 3050POPC   GL148527   6.472  -6.615  14.970
 3050POPC   GL248528   6.570  -6.633  14.976
 3050POPC   C1A48529   6.509  -6.427  14.913
 3050POPC   D2A48530   6.547  -6.239  14.855
 3050POPC   C3A48531   6.584  -6.051  14.798
 3050POPC   C4A48532   6.622  -5.863  14.741
 3050POPC   C1B48533   6.510  -6.485  14.721
 3050POPC   C2B48534   6.548  -6.297  14.664
 3050POPC   C3B48535   6.585  -6.109  14.607
 3050POPC   C4B48536   6.623  -5.921  14.550
 3051POPC   NC348537   7.120  27.797  11.440
 3051POPC   PO448538   7.147  27.599  11.424
 3051POPC   GL148539   7.174  27.401  11.408
 3051POPC   GL248540   7.213  27.399  11.500
 3051POPC   C1A48541   7.201  27.204  11.392
 3051POPC   D2A48542   7.227  27.006  11.377
 3051POPC   C3A48543   7.254  26.809  11.361
 3051POPC   C4A48544   7.281  26.611  11.345
 3051POPC   C1B48545   7.019  27.173  11.470
 3051POPC   C2B48546   7.046  26.975  11.455
 3051POPC   C3B48547   7.073  26.778  11.439
 3051POPC   C4B48548   7.099  26.580  11.423
 3052POPC   NC348549  14.071  11.240  -7.600
 3052POPC   PO448550  14.022  11.223  -7.407
 3052POPC   GL148551  13.973  11.206  -7.214
 3052POPC   GL248552  13.903  11.139  -7.237
 3052POPC   C1A48553  13.925  11.189  -7.021
 3052POPC   D2A48554  13.876  11.173  -6.827
 3052POPC   C3A48555  13.828  11.156  -6.634
 3052POPC   C4A48556  13.779  11.139  -6.441
 3052POPC   C1B48557  14.058  11.042  -7.000
 3052POPC   C2B48558  14.010  11.025  -6.807
 3052POPC   C3B48559  13.961  11.008  -6.613
 3052POPC   C4B48560  13.912  10.991  -6.420
 3053POPC   NC348561  23.234  21.403  13.780
 3053POPC   PO448562  23.089  21.273  13.735
 3053POPC   GL148563  22.944  21.143  13.690
 3053POPC   GL248564  22.920  21.198  13.609
 3053POPC   C1A48565  22.798  21.014  13.645
 3053POPC   D2A48566  22.653  20.884  13.599
 3053POPC   C3A48567  22.507  20.755  13.554
 3053POPC   C4A48568  22.362  20.625  13.509
 3053POPC   C1B48569  22.927  20.907  13.535
 3053POPC   C2B48570  22.782  20.778  13.490
 3053POPC   C3B48571  22.636  20.648  13.444
 3053POPC   C4B48572  22.491  20.519  13.399
 3054POPC   NC348573   9.908  -3.123  22.303
 3054POPC   PO448574   9.901  -2.977  22.166
 3054POPC   GL148575   9.894  -2.831  22.029
 3054POPC   GL248576   9.901  -2.900  21.956
 3054POPC   C1A48577   9.888  -2.686  21.892
 3054POPC   D2A48578   9.881  -2.540  21.755
 3054POPC   C3A48579   9.875  -2.395  21.618
 3054POPC   C4A48580   9.868  -2.249  21.481
 3054POPC   C1B48581   9.688  -2.700  21.886
 3054POPC   C2B48582   9.682  -2.555  21.749
 3054POPC   C3B48583   9.675  -2.409  21.612
 3054POPC   C4B48584   9.669  -2.263  21.475
 3055POPC   NC348585  -7.671  13.497  12.719
 3055POPC   PO448586  -7.478  13.457  12.688
 3055POPC   GL148587  -7.285  13.417  12.657
 3055POPC   GL248588  -7.260  13.475  12.734
 3055POPC   C1A48589  -7.091  13.376  12.626
 3055POPC   D2A48590  -6.898  13.336  12.594
 3055POPC   C3A48591  -6.704  13.295  12.563
 3055POPC   C4A48592  -6.511  13.255  12.532
 3055POPC   C1B48593  -7.104  13.219  12.748
 3055POPC   C2B48594  -6.911  13.178  12.717
 3055POPC   C3B48595  -6.717  13.138  12.686
 3055POPC   C4B48596  -6.524  13.098  12.655
 3056POPC   NC348597  18.065   7.965  -5.954
 3056POPC   PO448598  17.976   7.990  -5.777
 3056POPC   GL148599  17.887   8.015  -5.600
 3056POPC   GL248600  17.846   8.100  -5.632
 3056POPC   C1A48601  17.798   8.040  -5.422
 3056POPC   D2A48602  17.709   8.064  -5.245
 3056POPC   C3A48603  17.620   8.089  -5.067
 3056POPC   C4A48604  17.531   8.114  -4.890
 3056POPC   C1B48605  17.638   7.939  -5.488
 3056POPC   C2B48606  17.549   7.964  -5.311
 3056POPC   C3B48607  17.460   7.988  -5.134
 3056POPC   C4B48608  17.371   8.013  -4.956
 3057POPC   NC348609  18.380  14.435  25.196
 3057POPC   PO448610  18.276  14.383  25.033
 3057POPC   GL148611  18.172  14.331  24.870
 3057POPC   GL248612  18.170  14.427  24.841
 3057POPC   C1A48613  18.068  14.279  24.708
 3057POPC   D2A48614  17.963  14.228  24.545
 3057POPC   C3A48615  17.859  14.176  24.383
 3057POPC   C4A48616  17.755  14.124  24.220
 3057POPC   C1B48617  18.238  14.251  24.608
 3057POPC   C2B48618  18.134  14.199  24.445
 3057POPC   C3B48619  18.030  14.147  24.282
 3057POPC   C4B48620  17.926  14.095  24.120
 3058POPC   NC348621  16.065  -2.965  20.848
 3058POPC   PO448622  16.000  -2.823  20.724
 3058POPC   GL148623  15.935  -2.681  20.600
 3058POPC   GL248624  15.996  -2.615  20.643
 3058POPC   C1A48625  15.869  -2.538  20.476
 3058POPC   D2A48626  15.804  -2.396  20.351
 3058POPC   C3A48627  15.738  -2.253  20.227
 3058POPC   C4A48628  15.673  -2.111  20.103
 3058POPC   C1B48629  16.013  -2.586  20.345
 3058POPC   C2B48630  15.947  -2.444  20.221
 3058POPC   C3B48631  15.882  -2.301  20.097
 3058POPC   C4B48632  15.817  -2.159  19.972
 3059POPC   NC348633  22.723  22.641  11.080
 3059POPC   PO448634  22.580  22.502  11.062
 3059POPC   GL148635  22.437  22.363  11.044
 3059POPC   GL248636  22.486  22.323  10.966
 3059POPC   C1A48637  22.295  22.224  11.026
 3059POPC   D2A48638  22.152  22.084  11.009
 3059POPC   C3A48639  22.010  21.945  10.991
 3059POPC   C4A48640  21.867  21.806  10.973
 3059POPC   C1B48641  22.396  22.104  11.151
 3059POPC   C2B48642  22.253  21.965  11.133
 3059POPC   C3B48643  22.111  21.826  11.115
 3059POPC   C4B48644  21.968  21.687  11.098
 3060POPC   NC348645  24.605   7.885  20.057
 3060POPC   PO448646  24.441   7.912  19.946
 3060POPC   GL148647  24.277   7.939  19.835
 3060POPC   GL248648  24.334   7.959  19.755
 3060POPC   C1A48649  24.113   7.966  19.724
 3060POPC   D2A48650  23.949   7.993  19.612
 3060POPC   C3A48651  23.785   8.020  19.501
 3060POPC   C4A48652  23.621   8.047  19.390
 3060POPC   C1B48653  24.114   7.772  19.676
 3060POPC   C2B48654  23.950   7.799  19.565
 3060POPC   C3B48655  23.786   7.826  19.453
 3060POPC   C4B48656  23.622   7.853  19.342
 3061POPC   NC348657  -0.945  -2.984  16.452
 3061POPC   PO448658  -0.826  -2.841  16.378
 3061POPC   GL148659  -0.707  -2.698  16.304
 3061POPC   GL248660  -0.634  -2.765  16.293
 3061POPC   C1A48661  -0.588  -2.556  16.230
 3061POPC   D2A48662  -0.468  -2.413  16.157
 3061POPC   C3A48663  -0.349  -2.271  16.083
 3061POPC   C4A48664  -0.230  -2.128  16.009
 3061POPC   C1B48665  -0.654  -2.596  16.046
 3061POPC   C2B48666  -0.535  -2.453  15.972
 3061POPC   C3B48667  -0.415  -2.311  15.898
 3061POPC   C4B48668  -0.296  -2.168  15.825
 3062POPC   NC348669   6.419   6.669  -7.468
 3062POPC   PO448670   6.454   6.706  -7.274
 3062POPC   GL148671   6.489   6.743  -7.080
 3062POPC   GL248672   6.446   6.655  -7.056
 3062POPC   C1A48673   6.524   6.779  -6.887
 3062POPC   D2A48674   6.558   6.816  -6.693
 3062POPC   C3A48675   6.593   6.852  -6.500
 3062POPC   C4A48676   6.628   6.889  -6.306
 3062POPC   C1B48677   6.701   6.689  -6.902
 3062POPC   C2B48678   6.736   6.725  -6.708
 3062POPC   C3B48679   6.771   6.762  -6.515
 3062POPC   C4B48680   6.806   6.799  -6.321
 3063POPC   NC348681   7.978  20.290  -4.790
 3063POPC   PO448682   7.995  20.172  -4.629
 3063POPC   GL148683   8.012  20.054  -4.468
 3063POPC   GL248684   8.109  20.041  -4.488
 3063POPC   C1A48685   8.029  19.936  -4.307
 3063POPC   D2A48686   8.047  19.819  -4.147
 3063POPC   C3A48687   8.064  19.701  -3.986
 3063POPC   C4A48688   8.081  19.583  -3.825
 3063POPC   C1B48689   8.074  20.096  -4.195
 3063POPC   C2B48690   8.091  19.978  -4.035
 3063POPC   C3B48691   8.109  19.860  -3.874
 3063POPC   C4B48692   8.126  19.742  -3.713
 3064POPC   NC348693  -3.094  21.912   5.837
 3064POPC   PO448694  -2.956  21.775   5.883
 3064POPC   GL148695  -2.818  21.638   5.929
 3064POPC   GL248696  -2.845  21.643   6.026
 3064POPC   C1A48697  -2.680  21.501   5.976
 3064POPC   D2A48698  -2.543  21.363   6.022
 3064POPC   C3A48699  -2.405  21.226   6.069
 3064POPC   C4A48700  -2.267  21.089   6.115
 3064POPC   C1B48701  -2.815  21.356   5.947
 3064POPC   C2B48702  -2.677  21.218   5.993
 3064POPC   C3B48703  -2.539  21.081   6.040
 3064POPC   C4B48704  -2.402  20.944   6.086
 3065POPC   NC348705  21.614  20.793  18.265
 3065POPC   PO448706  21.484  20.668  18.179
 3065POPC   GL148707  21.354  20.543  18.093
 3065POPC   GL248708  21.385  20.469  18.153
 3065POPC   C1A48709  21.224  20.417  18.006
 3065POPC   D2A48710  21.095  20.292  17.920
 3065POPC   C3A48711  20.965  20.166  17.833
 3065POPC   C4A48712  20.835  20.041  17.747
 3065POPC   C1B48713  21.086  20.468  18.141
 3065POPC   C2B48714  20.956  20.343  18.055
 3065POPC   C3B48715  20.826  20.217  17.968
 3065POPC   C4B48716  20.696  20.092  17.882
 3066POPC   NC348717   2.818  10.810  -6.675
 3066POPC   PO448718   2.898  10.800  -6.492
 3066POPC   GL148719   2.978  10.790  -6.309
 3066POPC   GL248720   2.947  10.695  -6.301
 3066POPC   C1A48721   3.058  10.780  -6.126
 3066POPC   D2A48722   3.137  10.770  -5.943
 3066POPC   C3A48723   3.217  10.760  -5.760
 3066POPC   C4A48724   3.297  10.750  -5.577
 3066POPC   C1B48725   3.230  10.716  -6.205
 3066POPC   C2B48726   3.310  10.706  -6.022
 3066POPC   C3B48727   3.390  10.696  -5.839
 3066POPC   C4B48728   3.469  10.686  -5.656
 3067POPC   NC348729  13.332  -3.515  -1.527
 3067POPC   PO448730  13.290  -3.366  -1.400
 3067POPC   GL148731  13.248  -3.217  -1.273
 3067POPC   GL248732  13.234  -3.155  -1.350
 3067POPC   C1A48733  13.207  -3.069  -1.145
 3067POPC   D2A48734  13.165  -2.920  -1.018
 3067POPC   C3A48735  13.124  -2.772  -0.890
 3067POPC   C4A48736  13.082  -2.623  -0.763
 3067POPC   C1B48737  13.013  -3.119  -1.150
 3067POPC   C2B48738  12.972  -2.970  -1.023
 3067POPC   C3B48739  12.930  -2.822  -0.895
 3067POPC   C4B48740  12.888  -2.673  -0.768
 3068POPC   NC348741  -1.178   4.376  22.948
 3068POPC   PO448742  -1.057   4.442  22.803
 3068POPC   GL148743  -0.936   4.508  22.658
 3068POPC   GL248744  -0.931   4.597  22.702
 3068POPC   C1A48745  -0.815   4.573  22.513
 3068POPC   D2A48746  -0.695   4.639  22.367
 3068POPC   C3A48747  -0.574   4.704  22.222
 3068POPC   C4A48748  -0.453   4.770  22.077
 3068POPC   C1B48749  -0.656   4.513  22.618
 3068POPC   C2B48750  -0.535   4.578  22.472
 3068POPC   C3B48751  -0.415   4.644  22.327
 3068POPC   C4B48752  -0.294   4.709  22.182
 3069POPC   NC348753  25.746  13.625  17.696
 3069POPC   PO448754  25.568  13.585  17.614
 3069POPC   GL148755  25.390  13.545  17.532
 3069POPC   GL248756  25.403  13.448  17.550
 3069POPC   C1A48757  25.212  13.505  17.450
 3069POPC   D2A48758  25.034  13.466  17.367
 3069POPC   C3A48759  24.856  13.426  17.285
 3069POPC   C4A48760  24.678  13.386  17.203
 3069POPC   C1B48761  25.125  13.528  17.628
 3069POPC   C2B48762  24.947  13.488  17.546
 3069POPC   C3B48763  24.769  13.448  17.464
 3069POPC   C4B48764  24.591  13.408  17.382
 3070POPC   NC348765   6.567  -6.883   4.421
 3070POPC   PO448766   6.604  -6.697   4.484
 3070POPC   GL148767   6.641  -6.511   4.547
 3070POPC   GL248768   6.654  -6.545   4.640
 3070POPC   C1A48769   6.679  -6.325   4.609
 3070POPC   D2A48770   6.716  -6.138   4.672
 3070POPC   C3A48771   6.754  -5.952   4.734
 3070POPC   C4A48772   6.791  -5.766   4.797
 3070POPC   C1B48773   6.874  -6.351   4.572
 3070POPC   C2B48774   6.911  -6.165   4.635
 3070POPC   C3B48775   6.948  -5.979   4.697
 3070POPC   C4B48776   6.986  -5.793   4.760
 3071POPC   NC348777  12.650   1.440  25.634
 3071POPC   PO448778  12.620   1.537  25.462
 3071POPC   GL148779  12.590   1.634  25.290
 3071POPC   GL248780  12.687   1.624  25.267
 3071POPC   C1A48781  12.560   1.731  25.118
 3071POPC   D2A48782  12.531   1.829  24.945
 3071POPC   C3A48783  12.501   1.926  24.773
 3071POPC   C4A48784  12.471   2.023  24.601
 3071POPC   C1B48785  12.520   1.558  25.027
 3071POPC   C2B48786  12.491   1.655  24.854
 3071POPC   C3B48787  12.461   1.752  24.682
 3071POPC   C4B48788  12.431   1.849  24.510
 3072POPC   NC348789  12.214   2.523  -6.337
 3072POPC   PO448790  12.189   2.605  -6.156
 3072POPC   GL148791  12.164   2.687  -5.975
 3072POPC   GL248792  12.258   2.722  -5.979
 3072POPC   C1A48793  12.139   2.769  -5.795
 3072POPC   D2A48794  12.115   2.852  -5.614
 3072POPC   C3A48795  12.090   2.934  -5.434
 3072POPC   C4A48796  12.065   3.016  -5.253
 3072POPC   C1B48797  12.074   2.938  -5.881
 3072POPC   C2B48798  12.049   3.020  -5.700
 3072POPC   C3B48799  12.024   3.102  -5.519
 3072POPC   C4B48800  11.999   3.184  -5.339
 3073POPC   NC348801  16.383   0.385  -3.965
 3073POPC   PO448802  16.312   0.495  -3.814
 3073POPC   GL148803  16.241   0.605  -3.663
 3073POPC   GL248804  16.221   0.680  -3.727
 3073POPC   C1A48805  16.170   0.716  -3.512
 3073POPC   D2A48806  16.099   0.826  -3.362
 3073POPC   C3A48807  16.028   0.937  -3.211
 3073POPC   C4A48808  15.957   1.047  -3.060
 3073POPC   C1B48809  15.987   0.641  -3.544
 3073POPC   C2B48810  15.916   0.752  -3.393
 3073POPC   C3B48811  15.845   0.862  -3.242
 3073POPC   C4B48812  15.774   0.972  -3.092
 3074POPC   NC348813  14.154  20.719  -3.960
 3074POPC   PO448814  14.110  20.604  -3.802
 3074POPC   GL148815  14.066  20.489  -3.644
 3074POPC   GL248816  14.037  20.416  -3.706
 3074POPC   C1A48817  14.022  20.374  -3.486
 3074POPC   D2A48818  13.979  20.260  -3.329
 3074POPC   C3A48819  13.935  20.145  -3.171
 3074POPC   C4A48820  13.891  20.030  -3.013
 3074POPC   C1B48821  14.209  20.302  -3.487
 3074POPC   C2B48822  14.165  20.187  -3.329
 3074POPC   C3B48823  14.121  20.072  -3.172
 3074POPC   C4B48824  14.077  19.958  -3.014
 3075POPC   NC348825  25.903  17.819  12.595
 3075POPC   PO448826  25.726  17.732  12.565
 3075POPC   GL148827  25.549  17.645  12.535
 3075POPC   GL248828  25.542  17.690  12.446
 3075POPC   C1A48829  25.371  17.558  12.504
 3075POPC   D2A48830  25.194  17.470  12.474
 3075POPC   C3A48831  25.016  17.383  12.443
 3075POPC   C4A48832  24.839  17.296  12.413
 3075POPC   C1B48833  25.462  17.402  12.418
 3075POPC   C2B48834  25.285  17.315  12.387
 3075POPC   C3B48835  25.108  17.228  12.357
 3075POPC   C4B48836  24.930  17.141  12.326
 3076POPC   NC348837   8.587  20.468  24.594
 3076POPC   PO448838   8.602  20.349  24.434
 3076POPC   GL148839   8.617  20.230  24.274
 3076POPC   GL248840   8.621  20.311  24.214
 3076POPC   C1A48841   8.633  20.112  24.113
 3076POPC   D2A48842   8.648  19.993  23.953
 3076POPC   C3A48843   8.664  19.875  23.792
 3076POPC   C4A48844   8.679  19.756  23.632
 3076POPC   C1B48845   8.832  20.115  24.130
 3076POPC   C2B48846   8.847  19.996  23.970
 3076POPC   C3B48847   8.863  19.878  23.809
 3076POPC   C4B48848   8.878  19.759  23.649
 3077POPC   NC348849  16.012  25.172  17.458
 3077POPC   PO448850  15.942  25.004  17.375
 3077POPC   GL148851  15.872  24.836  17.292
 3077POPC   GL248852  15.871  24.881  17.202
 3077POPC   C1A48853  15.802  24.668  17.209
 3077POPC   D2A48854  15.731  24.501  17.125
 3077POPC   C3A48855  15.661  24.333  17.042
 3077POPC   C4A48856  15.591  24.165  16.959
 3077POPC   C1B48857  15.989  24.607  17.175
 3077POPC   C2B48858  15.919  24.439  17.092
 3077POPC   C3B48859  15.848  24.271  17.009
 3077POPC   C4B48860  15.778  24.103  16.926
 3078POPC   NC348861   9.254  26.885  16.332
 3078POPC   PO448862   9.263  26.699  16.260
 3078POPC   GL148863   9.272  26.513  16.188
 3078POPC   GL248864   9.325  26.484  16.268
 3078POPC   C1A48865   9.280  26.326  16.116
 3078POPC   D2A48866   9.289  26.140  16.044
 3078POPC   C3A48867   9.297  25.953  15.972
 3078POPC   C4A48868   9.306  25.767  15.900
 3078POPC   C1B48869   9.111  26.281  16.212
 3078POPC   C2B48870   9.119  26.095  16.140
 3078POPC   C3B48871   9.128  25.909  16.068
 3078POPC   C4B48872   9.136  25.722  15.996
 3079POPC   NC348873  14.903  23.324  -1.231
 3079POPC   PO448874  14.845  23.176  -1.110
 3079POPC   GL148875  14.787  23.028  -0.989
 3079POPC   GL248876  14.848  22.965  -1.038
 3079POPC   C1A48877  14.729  22.879  -0.868
 3079POPC   D2A48878  14.672  22.731  -0.747
 3079POPC   C3A48879  14.614  22.582  -0.626
 3079POPC   C4A48880  14.556  22.434  -0.505
 3079POPC   C1B48881  14.878  22.924  -0.742
 3079POPC   C2B48882  14.820  22.776  -0.621
 3079POPC   C3B48883  14.762  22.627  -0.500
 3079POPC   C4B48884  14.704  22.479  -0.379
 3080POPC   NC348885  19.415  24.548   5.009
 3080POPC   PO448886  19.313  24.384   5.059
 3080POPC   GL148887  19.211  24.220   5.109
 3080POPC   GL248888  19.284  24.193   5.171
 3080POPC   C1A48889  19.109  24.055   5.159
 3080POPC   D2A48890  19.006  23.891   5.210
 3080POPC   C3A48891  18.904  23.726   5.260
 3080POPC   C4A48892  18.802  23.562   5.310
 3080POPC   C1B48893  19.020  24.156   5.308
 3080POPC   C2B48894  18.918  23.991   5.358
 3080POPC   C3B48895  18.816  23.827   5.408
 3080POPC   C4B48896  18.713  23.662   5.459
 3081POPC   NC348897  22.964  16.745  -0.542
 3081POPC   PO448898  22.817  16.671  -0.429
 3081POPC   GL148899  22.670  16.597  -0.316
 3081POPC   GL248900  22.712  16.507  -0.319
 3081POPC   C1A48901  22.522  16.523  -0.203
 3081POPC   D2A48902  22.375  16.449  -0.090
 3081POPC   C3A48903  22.227  16.375   0.023
 3081POPC   C4A48904  22.080  16.301   0.136
 3081POPC   C1B48905  22.627  16.566  -0.038
 3081POPC   C2B48906  22.480  16.492   0.075
 3081POPC   C3B48907  22.332  16.418   0.188
 3081POPC   C4B48908  22.185  16.344   0.301
 3082POPC   NC348909  -2.537   8.979  -3.089
 3082POPC   PO448910  -2.398   8.987  -2.945
 3082POPC   GL148911  -2.259   8.995  -2.801
 3082POPC   GL248912  -2.289   9.088  -2.778
 3082POPC   C1A48913  -2.120   9.004  -2.658
 3082POPC   D2A48914  -1.981   9.012  -2.514
 3082POPC   C3A48915  -1.842   9.021  -2.371
 3082POPC   C4A48916  -1.703   9.029  -2.227
 3082POPC   C1B48917  -2.251   8.928  -2.527
 3082POPC   C2B48918  -2.112   8.937  -2.383
 3082POPC   C3B48919  -1.973   8.945  -2.239
 3082POPC   C4B48920  -1.834   8.954  -2.096
 3083POPC   NC348921  17.746  26.000   7.718
 3083POPC   PO448922  17.658  25.822   7.740
 3083POPC   GL148923  17.570  25.644   7.762
 3083POPC   GL248924  17.654  25.599   7.732
 3083POPC   C1A48925  17.482  25.466   7.784
 3083POPC   D2A48926  17.393  25.287   7.805
 3083POPC   C3A48927  17.305  25.109   7.827
 3083POPC   C4A48928  17.217  24.931   7.849
 3083POPC   C1B48929  17.544  25.458   7.973
 3083POPC   C2B48930  17.456  25.279   7.995
 3083POPC   C3B48931  17.368  25.101   8.017
 3083POPC   C4B48932  17.280  24.923   8.039
 3084POPC   NC348933   4.793  14.979  -6.684
 3084POPC   PO448934   4.850  14.922  -6.501
 3084POPC   GL148935   4.907  14.865  -6.318
 3084POPC   GL248936   4.826  14.908  -6.279
 3084POPC   C1A48937   4.964  14.808  -6.135
 3084POPC   D2A48938   5.021  14.751  -5.952
 3084POPC   C3A48939   5.078  14.694  -5.769
 3084POPC   C4A48940   5.135  14.637  -5.586
 3084POPC   C1B48941   4.863  14.637  -6.157
 3084POPC   C2B48942   4.920  14.580  -5.974
 3084POPC   C3B48943   4.977  14.523  -5.791
 3084POPC   C4B48944   5.034  14.466  -5.608
 3085POPC   NC348945  23.659   7.250  -1.409
 3085POPC   PO448946  23.505   7.276  -1.284
 3085POPC   GL148947  23.351   7.302  -1.159
 3085POPC   GL248948  23.290   7.318  -1.237
 3085POPC   C1A48949  23.197   7.328  -1.034
 3085POPC   D2A48950  23.042   7.353  -0.910
 3085POPC   C3A48951  22.888   7.379  -0.785
 3085POPC   C4A48952  22.734   7.405  -0.660
 3085POPC   C1B48953  23.157   7.132  -1.043
 3085POPC   C2B48954  23.003   7.158  -0.918
 3085POPC   C3B48955  22.848   7.183  -0.793
 3085POPC   C4B48956  22.694   7.209  -0.669
 3086POPC   NC348957  26.423  10.139  17.187
 3086POPC   PO448958  26.241  10.135  17.105
 3086POPC   GL148959  26.059  10.131  17.023
 3086POPC   GL248960  26.091  10.063  16.956
 3086POPC   C1A48961  25.877  10.126  16.941
 3086POPC   D2A48962  25.694  10.122  16.858
 3086POPC   C3A48963  25.512  10.117  16.776
 3086POPC   C4A48964  25.330  10.113  16.694
 3086POPC   C1B48965  25.824   9.979  17.065
 3086POPC   C2B48966  25.642   9.974  16.983
 3086POPC   C3B48967  25.460   9.970  16.901
 3086POPC   C4B48968  25.278   9.965  16.818
 3087POPC   NC348969  26.935   5.710   5.944
 3087POPC   PO448970  26.745   5.754   5.989
 3087POPC   GL148971  26.555   5.798   6.034
 3087POPC   GL248972  26.540   5.828   5.940
 3087POPC   C1A48973  26.365   5.841   6.079
 3087POPC   D2A48974  26.175   5.885   6.125
 3087POPC   C3A48975  25.985   5.928   6.170
 3087POPC   C4A48976  25.795   5.972   6.215
 3087POPC   C1B48977  26.310   5.656   6.029
 3087POPC   C2B48978  26.120   5.699   6.074
 3087POPC   C3B48979  25.930   5.743   6.119
 3087POPC   C4B48980  25.740   5.786   6.164
 3088POPC   NC348981  14.744  -7.369   8.666
 3088POPC   PO448982  14.684  -7.179   8.682
 3088POPC   GL148983  14.624  -6.989   8.698
 3088POPC   GL248984  14.674  -6.980   8.784
 3088POPC   C1A48985  14.565  -6.799   8.714
 3088POPC   D2A48986  14.505  -6.608   8.730
 3088POPC   C3A48987  14.446  -6.418   8.746
 3088POPC   C4A48988  14.386  -6.228   8.762
 3088POPC   C1B48989  14.728  -6.739   8.614
 3088POPC   C2B48990  14.668  -6.549   8.630
 3088POPC   C3B48991  14.608  -6.359   8.646
 3088POPC   C4B48992  14.549  -6.169   8.662
 3089POPC   NC348993  15.982  -5.631  16.565
 3089POPC   PO448994  15.915  -5.457  16.493
 3089POPC   GL148995  15.848  -5.283  16.421
 3089POPC   GL248996  15.925  -5.280  16.357
 3089POPC   C1A48997  15.781  -5.109  16.349
 3089POPC   D2A48998  15.715  -4.934  16.278
 3089POPC   C3A48999  15.648  -4.760  16.206
 3089POPC   C4A49000  15.581  -4.586  16.134
 3089POPC   C1B49001  15.672  -5.207  16.214
 3089POPC   C2B49002  15.605  -5.032  16.142
 3089POPC   C3B49003  15.538  -4.858  16.070
 3089POPC   C4B49004  15.471  -4.684  15.998
 3090POPC   NC349005  -7.576  12.634  13.933
 3090POPC   PO449006  -7.383  12.607  13.887
 3090POPC   GL149007  -7.190  12.580  13.841
 3090POPC   GL249008  -7.166  12.589  13.938
 3090POPC   C1A49009  -6.997  12.553  13.796
 3090POPC   D2A49010  -6.805  12.526  13.750
 3090POPC   C3A49011  -6.612  12.499  13.705
 3090POPC   C4A49012  -6.419  12.472  13.659
 3090POPC   C1B49013  -7.019  12.356  13.820
 3090POPC   C2B49014  -6.826  12.329  13.774
 3090POPC   C3B49015  -6.634  12.302  13.729
 3090POPC   C4B49016  -6.441  12.275  13.683
 3091POPC   NC349017  16.775  26.599   9.931
 3091POPC   PO449018  16.693  26.416   9.932
 3091POPC   GL149019  16.611  26.233   9.933
 3091POPC   GL249020  16.688  26.199   9.880
 3091POPC   C1A49021  16.530  26.051   9.934
 3091POPC   D2A49022  16.448  25.868   9.936
 3091POPC   C3A49023  16.367  25.686   9.937
 3091POPC   C4A49024  16.285  25.503   9.938
 3091POPC   C1B49025  16.628  26.008  10.103
 3091POPC   C2B49026  16.546  25.825  10.105
 3091POPC   C3B49027  16.465  25.643  10.106
 3091POPC   C4B49028  16.383  25.460  10.107
 3092POPC   NC349029   9.148   3.752  26.806
 3092POPC   PO449030   9.160   3.822  26.619
 3092POPC   GL149031   9.172   3.892  26.432
 3092POPC   GL249032   9.212   3.805  26.402
 3092POPC   C1A49033   9.185   3.962  26.245
 3092POPC   D2A49034   9.197   4.032  26.058
 3092POPC   C3A49035   9.210   4.102  25.871
 3092POPC   C4A49036   9.222   4.172  25.684
 3092POPC   C1B49037   9.001   3.892  26.207
 3092POPC   C2B49038   9.014   3.962  26.020
 3092POPC   C3B49039   9.026   4.032  25.833
 3092POPC   C4B49040   9.039   4.102  25.646
 3093POPC   NC349041  13.428  10.479  -7.802
 3093POPC   PO449042  13.386  10.471  -7.607
 3093POPC   GL149043  13.344  10.463  -7.412
 3093POPC   GL249044  13.262  10.518  -7.427
 3093POPC   C1A49045  13.302  10.455  -7.216
 3093POPC   D2A49046  13.261  10.446  -7.021
 3093POPC   C3A49047  13.219  10.438  -6.825
 3093POPC   C4A49048  13.177  10.430  -6.630
 3093POPC   C1B49049  13.196  10.288  -7.246
 3093POPC   C2B49050  13.154  10.280  -7.051
 3093POPC   C3B49051  13.112  10.272  -6.855
 3093POPC   C4B49052  13.070  10.264  -6.660
 3094POPC   NC349053  25.058  13.887   1.022
 3094POPC   PO449054  24.890  13.845   1.122
 3094POPC   GL149055  24.722  13.803   1.222
 3094POPC   GL249056  24.668  13.838   1.146
 3094POPC   C1A49057  24.554  13.761   1.322
 3094POPC   D2A49058  24.386  13.719   1.422
 3094POPC   C3A49059  24.218  13.677   1.522
 3094POPC   C4A49060  24.050  13.635   1.622
 3094POPC   C1B49061  24.551  13.579   1.240
 3094POPC   C2B49062  24.383  13.537   1.340
 3094POPC   C3B49063  24.215  13.495   1.440
 3094POPC   C4B49064  24.047  13.453   1.540
 3095POPC   NC349065  23.908  13.389  20.770
 3095POPC   PO449066  23.757  13.350  20.645
 3095POPC   GL149067  23.606  13.311  20.520
 3095POPC   GL249068  23.619  13.401  20.477
 3095POPC   C1A49069  23.455  13.273  20.394
 3095POPC   D2A49070  23.304  13.234  20.269
 3095POPC   C3A49071  23.153  13.196  20.143
 3095POPC   C4A49072  23.002  13.157  20.018
 3095POPC   C1B49073  23.584  13.192  20.264
 3095POPC   C2B49074  23.433  13.154  20.139
 3095POPC   C3B49075  23.282  13.115  20.013
 3095POPC   C4B49076  23.131  13.076  19.888
 3096POPC   NC349077  -1.674   2.312  21.426
 3096POPC   PO449078  -1.548   2.394  21.294
 3096POPC   GL149079  -1.422   2.476  21.162
 3096POPC   GL249080  -1.345   2.437  21.212
 3096POPC   C1A49081  -1.296   2.559  21.030
 3096POPC   D2A49082  -1.170   2.641  20.899
 3096POPC   C3A49083  -1.044   2.724  20.767
 3096POPC   C4A49084  -0.918   2.806  20.635
 3096POPC   C1B49085  -1.307   2.394  20.917
 3096POPC   C2B49086  -1.181   2.477  20.785
 3096POPC   C3B49087  -1.055   2.559  20.653
 3096POPC   C4B49088  -0.929   2.642  20.522
 3097POPC   NC349089  -2.628  19.974  18.327
 3097POPC   PO449090  -2.490  19.863  18.233
 3097POPC   GL149091  -2.352  19.752  18.139
 3097POPC   GL249092  -2.306  19.836  18.109
 3097POPC   C1A49093  -2.214  19.642  18.046
 3097POPC   D2A49094  -2.077  19.531  17.952
 3097POPC   C3A49095  -1.939  19.421  17.859
 3097POPC   C4A49096  -1.801  19.310  17.765
 3097POPC   C1B49097  -2.103  19.639  18.212
 3097POPC   C2B49098  -1.966  19.529  18.119
 3097POPC   C3B49099  -1.828  19.418  18.025
 3097POPC   C4B49100  -1.690  19.308  17.931
 3098POPC   NC349101  -2.298  -1.468   2.968
 3098POPC   PO449102  -2.160  -1.343   3.041
 3098POPC   GL149103  -2.022  -1.218   3.114
 3098POPC   GL249104  -1.957  -1.293   3.120
 3098POPC   C1A49105  -1.885  -1.093   3.188
 3098POPC   D2A49106  -1.747  -0.967   3.261
 3098POPC   C3A49107  -1.610  -0.842   3.335
 3098POPC   C4A49108  -1.472  -0.717   3.408
 3098POPC   C1B49109  -1.822  -1.052   3.002
 3098POPC   C2B49110  -1.685  -0.927   3.075
 3098POPC   C3B49111  -1.547  -0.802   3.149
 3098POPC   C4B49112  -1.410  -0.677   3.222
 3099POPC   NC349113  25.871  15.912  15.810
 3099POPC   PO449114  25.692  15.850  15.746
 3099POPC   GL149115  25.513  15.788  15.682
 3099POPC   GL249116  25.548  15.783  15.588
 3099POPC   C1A49117  25.334  15.726  15.618
 3099POPC   D2A49118  25.156  15.663  15.553
 3099POPC   C3A49119  24.977  15.601  15.489
 3099POPC   C4A49120  24.798  15.539  15.425
 3099POPC   C1B49121  25.390  15.536  15.648
 3099POPC   C2B49122  25.211  15.474  15.583
 3099POPC   C3B49123  25.032  15.411  15.519
 3099POPC   C4B49124  24.853  15.349  15.455
 3100POPC   NC349125   0.577  -3.409  17.734
 3100POPC   PO449126   0.679  -3.262  17.645
 3100POPC   GL149127   0.781  -3.115  17.556
 3100POPC   GL249128   0.798  -3.072  17.645
 3100POPC   C1A49129   0.883  -2.967  17.467
 3100POPC   D2A49130   0.984  -2.820  17.377
 3100POPC   C3A49131   1.086  -2.672  17.288
 3100POPC   C4A49132   1.188  -2.525  17.199
 3100POPC   C1B49133   1.052  -3.073  17.485
 3100POPC   C2B49134   1.153  -2.925  17.396
 3100POPC   C3B49135   1.255  -2.778  17.307
 3100POPC   C4B49136   1.357  -2.631  17.217
 3101POPC   NC349137   0.841  -2.970  18.713
 3101POPC   PO449138   0.940  -2.826  18.617
 3101POPC   GL149139   1.039  -2.682  18.521
 3101POPC   GL249140   1.064  -2.747  18.449
 3101POPC   C1A49141   1.139  -2.538  18.424
 3101POPC   D2A49142   1.238  -2.393  18.328
 3101POPC   C3A49143   1.338  -2.249  18.231
 3101POPC   C4A49144   1.437  -2.105  18.135
 3101POPC   C1B49145   0.972  -2.490  18.324
 3101POPC   C2B49146   1.072  -2.346  18.227
 3101POPC   C3B49147   1.171  -2.202  18.131
 3101POPC   C4B49148   1.271  -2.057  18.035
 3102POPC   NC349149  -6.730  15.990   6.285
 3102POPC   PO449150  -6.547  15.925   6.331
 3102POPC   GL149151  -6.364  15.860   6.377
 3102POPC   GL249152  -6.367  15.910   6.463
 3102POPC   C1A49153  -6.180  15.795   6.423
 3102POPC   D2A49154  -5.997  15.729   6.468
 3102POPC   C3A49155  -5.813  15.664   6.514
 3102POPC   C4A49156  -5.630  15.599   6.560
 3102POPC   C1B49157  -6.260  15.635   6.513
 3102POPC   C2B49158  -6.076  15.569   6.558
 3102POPC   C3B49159  -5.893  15.504   6.604
 3102POPC   C4B49160  -5.709  15.439   6.650
 3103POPC   NC349161   8.816  24.135  21.124
 3103POPC   PO449162   8.828  23.981  20.997
 3103POPC   GL149163   8.840  23.827  20.870
 3103POPC   GL249164   8.893  23.883  20.807
 3103POPC   C1A49165   8.852  23.673  20.743
 3103POPC   D2A49166   8.864  23.518  20.617
 3103POPC   C3A49167   8.876  23.364  20.490
 3103POPC   C4A49168   8.888  23.210  20.363
 3103POPC   C1B49169   9.021  23.613  20.832
 3103POPC   C2B49170   9.033  23.459  20.705
 3103POPC   C3B49171   9.045  23.305  20.578
 3103POPC   C4B49172   9.057  23.150  20.452
 3104POPC   NC349173   9.825  -2.041  -3.552
 3104POPC   PO449174   9.823  -1.908  -3.403
 3104POPC   GL149175   9.821  -1.775  -3.254
 3104POPC   GL249176   9.881  -1.834  -3.200
 3104POPC   C1A49177   9.819  -1.642  -3.104
 3104POPC   D2A49178   9.817  -1.509  -2.955
 3104POPC   C3A49179   9.815  -1.376  -2.805
 3104POPC   C4A49180   9.813  -1.243  -2.656
 3104POPC   C1B49181   9.979  -1.551  -3.183
 3104POPC   C2B49182   9.977  -1.418  -3.034
 3104POPC   C3B49183   9.975  -1.285  -2.884
 3104POPC   C4B49184   9.973  -1.152  -2.735
 3105POPC   NC349185  24.441   0.900  15.542
 3105POPC   PO449186  24.280   1.002  15.483
 3105POPC   GL149187  24.119   1.104  15.424
 3105POPC   GL249188  24.163   1.124  15.337
 3105POPC   C1A49189  23.957   1.207  15.365
 3105POPC   D2A49190  23.796   1.309  15.306
 3105POPC   C3A49191  23.634   1.412  15.247
 3105POPC   C4A49192  23.473   1.514  15.188
 3105POPC   C1B49193  23.879   1.040  15.288
 3105POPC   C2B49194  23.718   1.142  15.229
 3105POPC   C3B49195  23.557   1.244  15.170
 3105POPC   C4B49196  23.395   1.347  15.111
 3106POPC   NC349197  19.595  -4.614  14.117
 3106POPC   PO449198  19.487  -4.452  14.070
 3106POPC   GL149199  19.379  -4.290  14.023
 3106POPC   GL249200  19.441  -4.270  13.948
 3106POPC   C1A49201  19.271  -4.129  13.976
 3106POPC   D2A49202  19.162  -3.967  13.930
 3106POPC   C3A49203  19.054  -3.806  13.883
 3106POPC   C4A49204  18.946  -3.644  13.836
 3106POPC   C1B49205  19.158  -4.240  13.854
 3106POPC   C2B49206  19.050  -4.078  13.807
 3106POPC   C3B49207  18.942  -3.917  13.760
 3106POPC   C4B49208  18.833  -3.755  13.713
 3107POPC   NC349209  -1.948  -1.530   2.458
 3107POPC   PO449210  -1.816  -1.404   2.539
 3107POPC   GL149211  -1.684  -1.278   2.620
 3107POPC   GL249212  -1.640  -1.354   2.668
 3107POPC   C1A49213  -1.552  -1.151   2.702
 3107POPC   D2A49214  -1.420  -1.025   2.783
 3107POPC   C3A49215  -1.288  -0.898   2.865
 3107POPC   C4A49216  -1.156  -0.772   2.946
 3107POPC   C1B49217  -1.430  -1.178   2.546
 3107POPC   C2B49218  -1.298  -1.052   2.627
 3107POPC   C3B49219  -1.166  -0.926   2.709
 3107POPC   C4B49220  -1.034  -0.799   2.790
 3108POPC   NC349221  18.613  24.280   3.165
 3108POPC   PO449222  18.519  24.123   3.245
 3108POPC   GL149223  18.425  23.966   3.325
 3108POPC   GL249224  18.365  23.961   3.245
 3108POPC   C1A49225  18.330  23.809   3.405
 3108POPC   D2A49226  18.236  23.651   3.484
 3108POPC   C3A49227  18.141  23.494   3.564
 3108POPC   C4A49228  18.047  23.337   3.644
 3108POPC   C1B49229  18.460  23.685   3.316
 3108POPC   C2B49230  18.366  23.528   3.396
 3108POPC   C3B49231  18.271  23.371   3.475
 3108POPC   C4B49232  18.177  23.214   3.555
 3109POPC   NC349233  16.740  -5.584   4.047
 3109POPC   PO449234  16.663  -5.411   4.112
 3109POPC   GL149235  16.586  -5.238   4.177
 3109POPC   GL249236  16.671  -5.219   4.227
 3109POPC   C1A49237  16.509  -5.065   4.242
 3109POPC   D2A49238  16.432  -4.893   4.307
 3109POPC   C3A49239  16.355  -4.720   4.372
 3109POPC   C4A49240  16.278  -4.547   4.437
 3109POPC   C1B49241  16.583  -4.972   4.081
 3109POPC   C2B49242  16.506  -4.799   4.146
 3109POPC   C3B49243  16.429  -4.626   4.211
 3109POPC   C4B49244  16.352  -4.454   4.276
 3110POPC   NC349245  -1.182  17.032  -2.526
 3110POPC   PO449246  -1.061  16.955  -2.386
 3110POPC   GL149247  -0.940  16.878  -2.246
 3110POPC   GL249248  -0.868  16.942  -2.273
 3110POPC   C1A49249  -0.820  16.802  -2.106
 3110POPC   D2A49250  -0.699  16.725  -1.967
 3110POPC   C3A49251  -0.579  16.649  -1.827
 3110POPC   C4A49252  -0.458  16.572  -1.687
 3110POPC   C1B49253  -0.889  16.935  -1.974
 3110POPC   C2B49254  -0.768  16.858  -1.834
 3110POPC   C3B49255  -0.647  16.782  -1.694
 3110POPC   C4B49256  -0.527  16.705  -1.555
 3111POPC   NC349257  23.853   0.810  16.819
 3111POPC   PO449258  23.698   0.913  16.746
 3111POPC   GL149259  23.543   1.016  16.673
 3111POPC   GL249260  23.600   1.048  16.597
 3111POPC   C1A49261  23.387   1.119  16.600
 3111POPC   D2A49262  23.232   1.221  16.527
 3111POPC   C3A49263  23.076   1.324  16.454
 3111POPC   C4A49264  22.921   1.427  16.381
 3111POPC   C1B49265  23.333   0.960  16.492
 3111POPC   C2B49266  23.178   1.062  16.419
 3111POPC   C3B49267  23.022   1.165  16.346
 3111POPC   C4B49268  22.867   1.268  16.273
 3112POPC   NC349269  13.943  25.418   1.562
 3112POPC   PO449270  13.898  25.244   1.651
 3112POPC   GL149271  13.853  25.070   1.740
 3112POPC   GL249272  13.942  25.033   1.711
 3112POPC   C1A49273  13.809  24.897   1.828
 3112POPC   D2A49274  13.764  24.723   1.917
 3112POPC   C3A49275  13.720  24.550   2.005
 3112POPC   C4A49276  13.675  24.376   2.094
 3112POPC   C1B49277  13.892  24.962   1.998
 3112POPC   C2B49278  13.847  24.789   2.087
 3112POPC   C3B49279  13.803  24.615   2.175
 3112POPC   C4B49280  13.758  24.441   2.264
 3113POPC   NC349281  -0.359  -0.274  20.700
 3113POPC   PO449282  -0.245  -0.164  20.578
 3113POPC   GL149283  -0.131  -0.054  20.456
 3113POPC   GL249284  -0.057  -0.057  20.523
 3113POPC   C1A49285  -0.017   0.057  20.335
 3113POPC   D2A49286   0.097   0.167  20.213
 3113POPC   C3A49287   0.211   0.278  20.092
 3113POPC   C4A49288   0.325   0.388  19.970
 3113POPC   C1B49289   0.053  -0.110  20.250
 3113POPC   C2B49290   0.167   0.001  20.128
 3113POPC   C3B49291   0.281   0.111  20.006
 3113POPC   C4B49292   0.395   0.221  19.885
 3114POPC   NC349293   5.985  25.730  17.901
 3114POPC   PO449294   6.028  25.555  17.815
 3114POPC   GL149295   6.071  25.380  17.729
 3114POPC   GL249296   6.139  25.425  17.671
 3114POPC   C1A49297   6.114  25.204  17.643
 3114POPC   D2A49298   6.157  25.029  17.557
 3114POPC   C3A49299   6.200  24.853  17.471
 3114POPC   C4A49300   6.243  24.678  17.385
 3114POPC   C1B49301   6.255  25.171  17.781
 3114POPC   C2B49302   6.298  24.996  17.695
 3114POPC   C3B49303   6.341  24.820  17.609
 3114POPC   C4B49304   6.384  24.645  17.523
 3115POPC   NC349305  20.401  13.123  -4.387
 3115POPC   PO449306  20.284  13.090  -4.228
 3115POPC   GL149307  20.167  13.057  -4.069
 3115POPC   GL249308  20.086  13.076  -4.124
 3115POPC   C1A49309  20.051  13.023  -3.910
 3115POPC   D2A49310  19.934  12.990  -3.751
 3115POPC   C3A49311  19.818  12.956  -3.592
 3115POPC   C4A49312  19.701  12.923  -3.433
 3115POPC   C1B49313  20.038  12.830  -3.960
 3115POPC   C2B49314  19.922  12.797  -3.801
 3115POPC   C3B49315  19.805  12.763  -3.642
 3115POPC   C4B49316  19.688  12.730  -3.483
 3116POPC   NC349317   6.018   3.022  26.055
 3116POPC   PO449318   6.055   3.097  25.873
 3116POPC   GL149319   6.092   3.172  25.691
 3116POPC   GL249320   6.185   3.194  25.720
 3116POPC   C1A49321   6.129   3.247  25.510
 3116POPC   D2A49322   6.165   3.322  25.328
 3116POPC   C3A49323   6.202   3.397  25.147
 3116POPC   C4A49324   6.239   3.472  24.965
 3116POPC   C1B49325   6.190   3.067  25.448
 3116POPC   C2B49326   6.227   3.142  25.266
 3116POPC   C3B49327   6.264   3.217  25.085
 3116POPC   C4B49328   6.301   3.292  24.903
 3117POPC   NC349329  15.742  -5.900   3.777
 3117POPC   PO449330  15.673  -5.724   3.843
 3117POPC   GL149331  15.604  -5.548   3.909
 3117POPC   GL249332  15.674  -5.547   3.980
 3117POPC   C1A49333  15.534  -5.373   3.974
 3117POPC   D2A49334  15.465  -5.197   4.040
 3117POPC   C3A49335  15.395  -5.022   4.105
 3117POPC   C4A49336  15.326  -4.846   4.171
 3117POPC   C1B49337  15.659  -5.277   3.851
 3117POPC   C2B49338  15.590  -5.102   3.916
 3117POPC   C3B49339  15.520  -4.926   3.982
 3117POPC   C4B49340  15.451  -4.750   4.047
 3118POPC   NC349341  -0.205  23.951   4.770
 3118POPC   PO449342  -0.094  23.795   4.828
 3118POPC   GL149343   0.017  23.639   4.886
 3118POPC   GL249344   0.099  23.696   4.882
 3118POPC   C1A49345   0.128  23.483   4.944
 3118POPC   D2A49346   0.239  23.327   5.001
 3118POPC   C3A49347   0.350  23.171   5.059
 3118POPC   C4A49348   0.461  23.015   5.117
 3118POPC   C1B49349   0.100  23.534   5.135
 3118POPC   C2B49350   0.211  23.378   5.193
 3118POPC   C3B49351   0.322  23.222   5.251
 3118POPC   C4B49352   0.433  23.066   5.308
 3119POPC   NC349353  26.527  16.438  12.561
 3119POPC   PO449354  26.343  16.364  12.534
 3119POPC   GL149355  26.159  16.290  12.507
 3119POPC   GL249356  26.185  16.260  12.415
 3119POPC   C1A49357  25.975  16.216  12.480
 3119POPC   D2A49358  25.792  16.142  12.453
 3119POPC   C3A49359  25.608  16.068  12.426
 3119POPC   C4A49360  25.424  15.994  12.399
 3119POPC   C1B49361  26.035  16.040  12.555
 3119POPC   C2B49362  25.851  15.966  12.528
 3119POPC   C3B49363  25.667  15.892  12.501
 3119POPC   C4B49364  25.484  15.818  12.474
 3120POPC   NC349365  -1.768  17.120  21.704
 3120POPC   PO449366  -1.643  17.041  21.569
 3120POPC   GL149367  -1.518  16.962  21.434
 3120POPC   GL249368  -1.443  17.015  21.474
 3120POPC   C1A49369  -1.393  16.883  21.300
 3120POPC   D2A49370  -1.268  16.804  21.165
 3120POPC   C3A49371  -1.143  16.725  21.031
 3120POPC   C4A49372  -1.018  16.646  20.896
 3120POPC   C1B49373  -1.353  16.732  21.425
 3120POPC   C2B49374  -1.228  16.653  21.291
 3120POPC   C3B49375  -1.103  16.574  21.156
 3120POPC   C4B49376  -0.978  16.495  21.021
 3121POPC   NC349377   5.690  27.557  11.142
 3121POPC   PO449378   5.736  27.363  11.129
 3121POPC   GL149379   5.782  27.169  11.116
 3121POPC   GL249380   5.820  27.172  11.208
 3121POPC   C1A49381   5.827  26.975  11.103
 3121POPC   D2A49382   5.873  26.780  11.089
 3121POPC   C3A49383   5.918  26.586  11.076
 3121POPC   C4A49384   5.964  26.392  11.063
 3121POPC   C1B49385   5.648  26.927  11.179
 3121POPC   C2B49386   5.694  26.733  11.165
 3121POPC   C3B49387   5.739  26.539  11.152
 3121POPC   C4B49388   5.785  26.345  11.139
 3122POPC   NC349389  18.562   2.495  -4.008
 3122POPC   PO449390  18.462   2.573  -3.854
 3122POPC   GL149391  18.362   2.651  -3.700
 3122POPC   GL249392  18.420   2.732  -3.703
 3122POPC   C1A49393  18.261   2.729  -3.545
 3122POPC   D2A49394  18.161   2.806  -3.391
 3122POPC   C3A49395  18.060   2.884  -3.236
 3122POPC   C4A49396  17.960   2.962  -3.082
 3122POPC   C1B49397  18.134   2.816  -3.672
 3122POPC   C2B49398  18.033   2.894  -3.518
 3122POPC   C3B49399  17.933   2.972  -3.363
 3122POPC   C4B49400  17.832   3.049  -3.209
 3123POPC   NC349401  21.333  -1.673   2.243
 3123POPC   PO449402  21.206  -1.545   2.330
 3123POPC   GL149403  21.079  -1.417   2.417
 3123POPC   GL249404  21.153  -1.351   2.428
 3123POPC   C1A49405  20.952  -1.289   2.504
 3123POPC   D2A49406  20.825  -1.161   2.590
 3123POPC   C3A49407  20.698  -1.033   2.677
 3123POPC   C4A49408  20.571  -0.905   2.764
 3123POPC   C1B49409  20.909  -1.211   2.325
 3123POPC   C2B49410  20.782  -1.083   2.412
 3123POPC   C3B49411  20.655  -0.955   2.498
 3123POPC   C4B49412  20.528  -0.827   2.585
 3124POPC   NC349413   2.157  15.273  25.390
 3124POPC   PO449414   2.248  15.215  25.221
 3124POPC   GL149415   2.339  15.157  25.052
 3124POPC   GL249416   2.388  15.244  25.050
 3124POPC   C1A49417   2.430  15.100  24.884
 3124POPC   D2A49418   2.521  15.042  24.715
 3124POPC   C3A49419   2.612  14.985  24.547
 3124POPC   C4A49420   2.703  14.927  24.378
 3124POPC   C1B49421   2.578  15.019  24.991
 3124POPC   C2B49422   2.669  14.961  24.823
 3124POPC   C3B49423   2.760  14.904  24.654
 3124POPC   C4B49424   2.851  14.846  24.485
 3125POPC   NC349425  27.035   4.377   9.802
 3125POPC   PO449426  26.845   4.438   9.803
 3125POPC   GL149427  26.655   4.499   9.804
 3125POPC   GL249428  26.677   4.572   9.739
 3125POPC   C1A49429  26.464   4.561   9.805
 3125POPC   D2A49430  26.274   4.622   9.807
 3125POPC   C3A49431  26.083   4.684   9.808
 3125POPC   C4A49432  25.893   4.745   9.809
 3125POPC   C1B49433  26.423   4.437   9.654
 3125POPC   C2B49434  26.233   4.498   9.655
 3125POPC   C3B49435  26.042   4.560   9.656
 3125POPC   C4B49436  25.852   4.621   9.658
 3126POPC   NC349437  14.028  27.543  10.844
 3126POPC   PO449438  13.983  27.348  10.834
 3126POPC   GL149439  13.938  27.153  10.824
 3126POPC   GL249440  13.928  27.160  10.725
 3126POPC   C1A49441  13.893  26.958  10.815
 3126POPC   D2A49442  13.849  26.764  10.805
 3126POPC   C3A49443  13.804  26.569  10.796
 3126POPC   C4A49444  13.759  26.374  10.786
 3126POPC   C1B49445  14.087  26.915  10.792
 3126POPC   C2B49446  14.043  26.720  10.783
 3126POPC   C3B49447  13.998  26.525  10.773
 3126POPC   C4B49448  13.953  26.331  10.763
 3127POPC   NC349449   2.584  -3.990   1.054
 3127POPC   PO449450   2.666  -3.838   1.155
 3127POPC   GL149451   2.748  -3.686   1.256
 3127POPC   GL249452   2.839  -3.719   1.232
 3127POPC   C1A49453   2.830  -3.534   1.357
 3127POPC   D2A49454   2.911  -3.382   1.459
 3127POPC   C3A49455   2.993  -3.230   1.560
 3127POPC   C4A49456   3.075  -3.078   1.661
 3127POPC   C1B49457   2.826  -3.422   1.192
 3127POPC   C2B49458   2.907  -3.270   1.293
 3127POPC   C3B49459   2.989  -3.118   1.394
 3127POPC   C4B49460   3.071  -2.966   1.496
 3128POPC   NC349461   7.857  -7.751  12.556
 3128POPC   PO449462   7.878  -7.554  12.530
 3128POPC   GL149463   7.899  -7.357  12.504
 3128POPC   GL249464   7.935  -7.349  12.598
 3128POPC   C1A49465   7.921  -7.160  12.479
 3128POPC   D2A49466   7.942  -6.962  12.453
 3128POPC   C3A49467   7.964  -6.765  12.428
 3128POPC   C4A49468   7.985  -6.568  12.402
 3128POPC   C1B49469   8.107  -7.189  12.410
 3128POPC   C2B49470   8.128  -6.991  12.385
 3128POPC   C3B49471   8.149  -6.794  12.359
 3128POPC   C4B49472   8.171  -6.597  12.334
 3129POPC   NC349473  25.022   0.199   9.570
 3129POPC   PO449474  24.853   0.306   9.577
 3129POPC   GL149475  24.684   0.413   9.584
 3129POPC   GL249476  24.684   0.419   9.485
 3129POPC   C1A49477  24.516   0.520   9.592
 3129POPC   D2A49478  24.347   0.628   9.599
 3129POPC   C3A49479  24.179   0.735   9.607
 3129POPC   C4A49480  24.010   0.842   9.614
 3129POPC   C1B49481  24.408   0.352   9.583
 3129POPC   C2B49482  24.240   0.459   9.591
 3129POPC   C3B49483  24.071   0.566   9.598
 3129POPC   C4B49484  23.902   0.674   9.606
 3130POPC   NC349485   4.205   0.425  -4.312
 3130POPC   PO449486   4.270   0.532  -4.156
 3130POPC   GL149487   4.335   0.639  -4.000
 3130POPC   GL249488   4.303   0.568  -3.938
 3130POPC   C1A49489   4.400   0.746  -3.844
 3130POPC   D2A49490   4.466   0.854  -3.689
 3130POPC   C3A49491   4.531   0.961  -3.533
 3130POPC   C4A49492   4.596   1.068  -3.377
 3130POPC   C1B49493   4.578   0.656  -3.857
 3130POPC   C2B49494   4.644   0.763  -3.701
 3130POPC   C3B49495   4.709   0.870  -3.545
 3130POPC   C4B49496   4.774   0.978  -3.389
 3131POPC   NC349497  -4.251   4.548  -0.027
 3131POPC   PO449498  -4.097   4.606   0.087
 3131POPC   GL149499  -3.943   4.664   0.201
 3131POPC   GL249500  -3.986   4.622   0.281
 3131POPC   C1A49501  -3.789   4.721   0.315
 3131POPC   D2A49502  -3.635   4.779   0.428
 3131POPC   C3A49503  -3.481   4.836   0.542
 3131POPC   C4A49504  -3.327   4.894   0.656
 3131POPC   C1B49505  -3.695   4.549   0.275
 3131POPC   C2B49506  -3.541   4.607   0.388
 3131POPC   C3B49507  -3.387   4.664   0.502
 3131POPC   C4B49508  -3.233   4.722   0.616
 3132POPC   NC349509   9.388   0.218  25.100
 3132POPC   PO449510   9.394   0.322  24.929
 3132POPC   GL149511   9.400   0.426  24.758
 3132POPC   GL249512   9.442   0.503  24.807
 3132POPC   C1A49513   9.405   0.531  24.588
 3132POPC   D2A49514   9.411   0.635  24.417
 3132POPC   C3A49515   9.416   0.740  24.247
 3132POPC   C4A49516   9.422   0.844  24.076
 3132POPC   C1B49517   9.586   0.456  24.548
 3132POPC   C2B49518   9.592   0.560  24.377
 3132POPC   C3B49519   9.597   0.664  24.207
 3132POPC   C4B49520   9.603   0.769  24.036
 3133POPC   NC349521   5.348  15.977  26.430
 3133POPC   PO449522   5.397  15.919  26.245
 3133POPC   GL149523   5.446  15.861  26.060
 3133POPC   GL249524   5.542  15.880  26.079
 3133POPC   C1A49525   5.494  15.803  25.875
 3133POPC   D2A49526   5.543  15.744  25.690
 3133POPC   C3A49527   5.591  15.686  25.505
 3133POPC   C4A49528   5.640  15.628  25.320
 3133POPC   C1B49529   5.519  15.615  25.940
 3133POPC   C2B49530   5.567  15.557  25.755
 3133POPC   C3B49531   5.616  15.499  25.570
 3133POPC   C4B49532   5.664  15.441  25.385
 3134POPC   NC349533   7.034  25.373   0.952
 3134POPC   PO449534   7.066  25.206   1.057
 3134POPC   GL149535   7.098  25.039   1.162
 3134POPC   GL249536   7.167  25.086   1.217
 3134POPC   C1A49537   7.130  24.872   1.267
 3134POPC   D2A49538   7.163  24.704   1.372
 3134POPC   C3A49539   7.195  24.537   1.477
 3134POPC   C4A49540   7.227  24.370   1.582
 3134POPC   C1B49541   6.989  24.926   1.398
 3134POPC   C2B49542   7.021  24.759   1.503
 3134POPC   C3B49543   7.053  24.592   1.608
 3134POPC   C4B49544   7.086  24.425   1.713
 3135POPC   NC349545  20.267  18.430  21.977
 3135POPC   PO449546  20.150  18.341  21.841
 3135POPC   GL149547  20.033  18.252  21.705
 3135POPC   GL249548  20.115  18.217  21.658
 3135POPC   C1A49549  19.917  18.163  21.569
 3135POPC   D2A49550  19.800  18.075  21.432
 3135POPC   C3A49551  19.684  17.986  21.296
 3135POPC   C4A49552  19.567  17.897  21.160
 3135POPC   C1B49553  19.910  17.998  21.681
 3135POPC   C2B49554  19.794  17.910  21.545
 3135POPC   C3B49555  19.677  17.821  21.409
 3135POPC   C4B49556  19.561  17.732  21.273
 3136POPC   NC349557  -5.251   1.348  14.620
 3136POPC   PO449558  -5.083   1.443  14.567
 3136POPC   GL149559  -4.915   1.538  14.514
 3136POPC   GL249560  -4.921   1.594  14.597
 3136POPC   C1A49561  -4.747   1.633  14.462
 3136POPC   D2A49562  -4.579   1.727  14.409
 3136POPC   C3A49563  -4.411   1.822  14.357
 3136POPC   C4A49564  -4.243   1.917  14.304
 3136POPC   C1B49565  -4.639   1.497  14.562
 3136POPC   C2B49566  -4.471   1.592  14.509
 3136POPC   C3B49567  -4.303   1.687  14.457
 3136POPC   C4B49568  -4.135   1.782  14.404
 3137POPC   NC349569  12.941  15.038  -7.099
 3137POPC   PO449570  12.907  14.980  -6.910
 3137POPC   GL149571  12.873  14.922  -6.721
 3137POPC   GL249572  12.969  14.896  -6.712
 3137POPC   C1A49573  12.839  14.865  -6.533
 3137POPC   D2A49574  12.806  14.807  -6.344
 3137POPC   C3A49575  12.772  14.750  -6.156
 3137POPC   C4A49576  12.738  14.692  -5.967
 3137POPC   C1B49577  12.883  15.049  -6.469
 3137POPC   C2B49578  12.849  14.992  -6.280
 3137POPC   C3B49579  12.815  14.934  -6.091
 3137POPC   C4B49580  12.782  14.876  -5.903
 3138POPC   NC349581  -7.779  12.113   6.990
 3138POPC   PO449582  -7.584  12.090   7.027
 3138POPC   GL149583  -7.389  12.067   7.064
 3138POPC   GL249584  -7.410  12.040   7.157
 3138POPC   C1A49585  -7.194  12.044   7.100
 3138POPC   D2A49586  -6.998  12.022   7.137
 3138POPC   C3A49587  -6.803  11.999   7.173
 3138POPC   C4A49588  -6.608  11.976   7.210
 3138POPC   C1B49589  -7.205  11.854   7.042
 3138POPC   C2B49590  -7.010  11.831   7.078
 3138POPC   C3B49591  -6.815  11.808   7.115
 3138POPC   C4B49592  -6.619  11.785   7.151
 3139POPC   NC349593  -5.861   1.124  10.475
 3139POPC   PO449594  -5.686   1.220  10.470
 3139POPC   GL149595  -5.511   1.316  10.465
 3139POPC   GL249596  -5.463   1.228  10.464
 3139POPC   C1A49597  -5.336   1.412  10.461
 3139POPC   D2A49598  -5.160   1.509  10.456
 3139POPC   C3A49599  -4.985   1.605  10.452
 3139POPC   C4A49600  -4.810   1.701  10.447
 3139POPC   C1B49601  -5.341   1.413  10.261
 3139POPC   C2B49602  -5.166   1.509  10.256
 3139POPC   C3B49603  -4.991   1.605  10.252
 3139POPC   C4B49604  -4.815   1.701  10.247
 3140POPC   NC349605  22.380   6.546  -2.645
 3140POPC   PO449606  22.243   6.587  -2.505
 3140POPC   GL149607  22.106   6.628  -2.365
 3140POPC   GL249608  22.054   6.680  -2.432
 3140POPC   C1A49609  21.970   6.668  -2.225
 3140POPC   D2A49610  21.833   6.709  -2.084
 3140POPC   C3A49611  21.697   6.749  -1.944
 3140POPC   C4A49612  21.560   6.790  -1.804
 3140POPC   C1B49613  21.869   6.503  -2.275
 3140POPC   C2B49614  21.732   6.544  -2.135
 3140POPC   C3B49615  21.596   6.584  -1.995
 3140POPC   C4B49616  21.459   6.625  -1.854
 3141POPC   NC349617   2.199  26.016  13.083
 3141POPC   PO449618   2.282  25.839  13.043
 3141POPC   GL149619   2.365  25.662  13.003
 3141POPC   GL249620   2.429  25.675  13.079
 3141POPC   C1A49621   2.449  25.485  12.962
 3141POPC   D2A49622   2.532  25.307  12.922
 3141POPC   C3A49623   2.616  25.130  12.881
 3141POPC   C4A49624   2.699  24.953  12.841
 3141POPC   C1B49625   2.319  25.395  13.086
 3141POPC   C2B49626   2.403  25.218  13.045
 3141POPC   C3B49627   2.486  25.041  13.005
 3141POPC   C4B49628   2.569  24.864  12.965
 3142POPC   NC349629   7.790  -6.223   2.302
 3142POPC   PO449630   7.813  -6.044   2.388
 3142POPC   GL149631   7.836  -5.865   2.474
 3142POPC   GL249632   7.935  -5.873   2.464
 3142POPC   C1A49633   7.858  -5.686   2.560
 3142POPC   D2A49634   7.881  -5.506   2.645
 3142POPC   C3A49635   7.903  -5.327   2.731
 3142POPC   C4A49636   7.926  -5.148   2.817
 3142POPC   C1B49637   7.848  -5.598   2.380
 3142POPC   C2B49638   7.871  -5.419   2.466
 3142POPC   C3B49639   7.893  -5.240   2.552
 3142POPC   C4B49640   7.916  -5.061   2.637
 3143POPC   NC349641  19.233   0.978  -2.597
 3143POPC   PO449642  19.123   1.075  -2.461
 3143POPC   GL149643  19.013   1.172  -2.325
 3143POPC   GL249644  18.995   1.245  -2.391
 3143POPC   C1A49645  18.903   1.269  -2.189
 3143POPC   D2A49646  18.792   1.365  -2.053
 3143POPC   C3A49647  18.682   1.462  -1.917
 3143POPC   C4A49648  18.572   1.559  -1.781
 3143POPC   C1B49649  18.739   1.172  -2.252
 3143POPC   C2B49650  18.629   1.268  -2.116
 3143POPC   C3B49651  18.519   1.365  -1.980
 3143POPC   C4B49652  18.409   1.462  -1.844
 3144POPC   NC349653  18.383  -5.192   5.253
 3144POPC   PO449654  18.291  -5.023   5.307
 3144POPC   GL149655  18.199  -4.854   5.361
 3144POPC   GL249656  18.273  -4.800   5.318
 3144POPC   C1A49657  18.108  -4.684   5.414
 3144POPC   D2A49658  18.016  -4.515   5.468
 3144POPC   C3A49659  17.925  -4.345   5.521
 3144POPC   C4A49660  17.833  -4.176   5.575
 3144POPC   C1B49661  18.007  -4.684   5.242
 3144POPC   C2B49662  17.915  -4.515   5.295
 3144POPC   C3B49663  17.823  -4.346   5.349
 3144POPC   C4B49664  17.732  -4.176   5.403
 3145POPC   NC349665  22.421  -2.557  13.211
 3145POPC   PO449666  22.280  -2.420  13.175
 3145POPC   GL149667  22.139  -2.283  13.139
 3145POPC   GL249668  22.152  -2.295  13.041
 3145POPC   C1A49669  21.998  -2.146  13.103
 3145POPC   D2A49670  21.857  -2.008  13.068
 3145POPC   C3A49671  21.716  -1.871  13.032
 3145POPC   C4A49672  21.575  -1.734  12.996
 3145POPC   C1B49673  21.859  -2.289  13.103
 3145POPC   C2B49674  21.718  -2.152  13.067
 3145POPC   C3B49675  21.577  -2.015  13.032
 3145POPC   C4B49676  21.436  -1.877  12.996
 3146POPC   NC349677  -1.688  18.306  21.011
 3146POPC   PO449678  -1.562  18.215  20.885
 3146POPC   GL149679  -1.436  18.124  20.759
 3146POPC   GL249680  -1.375  18.203  20.763
 3146POPC   C1A49681  -1.311  18.033  20.632
 3146POPC   D2A49682  -1.185  17.942  20.506
 3146POPC   C3A49683  -1.060  17.851  20.379
 3146POPC   C4A49684  -0.934  17.760  20.253
 3146POPC   C1B49685  -1.215  17.950  20.787
 3146POPC   C2B49686  -1.090  17.859  20.661
 3146POPC   C3B49687  -0.964  17.768  20.534
 3146POPC   C4B49688  -0.838  17.677  20.408
 3147POPC   NC349689  26.021  17.950   9.475
 3147POPC   PO449690  25.841  17.863   9.484
 3147POPC   GL149691  25.661  17.776   9.493
 3147POPC   GL249692  25.654  17.780   9.393
 3147POPC   C1A49693  25.481  17.690   9.502
 3147POPC   D2A49694  25.301  17.603   9.511
 3147POPC   C3A49695  25.121  17.517   9.520
 3147POPC   C4A49696  24.941  17.430   9.529
 3147POPC   C1B49697  25.567  17.510   9.490
 3147POPC   C2B49698  25.387  17.423   9.499
 3147POPC   C3B49699  25.207  17.336   9.508
 3147POPC   C4B49700  25.027  17.250   9.517
 3148POPC   NC349701  -5.089  16.112  18.078
 3148POPC   PO449702  -4.922  16.045  17.990
 3148POPC   GL149703  -4.755  15.978  17.902
 3148POPC   GL249704  -4.714  15.962  17.992
 3148POPC   C1A49705  -4.589  15.910  17.814
 3148POPC   D2A49706  -4.422  15.843  17.727
 3148POPC   C3A49707  -4.256  15.775  17.639
 3148POPC   C4A49708  -4.089  15.708  17.551
 3148POPC   C1B49709  -4.663  15.725  17.816
 3148POPC   C2B49710  -4.497  15.657  17.728
 3148POPC   C3B49711  -4.330  15.590  17.640
 3148POPC   C4B49712  -4.163  15.522  17.552
 3149POPC   NC349713  10.168  -3.577  21.793
 3149POPC   PO449714  10.158  -3.428  21.660
 3149POPC   GL149715  10.148  -3.279  21.527
 3149POPC   GL249716  10.147  -3.346  21.452
 3149POPC   C1A49717  10.138  -3.130  21.394
 3149POPC   D2A49718  10.127  -2.982  21.260
 3149POPC   C3A49719  10.117  -2.833  21.127
 3149POPC   C4A49720  10.107  -2.684  20.994
 3149POPC   C1B49721   9.938  -3.137  21.402
 3149POPC   C2B49722   9.928  -2.988  21.269
 3149POPC   C3B49723   9.917  -2.839  21.135
 3149POPC   C4B49724   9.907  -2.690  21.002
 3150POPC   NC349725  26.143  15.307  15.584
 3150POPC   PO449726  25.961  15.253  15.522
 3150POPC   GL149727  25.779  15.199  15.460
 3150POPC   GL249728  25.794  15.248  15.373
 3150POPC   C1A49729  25.596  15.146  15.397
 3150POPC   D2A49730  25.414  15.092  15.335
 3150POPC   C3A49731  25.231  15.039  15.272
 3150POPC   C4A49732  25.049  14.985  15.210
 3150POPC   C1B49733  25.673  14.979  15.318
 3150POPC   C2B49734  25.490  14.925  15.255
 3150POPC   C3B49735  25.308  14.872  15.193
 3150POPC   C4B49736  25.125  14.818  15.130
 3151POPC   NC349737  19.780  17.952  -2.873
 3151POPC   PO449738  19.673  17.865  -2.729
 3151POPC   GL149739  19.566  17.778  -2.585
 3151POPC   GL249740  19.642  17.716  -2.565
 3151POPC   C1A49741  19.458  17.691  -2.440
 3151POPC   D2A49742  19.351  17.603  -2.296
 3151POPC   C3A49743  19.243  17.516  -2.151
 3151POPC   C4A49744  19.136  17.429  -2.007
 3151POPC   C1B49745  19.531  17.821  -2.307
 3151POPC   C2B49746  19.423  17.734  -2.163
 3151POPC   C3B49747  19.316  17.647  -2.019
 3151POPC   C4B49748  19.209  17.560  -1.874
 3152POPC   NC349749   7.174  16.625  26.549
 3152POPC   PO449750   7.197  16.552  26.364
 3152POPC   GL149751   7.220  16.479  26.179
 3152POPC   GL249752   7.315  16.510  26.179
 3152POPC   C1A49753   7.243  16.406  25.994
 3152POPC   D2A49754   7.266  16.334  25.810
 3152POPC   C3A49755   7.289  16.261  25.625
 3152POPC   C4A49756   7.312  16.188  25.440
 3152POPC   C1B49757   7.300  16.231  26.071
 3152POPC   C2B49758   7.323  16.158  25.886
 3152POPC   C3B49759   7.346  16.085  25.701
 3152POPC   C4B49760   7.369  16.012  25.516
 3153POPC   NC349761  -1.663  11.638  -3.782
 3153POPC   PO449762  -1.537  11.620  -3.628
 3153POPC   GL149763  -1.411  11.602  -3.474
 3153POPC   GL249764  -1.463  11.672  -3.424
 3153POPC   C1A49765  -1.285  11.585  -3.320
 3153POPC   D2A49766  -1.159  11.567  -3.165
 3153POPC   C3A49767  -1.033  11.550  -3.011
 3153POPC   C4A49768  -0.907  11.532  -2.857
 3153POPC   C1B49769  -1.401  11.442  -3.241
 3153POPC   C2B49770  -1.275  11.424  -3.087
 3153POPC   C3B49771  -1.149  11.406  -2.933
 3153POPC   C4B49772  -1.023  11.389  -2.779
 3154POPC   NC349773  -5.084  14.714  18.957
 3154POPC   PO449774  -4.917  14.664  18.858
 3154POPC   GL149775  -4.750  14.614  18.759
 3154POPC   GL249776  -4.705  14.697  18.793
 3154POPC   C1A49777  -4.583  14.564  18.661
 3154POPC   D2A49778  -4.417  14.515  18.562
 3154POPC   C3A49779  -4.250  14.465  18.464
 3154POPC   C4A49780  -4.083  14.415  18.365
 3154POPC   C1B49781  -4.519  14.464  18.821
 3154POPC   C2B49782  -4.352  14.414  18.722
 3154POPC   C3B49783  -4.185  14.364  18.624
 3154POPC   C4B49784  -4.018  14.314  18.525
 3155POPC   NC349785  -2.791  16.970  20.758
 3155POPC   PO449786  -2.654  16.891  20.635
 3155POPC   GL149787  -2.517  16.812  20.512
 3155POPC   GL249788  -2.464  16.896  20.517
 3155POPC   C1A49789  -2.381  16.733  20.390
 3155POPC   D2A49790  -2.244  16.653  20.267
 3155POPC   C3A49791  -2.108  16.574  20.145
 3155POPC   C4A49792  -1.971  16.495  20.022
 3155POPC   C1B49793  -2.281  16.661  20.547
 3155POPC   C2B49794  -2.144  16.581  20.425
 3155POPC   C3B49795  -2.008  16.502  20.302
 3155POPC   C4B49796  -1.871  16.423  20.180
 3156POPC   NC349797  22.009   8.095  23.166
 3156POPC   PO449798  21.872   8.116  23.022
 3156POPC   GL149799  21.735   8.137  22.878
 3156POPC   GL249800  21.806   8.164  22.814
 3156POPC   C1A49801  21.598   8.157  22.734
 3156POPC   D2A49802  21.460   8.178  22.590
 3156POPC   C3A49803  21.323   8.198  22.446
 3156POPC   C4A49804  21.186   8.219  22.302
 3156POPC   C1B49805  21.623   7.966  22.682
 3156POPC   C2B49806  21.486   7.986  22.538
 3156POPC   C3B49807  21.349   8.007  22.394
 3156POPC   C4B49808  21.212   8.028  22.250
 3157POPC   NC349809  -1.713   9.102  -3.837
 3157POPC   PO449810  -1.585   9.108  -3.684
 3157POPC   GL149811  -1.457   9.114  -3.531
 3157POPC   GL249812  -1.483   9.209  -3.512
 3157POPC   C1A49813  -1.328   9.120  -3.378
 3157POPC   D2A49814  -1.200   9.127  -3.224
 3157POPC   C3A49815  -1.071   9.133  -3.071
 3157POPC   C4A49816  -0.943   9.139  -2.918
 3157POPC   C1B49817  -1.472   9.056  -3.255
 3157POPC   C2B49818  -1.344   9.062  -3.101
 3157POPC   C3B49819  -1.215   9.068  -2.948
 3157POPC   C4B49820  -1.087   9.074  -2.795
 3158POPC   NC349821  -3.728  13.091  21.393
 3158POPC   PO449822  -3.577  13.061  21.266
 3158POPC   GL149823  -3.426  13.031  21.139
 3158POPC   GL249824  -3.385  12.966  21.203
 3158POPC   C1A49825  -3.274  13.001  21.012
 3158POPC   D2A49826  -3.123  12.971  20.884
 3158POPC   C3A49827  -2.971  12.941  20.757
 3158POPC   C4A49828  -2.820  12.911  20.630
 3158POPC   C1B49829  -3.376  12.852  20.925
 3158POPC   C2B49830  -3.225  12.822  20.798
 3158POPC   C3B49831  -3.074  12.792  20.671
 3158POPC   C4B49832  -2.922  12.762  20.544
 3159POPC   NC349833  17.119  18.754  -4.086
 3159POPC   PO449834  17.038  18.659  -3.930
 3159POPC   GL149835  16.957  18.564  -3.774
 3159POPC   GL249836  16.969  18.476  -3.821
 3159POPC   C1A49837  16.875  18.468  -3.618
 3159POPC   D2A49838  16.794  18.373  -3.463
 3159POPC   C3A49839  16.712  18.277  -3.307
 3159POPC   C4A49840  16.631  18.182  -3.151
 3159POPC   C1B49841  17.056  18.449  -3.536
 3159POPC   C2B49842  16.975  18.354  -3.380
 3159POPC   C3B49843  16.893  18.258  -3.224
 3159POPC   C4B49844  16.812  18.163  -3.068
 3160POPC   NC349845  21.818  15.849  -2.287
 3160POPC   PO449846  21.687  15.786  -2.150
 3160POPC   GL149847  21.556  15.723  -2.013
 3160POPC   GL249848  21.514  15.662  -2.081
 3160POPC   C1A49849  21.425  15.659  -1.876
 3160POPC   D2A49850  21.293  15.596  -1.739
 3160POPC   C3A49851  21.162  15.532  -1.602
 3160POPC   C4A49852  21.031  15.469  -1.465
 3160POPC   C1B49853  21.551  15.513  -1.823
 3160POPC   C2B49854  21.420  15.450  -1.686
 3160POPC   C3B49855  21.288  15.387  -1.549
 3160POPC   C4B49856  21.157  15.323  -1.412
 3161POPC   NC349857  19.172  23.942   3.200
 3161POPC   PO449858  19.070  23.790   3.281
 3161POPC   GL149859  18.968  23.638   3.362
 3161POPC   GL249860  18.903  23.641   3.286
 3161POPC   C1A49861  18.866  23.487   3.443
 3161POPC   D2A49862  18.763  23.335   3.524
 3161POPC   C3A49863  18.661  23.184   3.605
 3161POPC   C4A49864  18.559  23.032   3.686
 3161POPC   C1B49865  18.979  23.356   3.343
 3161POPC   C2B49866  18.877  23.205   3.424
 3161POPC   C3B49867  18.775  23.053   3.505
 3161POPC   C4B49868  18.673  22.902   3.586
 3162POPC   NC349869  -2.579  21.385  16.384
 3162POPC   PO449870  -2.441  21.259  16.313
 3162POPC   GL149871  -2.303  21.133  16.242
 3162POPC   GL249872  -2.251  21.210  16.206
 3162POPC   C1A49873  -2.165  21.007  16.171
 3162POPC   D2A49874  -2.027  20.880  16.099
 3162POPC   C3A49875  -1.889  20.754  16.028
 3162POPC   C4A49876  -1.751  20.628  15.957
 3162POPC   C1B49877  -2.065  21.019  16.343
 3162POPC   C2B49878  -1.927  20.893  16.272
 3162POPC   C3B49879  -1.789  20.767  16.201
 3162POPC   C4B49880  -1.651  20.640  16.130
 3163POPC   NC349881  10.837  26.368  17.522
 3163POPC   PO449882  10.826  26.187  17.437
 3163POPC   GL149883  10.815  26.006  17.352
 3163POPC   GL249884  10.849  25.965  17.436
 3163POPC   C1A49885  10.803  25.826  17.267
 3163POPC   D2A49886  10.792  25.645  17.182
 3163POPC   C3A49887  10.780  25.465  17.097
 3163POPC   C4A49888  10.769  25.284  17.012
 3163POPC   C1B49889  10.615  25.807  17.333
 3163POPC   C2B49890  10.604  25.626  17.248
 3163POPC   C3B49891  10.593  25.445  17.163
 3163POPC   C4B49892  10.581  25.265  17.078
 3164POPC   NC349893  22.394  22.888  11.623
 3164POPC   PO449894  22.255  22.746  11.598
 3164POPC   GL149895  22.116  22.604  11.573
 3164POPC   GL249896  22.181  22.550  11.519
 3164POPC   C1A49897  21.977  22.462  11.548
 3164POPC   D2A49898  21.839  22.320  11.523
 3164POPC   C3A49899  21.700  22.178  11.498
 3164POPC   C4A49900  21.561  22.036  11.473
 3164POPC   C1B49901  22.040  22.371  11.715
 3164POPC   C2B49902  21.902  22.229  11.690
 3164POPC   C3B49903  21.763  22.087  11.665
 3164POPC   C4B49904  21.624  21.945  11.640
 3165POPC   NC349905  18.577  -3.295  18.573
 3165POPC   PO449906  18.479  -3.151  18.475
 3165POPC   GL149907  18.381  -3.007  18.377
 3165POPC   GL249908  18.468  -2.967  18.348
 3165POPC   C1A49909  18.283  -2.862  18.280
 3165POPC   D2A49910  18.184  -2.718  18.182
 3165POPC   C3A49911  18.086  -2.573  18.085
 3165POPC   C4A49912  17.988  -2.429  17.987
 3165POPC   C1B49913  18.279  -2.976  18.115
 3165POPC   C2B49914  18.181  -2.832  18.018
 3165POPC   C3B49915  18.082  -2.687  17.920
 3165POPC   C4B49916  17.984  -2.543  17.823
 3166POPC   NC349917  -6.215   6.163   2.628
 3166POPC   PO449918  -6.036   6.200   2.709
 3166POPC   GL149919  -5.857   6.237   2.790
 3166POPC   GL249920  -5.899   6.303   2.852
 3166POPC   C1A49921  -5.678   6.274   2.871
 3166POPC   D2A49922  -5.499   6.311   2.953
 3166POPC   C3A49923  -5.320   6.348   3.034
 3166POPC   C4A49924  -5.141   6.385   3.115
 3166POPC   C1B49925  -5.709   6.129   3.005
 3166POPC   C2B49926  -5.530   6.166   3.086
 3166POPC   C3B49927  -5.351   6.203   3.168
 3166POPC   C4B49928  -5.172   6.240   3.249
 3167POPC   NC349929  26.074  16.903   6.244
 3167POPC   PO449930  25.895  16.822   6.281
 3167POPC   GL149931  25.716  16.741   6.318
 3167POPC   GL249932  25.750  16.652   6.289
 3167POPC   C1A49933  25.537  16.660   6.355
 3167POPC   D2A49934  25.357  16.580   6.393
 3167POPC   C3A49935  25.178  16.499   6.430
 3167POPC   C4A49936  24.999  16.418   6.467
 3167POPC   C1B49937  25.593  16.621   6.543
 3167POPC   C2B49938  25.414  16.540   6.580
 3167POPC   C3B49939  25.235  16.459   6.618
 3167POPC   C4B49940  25.056  16.379   6.655
 3168POPC   NC349941  27.097   7.543  14.799
 3168POPC   PO449942  26.906   7.571  14.748
 3168POPC   GL149943  26.715   7.599  14.697
 3168POPC   GL249944  26.716   7.514  14.644
 3168POPC   C1A49945  26.524   7.627  14.645
 3168POPC   D2A49946  26.332   7.656  14.594
 3168POPC   C3A49947  26.141   7.684  14.542
 3168POPC   C4A49948  25.950   7.712  14.491
 3168POPC   C1B49949  26.465   7.526  14.807
 3168POPC   C2B49950  26.274   7.554  14.756
 3168POPC   C3B49951  26.083   7.582  14.704
 3168POPC   C4B49952  25.891   7.610  14.653
 3169POPC   NC349953  22.538   0.562   1.204
 3169POPC   PO449954  22.399   0.665   1.305
 3169POPC   GL149955  22.260   0.768   1.406
 3169POPC   GL249956  22.329   0.835   1.433
 3169POPC   C1A49957  22.121   0.871   1.507
 3169POPC   D2A49958  21.983   0.973   1.607
 3169POPC   C3A49959  21.844   1.076   1.708
 3169POPC   C4A49960  21.705   1.179   1.809
 3169POPC   C1B49961  22.082   0.978   1.343
 3169POPC   C2B49962  21.943   1.081   1.443
 3169POPC   C3B49963  21.804   1.184   1.544
 3169POPC   C4B49964  21.665   1.286   1.645
 3170POPC   NC349965  14.950  20.934  -3.548
 3170POPC   PO449966  14.896  20.816  -3.396
 3170POPC   GL149967  14.842  20.698  -3.244
 3170POPC   GL249968  14.932  20.656  -3.244
 3170POPC   C1A49969  14.788  20.581  -3.091
 3170POPC   D2A49970  14.733  20.463  -2.939
 3170POPC   C3A49971  14.679  20.346  -2.786
 3170POPC   C4A49972  14.625  20.228  -2.634
 3170POPC   C1B49973  14.852  20.719  -2.962
 3170POPC   C2B49974  14.798  20.601  -2.809
 3170POPC   C3B49975  14.744  20.484  -2.657
 3170POPC   C4B49976  14.689  20.366  -2.505
 3171POPC   NC349977  20.616  -2.851   3.127
 3171POPC   PO449978  20.498  -2.708   3.202
 3171POPC   GL149979  20.380  -2.565   3.277
 3171POPC   GL249980  20.454  -2.499   3.268
 3171POPC   C1A49981  20.262  -2.422   3.352
 3171POPC   D2A49982  20.143  -2.279   3.426
 3171POPC   C3A49983  20.025  -2.136   3.501
 3171POPC   C4A49984  19.907  -1.993   3.576
 3171POPC   C1B49985  20.199  -2.377   3.167
 3171POPC   C2B49986  20.081  -2.234   3.242
 3171POPC   C3B49987  19.963  -2.091   3.317
 3171POPC   C4B49988  19.845  -1.948   3.391
 3172POPC   NC349989  -1.300   2.548  21.914
 3172POPC   PO449990  -1.177   2.627  21.777
 3172POPC   GL149991  -1.054   2.706  21.640
 3172POPC   GL249992  -0.975   2.671  21.691
 3172POPC   C1A49993  -0.931   2.785  21.503
 3172POPC   D2A49994  -0.809   2.864  21.367
 3172POPC   C3A49995  -0.686   2.943  21.230
 3172POPC   C4A49996  -0.563   3.022  21.093
 3172POPC   C1B49997  -0.939   2.615  21.398
 3172POPC   C2B49998  -0.816   2.694  21.261
 3172POPC   C3B49999  -0.694   2.773  21.125
 3172POPC   C4B50000  -0.571   2.852  20.988
 3173POPC   NC350001  23.261  19.982  16.674
 3173POPC   PO450002  23.117  19.864  16.600
 3173POPC   GL150003  22.973  19.746  16.526
 3173POPC   GL250004  22.974  19.799  16.441
 3173POPC   C1A50005  22.829  19.629  16.452
 3173POPC   D2A50006  22.685  19.511  16.378
 3173POPC   C3A50007  22.541  19.394  16.304
 3173POPC   C4A50008  22.397  19.276  16.230
 3173POPC   C1B50009  22.968  19.505  16.378
 3173POPC   C2B50010  22.824  19.388  16.304
 3173POPC   C3B50011  22.680  19.270  16.230
 3173POPC   C4B50012  22.536  19.152  16.156
 3174POPC   NC350013  -5.839  12.468  18.533
 3174POPC   PO450014  -5.667  12.440  18.434
 3174POPC   GL150015  -5.495  12.412  18.335
 3174POPC   GL250016  -5.450  12.478  18.396
 3174POPC   C1A50017  -5.323  12.385  18.237
 3174POPC   D2A50018  -5.152  12.357  18.138
 3174POPC   C3A50019  -4.980  12.330  18.040
 3174POPC   C4A50020  -4.808  12.302  17.941
 3174POPC   C1B50021  -5.275  12.237  18.362
 3174POPC   C2B50022  -5.103  12.209  18.264
 3174POPC   C3B50023  -4.932  12.181  18.165
 3174POPC   C4B50024  -4.760  12.154  18.066
 3175POPC   NC350025  25.280  19.326  10.906
 3175POPC   PO450026  25.109  19.222  10.896
 3175POPC   GL150027  24.938  19.118  10.886
 3175POPC   GL250028  24.988  19.034  10.908
 3175POPC   C1A50029  24.768  19.014  10.876
 3175POPC   D2A50030  24.597  18.910  10.866
 3175POPC   C3A50031  24.427  18.806  10.856
 3175POPC   C4A50032  24.256  18.702  10.846
 3175POPC   C1B50033  24.737  19.047  11.071
 3175POPC   C2B50034  24.566  18.943  11.061
 3175POPC   C3B50035  24.395  18.839  11.051
 3175POPC   C4B50036  24.225  18.735  11.041
 3176POPC   NC350037  -2.313  20.788  17.767
 3176POPC   PO450038  -2.178  20.669  17.680
 3176POPC   GL150039  -2.043  20.550  17.593
 3176POPC   GL250040  -1.971  20.615  17.616
 3176POPC   C1A50041  -1.908  20.430  17.506
 3176POPC   D2A50042  -1.774  20.311  17.418
 3176POPC   C3A50043  -1.639  20.191  17.331
 3176POPC   C4A50044  -1.504  20.072  17.244
 3176POPC   C1B50045  -1.879  20.336  17.680
 3176POPC   C2B50046  -1.744  20.217  17.592
 3176POPC   C3B50047  -1.610  20.097  17.505
 3176POPC   C4B50048  -1.475  19.978  17.418
 3177POPC   NC350049  -3.442   6.176  -1.677
 3177POPC   PO450050  -3.293   6.212  -1.549
 3177POPC   GL150051  -3.144   6.248  -1.421
 3177POPC   GL250052  -3.205   6.227  -1.344
 3177POPC   C1A50053  -2.995   6.285  -1.292
 3177POPC   D2A50054  -2.846   6.321  -1.164
 3177POPC   C3A50055  -2.697   6.358  -1.035
 3177POPC   C4A50056  -2.548   6.394  -0.907
 3177POPC   C1B50057  -2.940   6.093  -1.302
 3177POPC   C2B50058  -2.791   6.129  -1.174
 3177POPC   C3B50059  -2.642   6.166  -1.045
 3177POPC   C4B50060  -2.493   6.202  -0.917
 3178POPC   NC350061  -7.687   9.931  14.169
 3178POPC   PO450062  -7.492   9.933  14.123
 3178POPC   GL150063  -7.297   9.935  14.077
 3178POPC   GL250064  -7.275   9.913  14.172
 3178POPC   C1A50065  -7.103   9.936  14.031
 3178POPC   D2A50066  -6.908   9.938  13.984
 3178POPC   C3A50067  -6.714   9.939  13.938
 3178POPC   C4A50068  -6.519   9.941  13.892
 3178POPC   C1B50069  -7.111   9.741  13.987
 3178POPC   C2B50070  -6.917   9.743  13.941
 3178POPC   C3B50071  -6.722   9.744  13.895
 3178POPC   C4B50072  -6.528   9.746  13.849
 3179POPC   NC350073  20.829  -2.838  16.326
 3179POPC   PO450074  20.708  -2.695  16.256
 3179POPC   GL150075  20.587  -2.552  16.186
 3179POPC   GL250076  20.665  -2.507  16.142
 3179POPC   C1A50077  20.466  -2.409  16.116
 3179POPC   D2A50078  20.346  -2.266  16.045
 3179POPC   C3A50079  20.225  -2.123  15.975
 3179POPC   C4A50080  20.104  -1.980  15.905
 3179POPC   C1B50081  20.436  -2.516  15.950
 3179POPC   C2B50082  20.315  -2.373  15.879
 3179POPC   C3B50083  20.194  -2.230  15.809
 3179POPC   C4B50084  20.074  -2.087  15.739
 3180POPC   NC350085  13.924  -0.545  -4.140
 3180POPC   PO450086  13.882  -0.428  -3.984
 3180POPC   GL150087  13.840  -0.311  -3.828
 3180POPC   GL250088  13.900  -0.240  -3.864
 3180POPC   C1A50089  13.797  -0.193  -3.672
 3180POPC   D2A50090  13.755  -0.076  -3.515
 3180POPC   C3A50091  13.712   0.042  -3.359
 3180POPC   C4A50092  13.670   0.159  -3.203
 3180POPC   C1B50093  13.644  -0.114  -3.773
 3180POPC   C2B50094  13.601   0.003  -3.616
 3180POPC   C3B50095  13.559   0.121  -3.460
 3180POPC   C4B50096  13.517   0.238  -3.304
 3181POPC   NC350097   5.211  -3.164  -1.523
 3181POPC   PO450098   5.261  -3.019  -1.394
 3181POPC   GL150099   5.311  -2.874  -1.265
 3181POPC   GL250100   5.284  -2.932  -1.189
 3181POPC   C1A50101   5.361  -2.729  -1.137
 3181POPC   D2A50102   5.412  -2.585  -1.008
 3181POPC   C3A50103   5.462  -2.440  -0.880
 3181POPC   C4A50104   5.512  -2.295  -0.751
 3181POPC   C1B50105   5.547  -2.803  -1.126
 3181POPC   C2B50106   5.597  -2.658  -0.997
 3181POPC   C3B50107   5.647  -2.514  -0.869
 3181POPC   C4B50108   5.698  -2.369  -0.740
 3182POPC   NC350109   6.068  26.884  15.048
 3182POPC   PO450110   6.112  26.698  14.988
 3182POPC   GL150111   6.156  26.512  14.928
 3182POPC   GL250112   6.150  26.480  15.023
 3182POPC   C1A50113   6.201  26.326  14.869
 3182POPC   D2A50114   6.245  26.141  14.809
 3182POPC   C3A50115   6.290  25.955  14.750
 3182POPC   C4A50116   6.334  25.769  14.690
 3182POPC   C1B50117   6.006  26.289  14.842
 3182POPC   C2B50118   6.051  26.103  14.782
 3182POPC   C3B50119   6.095  25.917  14.723
 3182POPC   C4B50120   6.139  25.731  14.663
 3183POPC   NC350121  -3.190  10.838  22.340
 3183POPC   PO450122  -3.043  10.831  22.205
 3183POPC   GL150123  -2.896  10.824  22.070
 3183POPC   GL250124  -2.871  10.919  22.092
 3183POPC   C1A50125  -2.748  10.817  21.935
 3183POPC   D2A50126  -2.601  10.811  21.800
 3183POPC   C3A50127  -2.453  10.804  21.665
 3183POPC   C4A50128  -2.306  10.797  21.530
 3183POPC   C1B50129  -2.622  10.752  22.076
 3183POPC   C2B50130  -2.475  10.745  21.941
 3183POPC   C3B50131  -2.327  10.738  21.806
 3183POPC   C4B50132  -2.180  10.732  21.671
 3184POPC   NC350133  11.026   0.747  -5.511
 3184POPC   PO450134  11.013   0.851  -5.341
 3184POPC   GL150135  11.000   0.955  -5.171
 3184POPC   GL250136  11.072   1.016  -5.203
 3184POPC   C1A50137  10.987   1.059  -5.001
 3184POPC   D2A50138  10.973   1.164  -4.830
 3184POPC   C3A50139  10.960   1.268  -4.660
 3184POPC   C4A50140  10.947   1.372  -4.490
 3184POPC   C1B50141  10.849   1.178  -5.084
 3184POPC   C2B50142  10.836   1.282  -4.914
 3184POPC   C3B50143  10.822   1.386  -4.744
 3184POPC   C4B50144  10.809   1.491  -4.573
 3185POPC   NC350145  -5.909   5.394  17.618
 3185POPC   PO450146  -5.733   5.443  17.536
 3185POPC   GL150147  -5.557   5.492  17.454
 3185POPC   GL250148  -5.510   5.452  17.533
 3185POPC   C1A50149  -5.381   5.540  17.373
 3185POPC   D2A50150  -5.205   5.589  17.291
 3185POPC   C3A50151  -5.029   5.637  17.210
 3185POPC   C4A50152  -4.853   5.686  17.128
 3185POPC   C1B50153  -5.375   5.363  17.280
 3185POPC   C2B50154  -5.199   5.411  17.199
 3185POPC   C3B50155  -5.023   5.460  17.117
 3185POPC   C4B50156  -4.847   5.509  17.036
 3186POPC   NC350157  23.409  10.515  21.853
 3186POPC   PO450158  23.260  10.509  21.720
 3186POPC   GL150159  23.111  10.503  21.587
 3186POPC   GL250160  23.159  10.570  21.530
 3186POPC   C1A50161  22.962  10.497  21.454
 3186POPC   D2A50162  22.813  10.490  21.320
 3186POPC   C3A50163  22.664  10.484  21.187
 3186POPC   C4A50164  22.515  10.478  21.054
 3186POPC   C1B50165  23.055  10.349  21.356
 3186POPC   C2B50166  22.906  10.343  21.223
 3186POPC   C3B50167  22.757  10.337  21.090
 3186POPC   C4B50168  22.608  10.330  20.957
 3187POPC   NC350169   9.832  25.921   1.390
 3187POPC   PO450170   9.831  25.746   1.486
 3187POPC   GL150171   9.830  25.571   1.582
 3187POPC   GL250172   9.908  25.540   1.527
 3187POPC   C1A50173   9.829  25.396   1.679
 3187POPC   D2A50174   9.829  25.220   1.775
 3187POPC   C3A50175   9.828  25.045   1.872
 3187POPC   C4A50176   9.827  24.870   1.968
 3187POPC   C1B50177   9.955  25.470   1.815
 3187POPC   C2B50178   9.955  25.295   1.912
 3187POPC   C3B50179   9.954  25.120   2.008
 3187POPC   C4B50180   9.953  24.944   2.104
 3188POPC   NC350181   6.352  25.208   0.919
 3188POPC   PO450182   6.391  25.042   1.023
 3188POPC   GL150183   6.430  24.876   1.127
 3188POPC   GL250184   6.453  24.932   1.207
 3188POPC   C1A50185   6.469  24.710   1.232
 3188POPC   D2A50186   6.508  24.544   1.336
 3188POPC   C3A50187   6.547  24.378   1.441
 3188POPC   C4A50188   6.586  24.212   1.545
 3188POPC   C1B50189   6.278  24.703   1.292
 3188POPC   C2B50190   6.317  24.537   1.397
 3188POPC   C3B50191   6.356  24.371   1.501
 3188POPC   C4B50192   6.395  24.205   1.605
 3189POPC   NC350193  -5.827  17.006  15.592
 3189POPC   PO450194  -5.654  16.927  15.530
 3189POPC   GL150195  -5.481  16.848  15.468
 3189POPC   GL250196  -5.445  16.940  15.452
 3189POPC   C1A50197  -5.308  16.769  15.405
 3189POPC   D2A50198  -5.135  16.691  15.343
 3189POPC   C3A50199  -4.962  16.612  15.280
 3189POPC   C4A50200  -4.789  16.533  15.218
 3189POPC   C1B50201  -5.238  16.774  15.593
 3189POPC   C2B50202  -5.065  16.695  15.530
 3189POPC   C3B50203  -4.892  16.616  15.468
 3189POPC   C4B50204  -4.719  16.537  15.405
 3190POPC   NC350205  -5.167   7.139  19.580
 3190POPC   PO450206  -5.002   7.165  19.470
 3190POPC   GL150207  -4.837   7.191  19.360
 3190POPC   GL250208  -4.828   7.284  19.396
 3190POPC   C1A50209  -4.672   7.218  19.250
 3190POPC   D2A50210  -4.507   7.244  19.140
 3190POPC   C3A50211  -4.342   7.271  19.030
 3190POPC   C4A50212  -4.177   7.297  18.920
 3190POPC   C1B50213  -4.560   7.149  19.401
 3190POPC   C2B50214  -4.395   7.175  19.291
 3190POPC   C3B50215  -4.230   7.202  19.181
 3190POPC   C4B50216  -4.065   7.228  19.071
 3191POPC   NC350217   6.881  -6.902  15.639
 3191POPC   PO450218   6.914  -6.716  15.574
 3191POPC   GL150219   6.947  -6.530  15.509
 3191POPC   GL250220   7.038  -6.557  15.478
 3191POPC   C1A50221   6.980  -6.344  15.444
 3191POPC   D2A50222   7.014  -6.157  15.380
 3191POPC   C3A50223   7.047  -5.971  15.315
 3191POPC   C4A50224   7.080  -5.785  15.250
 3191POPC   C1B50225   6.904  -6.392  15.266
 3191POPC   C2B50226   6.937  -6.206  15.201
 3191POPC   C3B50227   6.971  -6.020  15.136
 3191POPC   C4B50228   7.004  -5.834  15.072
 3192POPC   NC350229  15.038  -5.757  17.075
 3192POPC   PO450230  14.979  -5.582  16.998
 3192POPC   GL150231  14.920  -5.407  16.921
 3192POPC   GL250232  15.000  -5.362  16.963
 3192POPC   C1A50233  14.862  -5.232  16.845
 3192POPC   D2A50234  14.803  -5.056  16.768
 3192POPC   C3A50235  14.745  -4.881  16.692
 3192POPC   C4A50236  14.686  -4.706  16.615
 3192POPC   C1B50237  14.969  -5.268  16.680
 3192POPC   C2B50238  14.910  -5.093  16.603
 3192POPC   C3B50239  14.851  -4.918  16.526
 3192POPC   C4B50240  14.793  -4.742  16.450
 3193POPC   NC350241   9.020  27.786   7.057
 3193POPC   PO450242   9.028  27.588   7.087
 3193POPC   GL150243   9.036  27.390   7.117
 3193POPC   GL250244   9.127  27.400   7.158
 3193POPC   C1A50245   9.044  27.193   7.147
 3193POPC   D2A50246   9.053  26.995   7.177
 3193POPC   C3A50247   9.061  26.798   7.207
 3193POPC   C4A50248   9.069  26.600   7.237
 3193POPC   C1B50249   8.961  27.217   7.327
 3193POPC   C2B50250   8.969  27.019   7.357
 3193POPC   C3B50251   8.977  26.822   7.387
 3193POPC   C4B50252   8.986  26.624   7.417
 3194POPC   NC350253  -1.340   1.202  -1.116
 3194POPC   PO450254  -1.220   1.299  -0.989
 3194POPC   GL150255  -1.100   1.396  -0.862
 3194POPC   GL250256  -1.043   1.315  -0.854
 3194POPC   C1A50257  -0.980   1.494  -0.735
 3194POPC   D2A50258  -0.860   1.591  -0.608
 3194POPC   C3A50259  -0.740   1.689  -0.481
 3194POPC   C4A50260  -0.620   1.786  -0.354
 3194POPC   C1B50261  -0.868   1.557  -0.889
 3194POPC   C2B50262  -0.748   1.654  -0.762
 3194POPC   C3B50263  -0.628   1.752  -0.635
 3194POPC   C4B50264  -0.508   1.849  -0.508
 3195POPC   NC350265   7.370  22.076  23.040
 3195POPC   PO450266   7.400  21.941  22.896
 3195POPC   GL150267   7.430  21.806  22.752
 3195POPC   GL250268   7.432  21.733  22.821
 3195POPC   C1A50269   7.460  21.670  22.608
 3195POPC   D2A50270   7.491  21.535  22.464
 3195POPC   C3A50271   7.521  21.399  22.320
 3195POPC   C4A50272   7.551  21.264  22.176
 3195POPC   C1B50273   7.263  21.647  22.588
 3195POPC   C2B50274   7.293  21.512  22.444
 3195POPC   C3B50275   7.323  21.376  22.300
 3195POPC   C4B50276   7.353  21.241  22.156
 3196POPC   NC350277   1.973  15.881  25.059
 3196POPC   PO450278   2.069  15.817  24.896
 3196POPC   GL150279   2.165  15.753  24.733
 3196POPC   GL250280   2.242  15.813  24.754
 3196POPC   C1A50281   2.260  15.689  24.569
 3196POPC   D2A50282   2.356  15.624  24.406
 3196POPC   C3A50283   2.451  15.560  24.242
 3196POPC   C4A50284   2.547  15.496  24.079
 3196POPC   C1B50285   2.344  15.542  24.676
 3196POPC   C2B50286   2.440  15.478  24.513
 3196POPC   C3B50287   2.535  15.413  24.349
 3196POPC   C4B50288   2.631  15.349  24.186
 3197POPC   NC350289  -5.135  16.920  17.286
 3197POPC   PO450290  -4.970  16.841  17.206
 3197POPC   GL150291  -4.805  16.762  17.126
 3197POPC   GL250292  -4.754  16.782  17.210
 3197POPC   C1A50293  -4.639  16.684  17.045
 3197POPC   D2A50294  -4.474  16.605  16.965
 3197POPC   C3A50295  -4.308  16.527  16.884
 3197POPC   C4A50296  -4.143  16.448  16.804
 3197POPC   C1B50297  -4.690  16.504  17.116
 3197POPC   C2B50298  -4.525  16.425  17.036
 3197POPC   C3B50299  -4.359  16.347  16.955
 3197POPC   C4B50300  -4.194  16.268  16.875
 3198POPC   NC350301   3.148  24.970   2.448
 3198POPC   PO450302   3.227  24.806   2.532
 3198POPC   GL150303   3.306  24.642   2.616
 3198POPC   GL250304   3.349  24.699   2.686
 3198POPC   C1A50305   3.385  24.479   2.699
 3198POPC   D2A50306   3.463  24.315   2.783
 3198POPC   C3A50307   3.542  24.152   2.866
 3198POPC   C4A50308   3.621  23.988   2.950
 3198POPC   C1B50309   3.222  24.459   2.814
 3198POPC   C2B50310   3.301  24.296   2.898
 3198POPC   C3B50311   3.380  24.132   2.981
 3198POPC   C4B50312   3.458  23.968   3.065
 3199POPC   NC350313  21.930  -2.276   4.407
 3199POPC   PO450314  21.796  -2.140   4.467
 3199POPC   GL150315  21.662  -2.004   4.527
 3199POPC   GL250316  21.662  -1.964   4.435
 3199POPC   C1A50317  21.528  -1.868   4.587
 3199POPC   D2A50318  21.394  -1.733   4.647
 3199POPC   C3A50319  21.260  -1.597   4.707
 3199POPC   C4A50320  21.126  -1.461   4.767
 3199POPC   C1B50321  21.380  -1.991   4.534
 3199POPC   C2B50322  21.246  -1.856   4.594
 3199POPC   C3B50323  21.112  -1.720   4.654
 3199POPC   C4B50324  20.978  -1.584   4.714
 3200POPC   NC350325  23.991  13.006  -0.834
 3200POPC   PO450326  23.834  12.977  -0.713
 3200POPC   GL150327  23.677  12.948  -0.592
 3200POPC   GL250328  23.618  12.995  -0.658
 3200POPC   C1A50329  23.521  12.919  -0.471
 3200POPC   D2A50330  23.364  12.890  -0.350
 3200POPC   C3A50331  23.208  12.861  -0.229
 3200POPC   C4A50332  23.051  12.832  -0.108
 3200POPC   C1B50333  23.483  12.745  -0.562
 3200POPC   C2B50334  23.327  12.716  -0.441
 3200POPC   C3B50335  23.170  12.687  -0.320
 3200POPC   C4B50336  23.013  12.658  -0.199
 3201POPC   NC350337  -3.207   0.955  18.544
 3201POPC   PO450338  -3.063   1.055  18.448
 3201POPC   GL150339  -2.919   1.155  18.352
 3201POPC   GL250340  -2.860   1.075  18.357
 3201POPC   C1A50341  -2.776   1.256  18.255
 3201POPC   D2A50342  -2.632   1.356  18.159
 3201POPC   C3A50343  -2.489   1.457  18.062
 3201POPC   C4A50344  -2.345   1.557  17.966
 3201POPC   C1B50345  -2.848   1.191  18.080
 3201POPC   C2B50346  -2.704   1.291  17.984
 3201POPC   C3B50347  -2.561   1.392  17.887
 3201POPC   C4B50348  -2.417   1.492  17.791
 3202POPC   NC350349   8.370  27.256   4.800
 3202POPC   PO450350   8.384  27.064   4.855
 3202POPC   GL150351   8.398  26.872   4.910
 3202POPC   GL250352   8.429  26.848   4.818
 3202POPC   C1A50353   8.413  26.681   4.965
 3202POPC   D2A50354   8.427  26.489   5.021
 3202POPC   C3A50355   8.442  26.298   5.076
 3202POPC   C4A50356   8.456  26.106   5.131
 3202POPC   C1B50357   8.602  26.711   5.021
 3202POPC   C2B50358   8.617  26.520   5.077
 3202POPC   C3B50359   8.631  26.328   5.132
 3202POPC   C4B50360   8.646  26.136   5.187
 3203POPC   NC350361  23.284  19.526  17.313
 3203POPC   PO450362  23.139  19.413  17.233
 3203POPC   GL150363  22.994  19.300  17.153
 3203POPC   GL250364  23.014  19.338  17.063
 3203POPC   C1A50365  22.849  19.188  17.074
 3203POPC   D2A50366  22.705  19.075  16.994
 3203POPC   C3A50367  22.560  18.963  16.915
 3203POPC   C4A50368  22.415  18.850  16.835
 3203POPC   C1B50369  22.981  19.041  17.041
 3203POPC   C2B50370  22.837  18.928  16.962
 3203POPC   C3B50371  22.692  18.816  16.882
 3203POPC   C4B50372  22.547  18.703  16.803
 3204POPC   NC350373  17.443  -0.203  22.769
 3204POPC   PO450374  17.358  -0.090  22.628
 3204POPC   GL150375  17.273   0.023  22.487
 3204POPC   GL250376  17.314  -0.033  22.416
 3204POPC   C1A50377  17.187   0.137  22.346
 3204POPC   D2A50378  17.102   0.250  22.206
 3204POPC   C3A50379  17.016   0.364  22.065
 3204POPC   C4A50380  16.931   0.477  21.924
 3204POPC   C1B50381  17.027   0.017  22.347
 3204POPC   C2B50382  16.942   0.131  22.207
 3204POPC   C3B50383  16.856   0.244  22.066
 3204POPC   C4B50384  16.771   0.357  21.925
 3205POPC   NC350385   8.567  -6.167  17.926
 3205POPC   PO450386   8.583  -5.988  17.838
 3205POPC   GL150387   8.599  -5.809  17.750
 3205POPC   GL250388   8.690  -5.833  17.717
 3205POPC   C1A50389   8.615  -5.630  17.661
 3205POPC   D2A50390   8.630  -5.452  17.573
 3205POPC   C3A50391   8.646  -5.273  17.484
 3205POPC   C4A50392   8.662  -5.094  17.396
 3205POPC   C1B50393   8.535  -5.706  17.494
 3205POPC   C2B50394   8.551  -5.527  17.406
 3205POPC   C3B50395   8.566  -5.348  17.317
 3205POPC   C4B50396   8.582  -5.170  17.229
 3206POPC   NC350397  -1.926  19.197  -0.232
 3206POPC   PO450398  -1.794  19.095  -0.121
 3206POPC   GL150399  -1.662  18.993  -0.010
 3206POPC   GL250400  -1.736  18.963   0.050
 3206POPC   C1A50401  -1.530  18.891   0.100
 3206POPC   D2A50402  -1.399  18.789   0.211
 3206POPC   C3A50403  -1.267  18.687   0.321
 3206POPC   C4A50404  -1.135  18.585   0.432
 3206POPC   C1B50405  -1.559  18.730  -0.015
 3206POPC   C2B50406  -1.427  18.628   0.096
 3206POPC   C3B50407  -1.295  18.526   0.206
 3206POPC   C4B50408  -1.163  18.424   0.317
 3207POPC   NC350409  17.492  23.214  19.527
 3207POPC   PO450410  17.404  23.067  19.424
 3207POPC   GL150411  17.316  22.920  19.321
 3207POPC   GL250412  17.313  22.978  19.240
 3207POPC   C1A50413  17.228  22.772  19.219
 3207POPC   D2A50414  17.139  22.625  19.116
 3207POPC   C3A50415  17.051  22.477  19.014
 3207POPC   C4A50416  16.963  22.330  18.911
 3207POPC   C1B50417  17.407  22.703  19.164
 3207POPC   C2B50418  17.319  22.556  19.061
 3207POPC   C3B50419  17.231  22.408  18.959
 3207POPC   C4B50420  17.142  22.261  18.856
 3208POPC   NC350421   1.233   3.906  24.532
 3208POPC   PO450422   1.336   3.974  24.375
 3208POPC   GL150423   1.439   4.042  24.218
 3208POPC   GL250424   1.487   3.955  24.212
 3208POPC   C1A50425   1.542   4.110  24.060
 3208POPC   D2A50426   1.645   4.178  23.903
 3208POPC   C3A50427   1.748   4.246  23.745
 3208POPC   C4A50428   1.851   4.314  23.588
 3208POPC   C1B50429   1.400   4.040  23.937
 3208POPC   C2B50430   1.503   4.108  23.780
 3208POPC   C3B50431   1.606   4.176  23.623
 3208POPC   C4B50432   1.709   4.244  23.465
 3209POPC   NC350433  17.864  -5.940   7.214
 3209POPC   PO450434  17.777  -5.763   7.245
 3209POPC   GL150435  17.690  -5.586   7.276
 3209POPC   GL250436  17.778  -5.540   7.260
 3209POPC   C1A50437  17.603  -5.408   7.308
 3209POPC   D2A50438  17.517  -5.231   7.339
 3209POPC   C3A50439  17.430  -5.053   7.371
 3209POPC   C4A50440  17.343  -4.876   7.402
 3209POPC   C1B50441  17.560  -5.395   7.113
 3209POPC   C2B50442  17.473  -5.218   7.144
 3209POPC   C3B50443  17.386  -5.040   7.176
 3209POPC   C4B50444  17.300  -4.863   7.207
 3210POPC   NC350445  25.623  13.556  17.988
 3210POPC   PO450446  25.446  13.517  17.903
 3210POPC   GL150447  25.269  13.478  17.818
 3210POPC   GL250448  25.275  13.563  17.767
 3210POPC   C1A50449  25.093  13.439  17.733
 3210POPC   D2A50450  24.916  13.399  17.647
 3210POPC   C3A50451  24.740  13.360  17.562
 3210POPC   C4A50452  24.563  13.321  17.477
 3210POPC   C1B50453  25.186  13.343  17.583
 3210POPC   C2B50454  25.009  13.304  17.498
 3210POPC   C3B50455  24.833  13.265  17.413
 3210POPC   C4B50456  24.656  13.226  17.328
 3211POPC   NC350457  15.181   5.548  -6.715
 3211POPC   PO450458  15.114   5.596  -6.533
 3211POPC   GL150459  15.047   5.644  -6.351
 3211POPC   GL250460  14.971   5.695  -6.392
 3211POPC   C1A50461  14.979   5.692  -6.169
 3211POPC   D2A50462  14.912   5.740  -5.986
 3211POPC   C3A50463  14.844   5.788  -5.804
 3211POPC   C4A50464  14.777   5.836  -5.622
 3211POPC   C1B50465  14.867   5.526  -6.167
 3211POPC   C2B50466  14.800   5.574  -5.984
 3211POPC   C3B50467  14.732   5.622  -5.802
 3211POPC   C4B50468  14.665   5.670  -5.620
 3212POPC   NC350469  -5.327   8.106   0.364
 3212POPC   PO450470  -5.159   8.127   0.470
 3212POPC   GL150471  -4.991   8.148   0.576
 3212POPC   GL250472  -5.011   8.245   0.589
 3212POPC   C1A50473  -4.823   8.168   0.683
 3212POPC   D2A50474  -4.654   8.189   0.789
 3212POPC   C3A50475  -4.486   8.209   0.896
 3212POPC   C4A50476  -4.318   8.230   1.002
 3212POPC   C1B50477  -4.923   8.126   0.850
 3212POPC   C2B50478  -4.755   8.147   0.957
 3212POPC   C3B50479  -4.587   8.168   1.063
 3212POPC   C4B50480  -4.419   8.188   1.170
 3213POPC   NC350481  18.057  16.822  24.472
 3213POPC   PO450482  17.959  16.748  24.314
 3213POPC   GL150483  17.861  16.674  24.156
 3213POPC   GL250484  17.854  16.766  24.117
 3213POPC   C1A50485  17.763  16.601  23.998
 3213POPC   D2A50486  17.666  16.527  23.839
 3213POPC   C3A50487  17.568  16.454  23.681
 3213POPC   C4A50488  17.470  16.380  23.523
 3213POPC   C1B50489  17.937  16.574  23.902
 3213POPC   C2B50490  17.839  16.501  23.744
 3213POPC   C3B50491  17.742  16.427  23.586
 3213POPC   C4B50492  17.644  16.353  23.428
 3214POPC   NC350493   8.810  -7.923  11.692
 3214POPC   PO450494   8.821  -7.724  11.674
 3214POPC   GL150495   8.832  -7.525  11.656
 3214POPC   GL250496   8.849  -7.517  11.755
 3214POPC   C1A50497   8.843  -7.326  11.639
 3214POPC   D2A50498   8.854  -7.127  11.621
 3214POPC   C3A50499   8.865  -6.928  11.604
 3214POPC   C4A50500   8.876  -6.729  11.586
 3214POPC   C1B50501   9.040  -7.340  11.605
 3214POPC   C2B50502   9.051  -7.141  11.587
 3214POPC   C3B50503   9.062  -6.942  11.570
 3214POPC   C4B50504   9.073  -6.743  11.552
 3215POPC   NC350505  20.808  24.327  10.541
 3215POPC   PO450506  20.691  24.165  10.537
 3215POPC   GL150507  20.574  24.003  10.533
 3215POPC   GL250508  20.618  23.973  10.448
 3215POPC   C1A50509  20.457  23.841  10.529
 3215POPC   D2A50510  20.341  23.678  10.524
 3215POPC   C3A50511  20.224  23.516  10.520
 3215POPC   C4A50512  20.107  23.354  10.516
 3215POPC   C1B50513  20.594  23.740  10.634
 3215POPC   C2B50514  20.477  23.577  10.630
 3215POPC   C3B50515  20.360  23.415  10.626
 3215POPC   C4B50516  20.243  23.253  10.622
 3216POPC   NC350517  -1.744  23.651   8.315
 3216POPC   PO450518  -1.621  23.495   8.337
 3216POPC   GL150519  -1.498  23.339   8.359
 3216POPC   GL250520  -1.460  23.380   8.442
 3216POPC   C1A50521  -1.375  23.183   8.381
 3216POPC   D2A50522  -1.252  23.026   8.402
 3216POPC   C3A50523  -1.129  22.870   8.424
 3216POPC   C4A50524  -1.006  22.714   8.446
 3216POPC   C1B50525  -1.513  23.089   8.491
 3216POPC   C2B50526  -1.390  22.933   8.513
 3216POPC   C3B50527  -1.267  22.777   8.534
 3216POPC   C4B50528  -1.144  22.621   8.556
 3217POPC   NC350529  20.612  22.024   1.986
 3217POPC   PO450530  20.493  21.892   2.078
 3217POPC   GL150531  20.374  21.760   2.170
 3217POPC   GL250532  20.395  21.692   2.099
 3217POPC   C1A50533  20.255  21.628   2.261
 3217POPC   D2A50534  20.136  21.495   2.353
 3217POPC   C3A50535  20.017  21.363   2.444
 3217POPC   C4A50536  19.898  21.231   2.536
 3217POPC   C1B50537  20.410  21.563   2.369
 3217POPC   C2B50538  20.291  21.431   2.461
 3217POPC   C3B50539  20.172  21.298   2.553
 3217POPC   C4B50540  20.053  21.166   2.644
 3218POPC   NC350541   4.929  -0.202  -4.146
 3218POPC   PO450542   4.985  -0.087  -3.992
 3218POPC   GL150543   5.041   0.028  -3.838
 3218POPC   GL250544   4.983  -0.026  -3.777
 3218POPC   C1A50545   5.097   0.142  -3.684
 3218POPC   D2A50546   5.152   0.257  -3.529
 3218POPC   C3A50547   5.208   0.371  -3.375
 3218POPC   C4A50548   5.264   0.486  -3.221
 3218POPC   C1B50549   5.250   0.019  -3.647
 3218POPC   C2B50550   5.305   0.133  -3.493
 3218POPC   C3B50551   5.361   0.248  -3.339
 3218POPC   C4B50552   5.417   0.363  -3.185
 3219POPC   NC350553  -7.537  10.585  14.735
 3219POPC   PO450554  -7.344  10.579  14.683
 3219POPC   GL150555  -7.151  10.573  14.631
 3219POPC   GL250556  -7.147  10.477  14.656
 3219POPC   C1A50557  -6.958  10.568  14.578
 3219POPC   D2A50558  -6.765  10.562  14.526
 3219POPC   C3A50559  -6.572  10.557  14.473
 3219POPC   C4A50560  -6.379  10.551  14.421
 3219POPC   C1B50561  -7.010  10.517  14.392
 3219POPC   C2B50562  -6.817  10.511  14.339
 3219POPC   C3B50563  -6.624  10.506  14.287
 3219POPC   C4B50564  -6.431  10.500  14.235
 3220POPC   NC350565   6.487  -6.180   2.669
 3220POPC   PO450566   6.524  -6.001   2.750
 3220POPC   GL150567   6.561  -5.822   2.831
 3220POPC   GL250568   6.650  -5.855   2.863
 3220POPC   C1A50569   6.598  -5.643   2.912
 3220POPC   D2A50570   6.636  -5.464   2.994
 3220POPC   C3A50571   6.673  -5.285   3.075
 3220POPC   C4A50572   6.710  -5.106   3.156
 3220POPC   C1B50573   6.682  -5.583   2.741
 3220POPC   C2B50574   6.719  -5.404   2.822
 3220POPC   C3B50575   6.757  -5.225   2.904
 3220POPC   C4B50576   6.794  -5.046   2.985
 3221POPC   NC350577  -1.488  10.149  23.984
 3221POPC   PO450578  -1.363  10.145  23.828
 3221POPC   GL150579  -1.238  10.141  23.672
 3221POPC   GL250580  -1.166  10.104  23.731
 3221POPC   C1A50581  -1.113  10.137  23.516
 3221POPC   D2A50582  -0.987  10.134  23.361
 3221POPC   C3A50583  -0.862  10.130  23.205
 3221POPC   C4A50584  -0.737  10.126  23.049
 3221POPC   C1B50585  -1.173   9.952  23.472
 3221POPC   C2B50586  -1.048   9.948  23.317
 3221POPC   C3B50587  -0.923   9.944  23.161
 3221POPC   C4B50588  -0.798   9.941  23.005
 3222POPC   NC350589  26.087   4.098   4.545
 3222POPC   PO450590  25.906   4.162   4.602
 3222POPC   GL150591  25.725   4.226   4.659
 3222POPC   GL250592  25.730   4.299   4.590
 3222POPC   C1A50593  25.545   4.290   4.716
 3222POPC   D2A50594  25.364   4.355   4.772
 3222POPC   C3A50595  25.184   4.419   4.829
 3222POPC   C4A50596  25.003   4.483   4.886
 3222POPC   C1B50597  25.459   4.169   4.582
 3222POPC   C2B50598  25.279   4.233   4.638
 3222POPC   C3B50599  25.098   4.297   4.695
 3222POPC   C4B50600  24.918   4.361   4.752
 3223POPC   NC350601  22.812  -2.141   6.575
 3223POPC   PO450602  22.667  -2.008   6.612
 3223POPC   GL150603  22.522  -1.875   6.649
 3223POPC   GL250604  22.528  -1.843   6.554
 3223POPC   C1A50605  22.378  -1.742   6.686
 3223POPC   D2A50606  22.233  -1.608   6.722
 3223POPC   C3A50607  22.089  -1.475   6.759
 3223POPC   C4A50608  21.944  -1.342   6.796
 3223POPC   C1B50609  22.240  -1.876   6.632
 3223POPC   C2B50610  22.096  -1.743   6.669
 3223POPC   C3B50611  21.951  -1.610   6.706
 3223POPC   C4B50612  21.806  -1.477   6.742
 3224POPC   NC350613  23.124  -2.290  10.108
 3224POPC   PO450614  22.978  -2.153  10.108
 3224POPC   GL150615  22.832  -2.016  10.108
 3224POPC   GL250616  22.790  -2.061  10.029
 3224POPC   C1A50617  22.686  -1.880  10.109
 3224POPC   D2A50618  22.539  -1.743  10.109
 3224POPC   C3A50619  22.393  -1.607  10.110
 3224POPC   C4A50620  22.247  -1.470  10.110
 3224POPC   C1B50621  22.577  -1.996  10.230
 3224POPC   C2B50622  22.431  -1.860  10.230
 3224POPC   C3B50623  22.285  -1.723  10.231
 3224POPC   C4B50624  22.139  -1.586  10.231
 3225POPC   NC350625  22.241  -2.898  12.523
 3225POPC   PO450626  22.103  -2.756  12.494
 3225POPC   GL150627  21.965  -2.614  12.465
 3225POPC   GL250628  21.995  -2.605  12.370
 3225POPC   C1A50629  21.827  -2.473  12.436
 3225POPC   D2A50630  21.688  -2.331  12.407
 3225POPC   C3A50631  21.550  -2.190  12.378
 3225POPC   C4A50632  21.412  -2.048  12.349
 3225POPC   C1B50633  21.695  -2.613  12.380
 3225POPC   C2B50634  21.557  -2.471  12.351
 3225POPC   C3B50635  21.419  -2.329  12.322
 3225POPC   C4B50636  21.280  -2.188  12.293
 3226POPC   NC350637  26.541  14.266  15.222
 3226POPC   PO450638  26.355  14.221  15.163
 3226POPC   GL150639  26.169  14.176  15.104
 3226POPC   GL250640  26.167  14.259  15.048
 3226POPC   C1A50641  25.983  14.132  15.045
 3226POPC   D2A50642  25.798  14.087  14.985
 3226POPC   C3A50643  25.612  14.043  14.926
 3226POPC   C4A50644  25.426  13.998  14.867
 3226POPC   C1B50645  26.057  14.030  14.889
 3226POPC   C2B50646  25.872  13.985  14.830
 3226POPC   C3B50647  25.686  13.940  14.771
 3226POPC   C4B50648  25.500  13.896  14.712
 3227POPC   NC350649   1.432  17.447  24.010
 3227POPC   PO450650   1.532  17.367  23.857
 3227POPC   GL150651   1.632  17.287  23.704
 3227POPC   GL250652   1.711  17.272  23.763
 3227POPC   C1A50653   1.732  17.207  23.550
 3227POPC   D2A50654   1.833  17.128  23.397
 3227POPC   C3A50655   1.933  17.048  23.243
 3227POPC   C4A50656   2.033  16.968  23.090
 3227POPC   C1B50657   1.661  17.027  23.598
 3227POPC   C2B50658   1.761  16.947  23.444
 3227POPC   C3B50659   1.862  16.867  23.291
 3227POPC   C4B50660   1.962  16.787  23.137
 3228POPC   NC350661  19.083  20.813  -1.172
 3228POPC   PO450662  18.978  20.691  -1.053
 3228POPC   GL150663  18.873  20.569  -0.934
 3228POPC   GL250664  18.957  20.518  -0.913
 3228POPC   C1A50665  18.769  20.446  -0.816
 3228POPC   D2A50666  18.664  20.324  -0.697
 3228POPC   C3A50667  18.560  20.201  -0.579
 3228POPC   C4A50668  18.455  20.079  -0.460
 3228POPC   C1B50669  18.802  20.568  -0.661
 3228POPC   C2B50670  18.697  20.446  -0.542
 3228POPC   C3B50671  18.593  20.323  -0.424
 3228POPC   C4B50672  18.488  20.201  -0.305
 3229POPC   NC350673  24.678   3.226  17.807
 3229POPC   PO450674  24.514   3.296  17.717
 3229POPC   GL150675  24.350   3.366  17.627
 3229POPC   GL250676  24.407   3.411  17.558
 3229POPC   C1A50677  24.185   3.436  17.537
 3229POPC   D2A50678  24.021   3.505  17.446
 3229POPC   C3A50679  23.856   3.575  17.356
 3229POPC   C4A50680  23.692   3.645  17.266
 3229POPC   C1B50681  24.178   3.271  17.423
 3229POPC   C2B50682  24.013   3.341  17.333
 3229POPC   C3B50683  23.849   3.411  17.243
 3229POPC   C4B50684  23.684   3.481  17.152
 3230POPC   NC350685   2.753  26.592  10.323
 3230POPC   PO450686   2.835  26.409  10.319
 3230POPC   GL150687   2.917  26.226  10.315
 3230POPC   GL250688   2.980  26.256  10.243
 3230POPC   C1A50689   2.998  26.044  10.310
 3230POPC   D2A50690   3.080  25.861  10.306
 3230POPC   C3A50691   3.161  25.679  10.301
 3230POPC   C4A50692   3.243  25.496  10.297
 3230POPC   C1B50693   3.130  26.099  10.450
 3230POPC   C2B50694   3.211  25.917  10.446
 3230POPC   C3B50695   3.293  25.734  10.442
 3230POPC   C4B50696   3.374  25.551  10.437
 3231POPC   NC350697  11.616   8.141  27.828
 3231POPC   PO450698  11.593   8.162  27.630
 3231POPC   GL150699  11.570   8.183  27.432
 3231POPC   GL250700  11.605   8.276  27.438
 3231POPC   C1A50701  11.548   8.203  27.235
 3231POPC   D2A50702  11.525   8.224  27.037
 3231POPC   C3A50703  11.503   8.244  26.840
 3231POPC   C4A50704  11.480   8.265  26.642
 3231POPC   C1B50705  11.734   8.137  27.207
 3231POPC   C2B50706  11.712   8.157  27.009
 3231POPC   C3B50707  11.689   8.178  26.811
 3231POPC   C4B50708  11.666   8.198  26.614
 3232POPC   NC350709  21.375  16.114  -2.572
 3232POPC   PO450710  21.249  16.047  -2.432
 3232POPC   GL150711  21.123  15.980  -2.292
 3232POPC   GL250712  21.102  15.900  -2.349
 3232POPC   C1A50713  20.998  15.913  -2.151
 3232POPC   D2A50714  20.872  15.845  -2.011
 3232POPC   C3A50715  20.747  15.778  -1.870
 3232POPC   C4A50716  20.621  15.711  -1.730
 3232POPC   C1B50717  21.148  15.811  -2.066
 3232POPC   C2B50718  21.022  15.744  -1.925
 3232POPC   C3B50719  20.896  15.677  -1.785
 3232POPC   C4B50720  20.771  15.610  -1.644
 3233POPC   NC350721  27.688  11.462  11.880
 3233POPC   PO450722  27.490  11.448  11.860
 3233POPC   GL150723  27.292  11.434  11.840
 3233POPC   GL250724  27.295  11.496  11.762
 3233POPC   C1A50725  27.093  11.419  11.820
 3233POPC   D2A50726  26.895  11.405  11.800
 3233POPC   C3A50727  26.696  11.390  11.780
 3233POPC   C4A50728  26.498  11.376  11.760
 3233POPC   C1B50729  27.117  11.264  11.696
 3233POPC   C2B50730  26.919  11.250  11.676
 3233POPC   C3B50731  26.720  11.235  11.656
 3233POPC   C4B50732  26.522  11.221  11.636
 3234POPC   NC350733  -1.298  -2.738  16.343
 3234POPC   PO450734  -1.174  -2.598  16.271
 3234POPC   GL150735  -1.050  -2.458  16.199
 3234POPC   GL250736  -0.983  -2.529  16.178
 3234POPC   C1A50737  -0.926  -2.319  16.127
 3234POPC   D2A50738  -0.803  -2.179  16.055
 3234POPC   C3A50739  -0.679  -2.040  15.983
 3234POPC   C4A50740  -0.555  -1.900  15.911
 3234POPC   C1B50741  -1.006  -2.342  15.945
 3234POPC   C2B50742  -0.882  -2.202  15.873
 3234POPC   C3B50743  -0.759  -2.063  15.801
 3234POPC   C4B50744  -0.635  -1.923  15.729
 3235POPC   NC350745  -0.207  24.888   9.428
 3235POPC   PO450746  -0.096  24.722   9.441
 3235POPC   GL150747   0.015  24.556   9.454
 3235POPC   GL250748   0.093  24.605   9.413
 3235POPC   C1A50749   0.127  24.391   9.467
 3235POPC   D2A50750   0.238  24.225   9.479
 3235POPC   C3A50751   0.350  24.060   9.492
 3235POPC   C4A50752   0.461  23.894   9.505
 3235POPC   C1B50753   0.188  24.446   9.649
 3235POPC   C2B50754   0.299  24.280   9.662
 3235POPC   C3B50755   0.411  24.115   9.675
 3235POPC   C4B50756   0.522  23.949   9.687
 3236POPC   NC350757  -2.752  22.348   6.180
 3236POPC   PO450758  -2.620  22.204   6.223
 3236POPC   GL150759  -2.488  22.060   6.266
 3236POPC   GL250760  -2.474  22.100   6.356
 3236POPC   C1A50761  -2.355  21.917   6.308
 3236POPC   D2A50762  -2.223  21.773   6.351
 3236POPC   C3A50763  -2.090  21.630   6.393
 3236POPC   C4A50764  -1.958  21.486   6.436
 3236POPC   C1B50765  -2.502  21.802   6.381
 3236POPC   C2B50766  -2.370  21.659   6.423
 3236POPC   C3B50767  -2.238  21.515   6.466
 3236POPC   C4B50768  -2.105  21.372   6.508
 3237POPC   NC350769   4.270  -4.808  18.692
 3237POPC   PO450770   4.333  -4.646  18.593
 3237POPC   GL150771   4.396  -4.484  18.494
 3237POPC   GL250772   4.468  -4.470  18.563
 3237POPC   C1A50773   4.459  -4.322  18.396
 3237POPC   D2A50774   4.522  -4.159  18.297
 3237POPC   C3A50775   4.585  -3.997  18.199
 3237POPC   C4A50776   4.648  -3.835  18.100
 3237POPC   C1B50777   4.584  -4.435  18.288
 3237POPC   C2B50778   4.647  -4.273  18.190
 3237POPC   C3B50779   4.710  -4.111  18.091
 3237POPC   C4B50780   4.773  -3.949  17.993
 3238POPC   NC350781   8.583  11.132  -8.038
 3238POPC   PO450782   8.598  11.120  -7.839
 3238POPC   GL150783   8.613  11.108  -7.640
 3238POPC   GL250784   8.544  11.179  -7.630
 3238POPC   C1A50785   8.629  11.096  -7.441
 3238POPC   D2A50786   8.644  11.083  -7.242
 3238POPC   C3A50787   8.660  11.071  -7.043
 3238POPC   C4A50788   8.675  11.059  -6.844
 3238POPC   C1B50789   8.485  10.956  -7.438
 3238POPC   C2B50790   8.501  10.944  -7.239
 3238POPC   C3B50791   8.516  10.932  -7.040
 3238POPC   C4B50792   8.532  10.920  -6.841
 3239POPC   NC350793  24.708  12.347  19.992
 3239POPC   PO450794  24.545  12.322  19.879
 3239POPC   GL150795  24.382  12.297  19.766
 3239POPC   GL250796  24.399  12.198  19.763
 3239POPC   C1A50797  24.219  12.272  19.653
 3239POPC   D2A50798  24.055  12.247  19.541
 3239POPC   C3A50799  23.892  12.222  19.428
 3239POPC   C4A50800  23.729  12.197  19.315
 3239POPC   C1B50801  24.108  12.248  19.818
 3239POPC   C2B50802  23.945  12.223  19.706
 3239POPC   C3B50803  23.782  12.198  19.593
 3239POPC   C4B50804  23.619  12.173  19.480
 3240POPC   NC350805  25.656  10.374  18.688
 3240POPC   PO450806  25.481  10.372  18.592
 3240POPC   GL150807  25.306  10.370  18.496
 3240POPC   GL250808  25.347  10.316  18.422
 3240POPC   C1A50809  25.131  10.368  18.399
 3240POPC   D2A50810  24.955  10.365  18.303
 3240POPC   C3A50811  24.780  10.363  18.206
 3240POPC   C4A50812  24.605  10.361  18.110
 3240POPC   C1B50813  25.080  10.200  18.495
 3240POPC   C2B50814  24.905  10.197  18.399
 3240POPC   C3B50815  24.730  10.195  18.302
 3240POPC   C4B50816  24.554  10.193  18.206
 3241POPC   NC350817  -3.498  20.835   4.389
 3241POPC   PO450818  -3.351  20.715   4.452
 3241POPC   GL150819  -3.204  20.595   4.515
 3241POPC   GL250820  -3.234  20.609   4.610
 3241POPC   C1A50821  -3.058  20.474   4.578
 3241POPC   D2A50822  -2.911  20.354   4.642
 3241POPC   C3A50823  -2.765  20.233   4.705
 3241POPC   C4A50824  -2.618  20.113   4.768
 3241POPC   C1B50825  -3.181  20.317   4.564
 3241POPC   C2B50826  -3.034  20.197   4.628
 3241POPC   C3B50827  -2.888  20.076   4.691
 3241POPC   C4B50828  -2.741  19.956   4.754
 3242POPC   NC350829  23.543   8.797  21.637
 3242POPC   PO450830  23.390   8.813  21.509
 3242POPC   GL150831  23.237   8.829  21.381
 3242POPC   GL250832  23.296   8.879  21.317
 3242POPC   C1A50833  23.085   8.844  21.253
 3242POPC   D2A50834  22.932   8.860  21.124
 3242POPC   C3A50835  22.780   8.875  20.996
 3242POPC   C4A50836  22.627   8.891  20.868
 3242POPC   C1B50837  23.140   8.673  21.166
 3242POPC   C2B50838  22.987   8.688  21.038
 3242POPC   C3B50839  22.835   8.704  20.910
 3242POPC   C4B50840  22.682   8.719  20.781
 3243POPC   NC350841  16.224  22.572  -1.394
 3243POPC   PO450842  16.149  22.432  -1.273
 3243POPC   GL150843  16.074  22.292  -1.152
 3243POPC   GL250844  16.133  22.223  -1.194
 3243POPC   C1A50845  15.999  22.151  -1.031
 3243POPC   D2A50846  15.923  22.011  -0.910
 3243POPC   C3A50847  15.848  21.870  -0.789
 3243POPC   C4A50848  15.773  21.730  -0.668
 3243POPC   C1B50849  16.141  22.191  -0.896
 3243POPC   C2B50850  16.065  22.051  -0.775
 3243POPC   C3B50851  15.990  21.911  -0.654
 3243POPC   C4B50852  15.915  21.770  -0.533
 3244POPC   NC350853   3.035  11.634  26.515
 3244POPC   PO450854   3.101  11.616  26.327
 3244POPC   GL150855   3.167  11.598  26.139
 3244POPC   GL250856   3.216  11.685  26.148
 3244POPC   C1A50857   3.233  11.579  25.951
 3244POPC   D2A50858   3.299  11.561  25.763
 3244POPC   C3A50859   3.365  11.542  25.575
 3244POPC   C4A50860   3.431  11.524  25.387
 3244POPC   C1B50861   3.395  11.482  26.017
 3244POPC   C2B50862   3.461  11.464  25.829
 3244POPC   C3B50863   3.527  11.445  25.641
 3244POPC   C4B50864   3.593  11.427  25.453
 3245POPC   NC350865  -3.273   5.778  21.594
 3245POPC   PO450866  -3.131   5.827  21.462
 3245POPC   GL150867  -2.989   5.876  21.330
 3245POPC   GL250868  -2.950   5.941  21.396
 3245POPC   C1A50869  -2.847   5.925  21.198
 3245POPC   D2A50870  -2.704   5.973  21.067
 3245POPC   C3A50871  -2.562   6.022  20.935
 3245POPC   C4A50872  -2.420   6.071  20.803
 3245POPC   C1B50873  -2.729   5.781  21.272
 3245POPC   C2B50874  -2.587   5.829  21.140
 3245POPC   C3B50875  -2.445   5.878  21.008
 3245POPC   C4B50876  -2.302   5.927  20.877
 3246POPC   NC350877  13.513  25.492  18.408
 3246POPC   PO450878  13.472  25.321  18.312
 3246POPC   GL150879  13.431  25.150  18.216
 3246POPC   GL250880  13.526  25.120  18.230
 3246POPC   C1A50881  13.391  24.979  18.120
 3246POPC   D2A50882  13.350  24.809  18.025
 3246POPC   C3A50883  13.310  24.638  17.929
 3246POPC   C4A50884  13.269  24.467  17.833
 3246POPC   C1B50885  13.338  24.895  18.294
 3246POPC   C2B50886  13.297  24.724  18.198
 3246POPC   C3B50887  13.257  24.553  18.102
 3246POPC   C4B50888  13.216  24.382  18.006
 3247POPC   NC350889  15.033  20.638  23.586
 3247POPC   PO450890  14.976  20.522  23.433
 3247POPC   GL150891  14.919  20.406  23.280
 3247POPC   GL250892  14.981  20.455  23.220
 3247POPC   C1A50893  14.863  20.289  23.128
 3247POPC   D2A50894  14.806  20.173  22.975
 3247POPC   C3A50895  14.750  20.056  22.823
 3247POPC   C4A50896  14.693  19.940  22.670
 3247POPC   C1B50897  15.009  20.160  23.172
 3247POPC   C2B50898  14.953  20.044  23.019
 3247POPC   C3B50899  14.896  19.928  22.866
 3247POPC   C4B50900  14.840  19.811  22.714
 3248POPC   NC350901  -4.654  11.787  20.454
 3248POPC   PO450902  -4.494  11.770  20.336
 3248POPC   GL150903  -4.334  11.753  20.218
 3248POPC   GL250904  -4.316  11.851  20.227
 3248POPC   C1A50905  -4.173  11.736  20.100
 3248POPC   D2A50906  -4.013  11.718  19.981
 3248POPC   C3A50907  -3.852  11.701  19.863
 3248POPC   C4A50908  -3.692  11.684  19.745
 3248POPC   C1B50909  -4.059  11.700  20.260
 3248POPC   C2B50910  -3.899  11.683  20.142
 3248POPC   C3B50911  -3.738  11.666  20.024
 3248POPC   C4B50912  -3.578  11.649  19.905
 3249POPC   NC350913  11.874  -7.470  14.078
 3249POPC   PO450914  11.852  -7.276  14.033
 3249POPC   GL150915  11.830  -7.082  13.988
 3249POPC   GL250916  11.921  -7.081  13.947
 3249POPC   C1A50917  11.808  -6.888  13.944
 3249POPC   D2A50918  11.785  -6.695  13.899
 3249POPC   C3A50919  11.763  -6.501  13.855
 3249POPC   C4A50920  11.741  -6.307  13.810
 3249POPC   C1B50921  11.727  -6.938  13.767
 3249POPC   C2B50922  11.705  -6.744  13.723
 3249POPC   C3B50923  11.683  -6.551  13.678
 3249POPC   C4B50924  11.661  -6.357  13.634
 3250POPC   NC350925  15.387  21.214  -3.158
 3250POPC   PO450926  15.327  21.092  -3.011
 3250POPC   GL150927  15.267  20.970  -2.864
 3250POPC   GL250928  15.338  20.905  -2.889
 3250POPC   C1A50929  15.206  20.848  -2.717
 3250POPC   D2A50930  15.146  20.727  -2.571
 3250POPC   C3A50931  15.085  20.605  -2.424
 3250POPC   C4A50932  15.025  20.483  -2.277
 3250POPC   C1B50933  15.333  20.938  -2.591
 3250POPC   C2B50934  15.273  20.816  -2.444
 3250POPC   C3B50935  15.212  20.694  -2.298
 3250POPC   C4B50936  15.152  20.572  -2.151
 3251POPC   NC350937   2.475  -2.911  -0.260
 3251POPC   PO450938   2.559  -2.774  -0.142
 3251POPC   GL150939   2.643  -2.637  -0.024
 3251POPC   GL250940   2.593  -2.673   0.055
 3251POPC   C1A50941   2.728  -2.499   0.094
 3251POPC   D2A50942   2.812  -2.362   0.213
 3251POPC   C3A50943   2.897  -2.224   0.331
 3251POPC   C4A50944   2.981  -2.087   0.449
 3251POPC   C1B50945   2.879  -2.625   0.132
 3251POPC   C2B50946   2.963  -2.487   0.251
 3251POPC   C3B50947   3.048  -2.350   0.369
 3251POPC   C4B50948   3.132  -2.212   0.487
 3252POPC   NC350949  25.038   3.461  17.298
 3252POPC   PO450950  24.869   3.528  17.215
 3252POPC   GL150951  24.700   3.595  17.132
 3252POPC   GL250952  24.753   3.642  17.062
 3252POPC   C1A50953  24.531   3.662  17.049
 3252POPC   D2A50954  24.361   3.730  16.967
 3252POPC   C3A50955  24.192   3.797  16.884
 3252POPC   C4A50956  24.023   3.864  16.801
 3252POPC   C1B50957  24.522   3.499  16.934
 3252POPC   C2B50958  24.353   3.566  16.852
 3252POPC   C3B50959  24.184   3.633  16.769
 3252POPC   C4B50960  24.014   3.701  16.686
 3253POPC   NC350961   3.552  -0.510  23.276
 3253POPC   PO450962   3.621  -0.392  23.130
 3253POPC   GL150963   3.690  -0.274  22.984
 3253POPC   GL250964   3.770  -0.251  23.041
 3253POPC   C1A50965   3.760  -0.156  22.839
 3253POPC   D2A50966   3.829  -0.037  22.693
 3253POPC   C3A50967   3.899   0.081  22.548
 3253POPC   C4A50968   3.968   0.199  22.402
 3253POPC   C1B50969   3.859  -0.310  22.760
 3253POPC   C2B50970   3.929  -0.192  22.615
 3253POPC   C3B50971   3.998  -0.074  22.469
 3253POPC   C4B50972   4.067   0.044  22.324
 3254POPC   NC350973   1.621   2.657  24.204
 3254POPC   PO450974   1.721   2.735  24.049
 3254POPC   GL150975   1.821   2.813  23.894
 3254POPC   GL250976   1.905   2.811  23.948
 3254POPC   C1A50977   1.921   2.891  23.740
 3254POPC   D2A50978   2.022   2.968  23.585
 3254POPC   C3A50979   2.122   3.046  23.431
 3254POPC   C4A50980   2.222   3.124  23.276
 3254POPC   C1B50981   1.961   2.706  23.673
 3254POPC   C2B50982   2.061   2.784  23.518
 3254POPC   C3B50983   2.161   2.862  23.364
 3254POPC   C4B50984   2.262   2.940  23.209
 3255POPC   NC350985  12.163  22.654  22.548
 3255POPC   PO450986  12.136  22.512  22.410
 3255POPC   GL150987  12.109  22.370  22.272
 3255POPC   GL250988  12.207  22.348  22.275
 3255POPC   C1A50989  12.082  22.228  22.133
 3255POPC   D2A50990  12.056  22.087  21.995
 3255POPC   C3A50991  12.029  21.945  21.856
 3255POPC   C4A50992  12.002  21.803  21.718
 3255POPC   C1B50993  12.047  22.094  22.277
 3255POPC   C2B50994  12.020  21.953  22.139
 3255POPC   C3B50995  11.993  21.811  22.001
 3255POPC   C4B50996  11.966  21.669  21.862
 3256POPC   NC350997  20.207  23.654  15.354
 3256POPC   PO450998  20.089  23.507  15.288
 3256POPC   GL150999  19.971  23.360  15.222
 3256POPC   GL251000  19.941  23.418  15.147
 3256POPC   C1A51001  19.853  23.212  15.156
 3256POPC   D2A51002  19.734  23.065  15.091
 3256POPC   C3A51003  19.616  22.917  15.025
 3256POPC   C4A51004  19.498  22.770  14.959
 3256POPC   C1B51005  20.002  23.143  15.043
 3256POPC   C2B51006  19.884  22.995  14.977
 3256POPC   C3B51007  19.766  22.848  14.912
 3256POPC   C4B51008  19.648  22.701  14.846
 3257POPC   NC351009  25.778   1.601  11.536
 3257POPC   PO451010  25.601   1.692  11.520
 3257POPC   GL151011  25.424   1.783  11.504
 3257POPC   GL251012  25.464   1.850  11.441
 3257POPC   C1A51013  25.247   1.874  11.487
 3257POPC   D2A51014  25.069   1.966  11.471
 3257POPC   C3A51015  24.892   2.057  11.454
 3257POPC   C4A51016  24.715   2.148  11.438
 3257POPC   C1B51017  25.200   1.756  11.333
 3257POPC   C2B51018  25.023   1.847  11.316
 3257POPC   C3B51019  24.846   1.939  11.300
 3257POPC   C4B51020  24.669   2.030  11.283
 3258POPC   NC351021   0.282  24.424   5.160
 3258POPC   PO451022   0.389  24.264   5.213
 3258POPC   GL151023   0.496  24.104   5.266
 3258POPC   GL251024   0.580  24.159   5.264
 3258POPC   C1A51025   0.603  23.943   5.319
 3258POPC   D2A51026   0.711  23.783   5.372
 3258POPC   C3A51027   0.818  23.622   5.425
 3258POPC   C4A51028   0.925  23.462   5.478
 3258POPC   C1B51029   0.577  23.989   5.512
 3258POPC   C2B51030   0.684  23.828   5.565
 3258POPC   C3B51031   0.791  23.668   5.618
 3258POPC   C4B51032   0.898  23.508   5.671
 3259POPC   NC351033  -1.199  -0.295  19.833
 3259POPC   PO451034  -1.077  -0.184  19.720
 3259POPC   GL151035  -0.955  -0.073  19.607
 3259POPC   GL251036  -0.876  -0.124  19.642
 3259POPC   C1A51037  -0.832   0.038  19.495
 3259POPC   D2A51038  -0.710   0.150  19.382
 3259POPC   C3A51039  -0.587   0.261  19.270
 3259POPC   C4A51040  -0.465   0.372  19.157
 3259POPC   C1B51041  -0.852  -0.092  19.345
 3259POPC   C2B51042  -0.729   0.019  19.232
 3259POPC   C3B51043  -0.607   0.130  19.120
 3259POPC   C4B51044  -0.484   0.241  19.007
 3260POPC   NC351045  16.874  17.103  -5.110
 3260POPC   PO451046  16.797  17.022  -4.944
 3260POPC   GL151047  16.720  16.941  -4.778
 3260POPC   GL251048  16.752  16.851  -4.807
 3260POPC   C1A51049  16.644  16.860  -4.612
 3260POPC   D2A51050  16.567  16.780  -4.445
 3260POPC   C3A51051  16.491  16.699  -4.279
 3260POPC   C4A51052  16.414  16.618  -4.113
 3260POPC   C1B51053  16.818  16.890  -4.517
 3260POPC   C2B51054  16.741  16.809  -4.351
 3260POPC   C3B51055  16.664  16.728  -4.185
 3260POPC   C4B51056  16.588  16.647  -4.019
 3261POPC   NC351057  22.821  22.589   9.094
 3261POPC   PO451058  22.679  22.449   9.104
 3261POPC   GL151059  22.537  22.309   9.114
 3261POPC   GL251060  22.513  22.326   9.018
 3261POPC   C1A51061  22.394  22.169   9.124
 3261POPC   D2A51062  22.252  22.029   9.135
 3261POPC   C3A51063  22.109  21.889   9.145
 3261POPC   C4A51064  21.967  21.749   9.155
 3261POPC   C1B51065  22.526  22.030   9.067
 3261POPC   C2B51066  22.384  21.890   9.077
 3261POPC   C3B51067  22.242  21.750   9.088
 3261POPC   C4B51068  22.099  21.610   9.098
 3262POPC   NC351069  -1.469  20.576  19.193
 3262POPC   PO451070  -1.342  20.460  19.091
 3262POPC   GL151071  -1.215  20.344  18.989
 3262POPC   GL251072  -1.144  20.414  18.998
 3262POPC   C1A51073  -1.088  20.228  18.886
 3262POPC   D2A51074  -0.962  20.112  18.784
 3262POPC   C3A51075  -0.835  19.996  18.681
 3262POPC   C4A51076  -0.708  19.880  18.579
 3262POPC   C1B51077  -1.028  20.143  19.057
 3262POPC   C2B51078  -0.901  20.027  18.955
 3262POPC   C3B51079  -0.774  19.911  18.852
 3262POPC   C4B51080  -0.647  19.795  18.750
 3263POPC   NC351081   7.028  -0.098  -4.827
 3263POPC   PO451082   7.059   0.016  -4.666
 3263POPC   GL151083   7.090   0.130  -4.505
 3263POPC   GL251084   7.164   0.070  -4.476
 3263POPC   C1A51085   7.120   0.244  -4.343
 3263POPC   D2A51086   7.151   0.358  -4.182
 3263POPC   C3A51087   7.181   0.472  -4.020
 3263POPC   C4A51088   7.212   0.586  -3.859
 3263POPC   C1B51089   7.249   0.356  -4.447
 3263POPC   C2B51090   7.280   0.470  -4.286
 3263POPC   C3B51091   7.310   0.584  -4.124
 3263POPC   C4B51092   7.341   0.698  -3.963
 3264POPC   NC351093  27.213  14.962   9.249
 3264POPC   PO451094  27.022  14.903   9.258
 3264POPC   GL151095  26.831  14.844   9.267
 3264POPC   GL251096  26.839  14.806   9.175
 3264POPC   C1A51097  26.640  14.784   9.276
 3264POPC   D2A51098  26.450  14.725   9.285
 3264POPC   C3A51099  26.259  14.665   9.294
 3264POPC   C4A51100  26.068  14.606   9.303
 3264POPC   C1B51101  26.699  14.609   9.352
 3264POPC   C2B51102  26.508  14.549   9.361
 3264POPC   C3B51103  26.317  14.490   9.370
 3264POPC   C4B51104  26.126  14.431   9.379
 3265POPC   NC351105   2.550   2.546  24.701
 3265POPC   PO451106   2.636   2.627  24.540
 3265POPC   GL151107   2.722   2.708  24.379
 3265POPC   GL251108   2.728   2.796  24.426
 3265POPC   C1A51109   2.808   2.789  24.217
 3265POPC   D2A51110   2.895   2.869  24.056
 3265POPC   C3A51111   2.981   2.950  23.894
 3265POPC   C4A51112   3.067   3.031  23.733
 3265POPC   C1B51113   2.989   2.739  24.289
 3265POPC   C2B51114   3.075   2.820  24.127
 3265POPC   C3B51115   3.161   2.901  23.966
 3265POPC   C4B51116   3.247   2.982  23.805
 3266POPC   NC351117  -5.077  18.568   4.590
 3266POPC   PO451118  -4.909  18.479   4.652
 3266POPC   GL151119  -4.741  18.390   4.714
 3266POPC   GL251120  -4.773  18.397   4.809
 3266POPC   C1A51121  -4.573  18.301   4.777
 3266POPC   D2A51122  -4.406  18.212   4.839
 3266POPC   C3A51123  -4.238  18.123   4.902
 3266POPC   C4A51124  -4.070  18.034   4.964
 3266POPC   C1B51125  -4.662  18.123   4.761
 3266POPC   C2B51126  -4.494  18.034   4.824
 3266POPC   C3B51127  -4.327  17.945   4.886
 3266POPC   C4B51128  -4.159  17.856   4.949
 3267POPC   NC351129  -6.733  16.901   8.062
 3267POPC   PO451130  -6.549  16.826   8.085
 3267POPC   GL151131  -6.365  16.751   8.108
 3267POPC   GL251132  -6.326  16.841   8.091
 3267POPC   C1A51133  -6.181  16.675   8.131
 3267POPC   D2A51134  -5.998  16.600   8.155
 3267POPC   C3A51135  -5.814  16.524   8.178
 3267POPC   C4A51136  -5.630  16.449   8.201
 3267POPC   C1B51137  -6.190  16.715   8.327
 3267POPC   C2B51138  -6.006  16.640   8.350
 3267POPC   C3B51139  -5.822  16.564   8.374
 3267POPC   C4B51140  -5.638  16.489   8.397
 3268POPC   NC351141   8.586  -7.032  15.906
 3268POPC   PO451142   8.602  -6.846  15.835
 3268POPC   GL151143   8.618  -6.660  15.764
 3268POPC   GL251144   8.695  -6.643  15.825
 3268POPC   C1A51145   8.634  -6.473  15.694
 3268POPC   D2A51146   8.649  -6.287  15.623
 3268POPC   C3A51147   8.665  -6.100  15.553
 3268POPC   C4A51148   8.681  -5.914  15.482
 3268POPC   C1B51149   8.759  -6.537  15.552
 3268POPC   C2B51150   8.775  -6.351  15.481
 3268POPC   C3B51151   8.791  -6.165  15.411
 3268POPC   C4B51152   8.806  -5.978  15.340
 3269POPC   NC351153  23.999  17.271   1.363
 3269POPC   PO451154  23.843  17.192   1.460
 3269POPC   GL151155  23.687  17.113   1.557
 3269POPC   GL251156  23.636  17.108   1.472
 3269POPC   C1A51157  23.532  17.033   1.655
 3269POPC   D2A51158  23.376  16.954   1.752
 3269POPC   C3A51159  23.221  16.874   1.850
 3269POPC   C4A51160  23.065  16.795   1.947
 3269POPC   C1B51161  23.604  16.850   1.621
 3269POPC   C2B51162  23.449  16.770   1.719
 3269POPC   C3B51163  23.293  16.691   1.816
 3269POPC   C4B51164  23.137  16.612   1.913
 3270POPC   NC351165  21.634  21.411   2.508
 3270POPC   PO451166  21.506  21.283   2.594
 3270POPC   GL151167  21.378  21.155   2.680
 3270POPC   GL251168  21.438  21.079   2.656
 3270POPC   C1A51169  21.250  21.028   2.766
 3270POPC   D2A51170  21.123  20.900   2.851
 3270POPC   C3A51171  20.995  20.773   2.937
 3270POPC   C4A51172  20.867  20.645   3.023
 3270POPC   C1B51173  21.347  21.049   2.940
 3270POPC   C2B51174  21.219  20.921   3.026
 3270POPC   C3B51175  21.091  20.793   3.111
 3270POPC   C4B51176  20.963  20.666   3.197
 3271POPC   NC351177  23.220  21.886  12.177
 3271POPC   PO451178  23.072  21.755  12.146
 3271POPC   GL151179  22.924  21.624  12.115
 3271POPC   GL251180  22.887  21.683  12.043
 3271POPC   C1A51181  22.776  21.494  12.084
 3271POPC   D2A51182  22.627  21.363  12.053
 3271POPC   C3A51183  22.479  21.233  12.022
 3271POPC   C4A51184  22.331  21.102  11.991
 3271POPC   C1B51185  22.888  21.398  11.949
 3271POPC   C2B51186  22.740  21.268  11.918
 3271POPC   C3B51187  22.592  21.137  11.887
 3271POPC   C4B51188  22.444  21.006  11.856
 3272POPC   NC351189   9.819  22.928  22.520
 3272POPC   PO451190   9.820  22.784  22.381
 3272POPC   GL151191   9.821  22.640  22.242
 3272POPC   GL251192   9.859  22.576  22.308
 3272POPC   C1A51193   9.821  22.497  22.103
 3272POPC   D2A51194   9.822  22.353  21.963
 3272POPC   C3A51195   9.822  22.210  21.824
 3272POPC   C4A51196   9.823  22.066  21.685
 3272POPC   C1B51197   9.636  22.443  22.157
 3272POPC   C2B51198   9.637  22.299  22.018
 3272POPC   C3B51199   9.638  22.156  21.879
 3272POPC   C4B51200   9.638  22.012  21.740
 3273POPC   NC351201  -1.935  -1.744  17.015
 3273POPC   PO451202  -1.804  -1.616  16.935
 3273POPC   GL151203  -1.673  -1.488  16.855
 3273POPC   GL251204  -1.696  -1.420  16.924
 3273POPC   C1A51205  -1.542  -1.360  16.774
 3273POPC   D2A51206  -1.411  -1.232  16.694
 3273POPC   C3A51207  -1.280  -1.104  16.613
 3273POPC   C4A51208  -1.149  -0.976  16.533
 3273POPC   C1B51209  -1.398  -1.433  16.892
 3273POPC   C2B51210  -1.267  -1.305  16.812
 3273POPC   C3B51211  -1.136  -1.177  16.732
 3273POPC   C4B51212  -1.005  -1.049  16.651
 3274POPC   NC351213  -6.097   7.249  17.979
 3274POPC   PO451214  -5.919   7.273  17.892
 3274POPC   GL151215  -5.741   7.297  17.805
 3274POPC   GL251216  -5.718   7.202  17.826
 3274POPC   C1A51217  -5.562   7.320  17.718
 3274POPC   D2A51218  -5.384   7.344  17.630
 3274POPC   C3A51219  -5.205   7.367  17.543
 3274POPC   C4A51220  -5.027   7.391  17.456
 3274POPC   C1B51221  -5.640   7.263  17.543
 3274POPC   C2B51222  -5.462   7.286  17.455
 3274POPC   C3B51223  -5.283   7.310  17.368
 3274POPC   C4B51224  -5.105   7.334  17.281
 3275POPC   NC351225   4.815   7.844  -7.279
 3275POPC   PO451226   4.869   7.867  -7.088
 3275POPC   GL151227   4.923   7.890  -6.897
 3275POPC   GL251228   4.925   7.791  -6.885
 3275POPC   C1A51229   4.976   7.913  -6.705
 3275POPC   D2A51230   5.030   7.935  -6.514
 3275POPC   C3A51231   5.083   7.958  -6.322
 3275POPC   C4A51232   5.137   7.981  -6.131
 3275POPC   C1B51233   5.169   7.911  -6.759
 3275POPC   C2B51234   5.222   7.934  -6.568
 3275POPC   C3B51235   5.276   7.956  -6.376
 3275POPC   C4B51236   5.330   7.979  -6.185
 3276POPC   NC351237   7.777  -5.664  18.711
 3276POPC   PO451238   7.801  -5.491  18.614
 3276POPC   GL151239   7.825  -5.318  18.517
 3276POPC   GL251240   7.834  -5.270  18.604
 3276POPC   C1A51241   7.848  -5.145  18.419
 3276POPC   D2A51242   7.872  -4.971  18.322
 3276POPC   C3A51243   7.895  -4.798  18.224
 3276POPC   C4A51244   7.919  -4.625  18.127
 3276POPC   C1B51245   8.046  -5.174  18.414
 3276POPC   C2B51246   8.069  -5.001  18.317
 3276POPC   C3B51247   8.093  -4.828  18.219
 3276POPC   C4B51248   8.117  -4.655  18.122
 3277POPC   NC351249  11.227  -7.951  11.239
 3277POPC   PO451250  11.215  -7.752  11.224
 3277POPC   GL151251  11.203  -7.553  11.209
 3277POPC   GL251252  11.294  -7.551  11.167
 3277POPC   C1A51253  11.191  -7.354  11.194
 3277POPC   D2A51254  11.180  -7.155  11.179
 3277POPC   C3A51255  11.168  -6.956  11.164
 3277POPC   C4A51256  11.156  -6.757  11.149
 3277POPC   C1B51257  11.108  -7.372  11.013
 3277POPC   C2B51258  11.096  -7.173  10.998
 3277POPC   C3B51259  11.085  -6.974  10.983
 3277POPC   C4B51260  11.073  -6.775  10.968
 3278POPC   NC351261  14.630   2.666  -5.893
 3278POPC   PO451262  14.581   2.745  -5.716
 3278POPC   GL151263  14.532   2.824  -5.539
 3278POPC   GL251264  14.618   2.793  -5.501
 3278POPC   C1A51265  14.482   2.904  -5.362
 3278POPC   D2A51266  14.433   2.983  -5.186
 3278POPC   C3A51267  14.383   3.063  -5.009
 3278POPC   C4A51268  14.334   3.142  -4.832
 3278POPC   C1B51269  14.569   3.076  -5.416
 3278POPC   C2B51270  14.519   3.155  -5.239
 3278POPC   C3B51271  14.470   3.235  -5.062
 3278POPC   C4B51272  14.421   3.314  -4.885
 3279POPC   NC351273  -6.362   4.854  16.046
 3279POPC   PO451274  -6.181   4.915  15.987
 3279POPC   GL151275  -6.000   4.976  15.928
 3279POPC   GL251276  -5.971   4.981  16.023
 3279POPC   C1A51277  -5.819   5.037  15.868
 3279POPC   D2A51278  -5.638   5.097  15.809
 3279POPC   C3A51279  -5.457   5.158  15.749
 3279POPC   C4A51280  -5.276   5.219  15.690
 3279POPC   C1B51281  -5.758   4.846  15.861
 3279POPC   C2B51282  -5.577   4.907  15.801
 3279POPC   C3B51283  -5.396   4.968  15.742
 3279POPC   C4B51284  -5.215   5.029  15.682
 3280POPC   NC351285   5.803  -7.160   5.974
 3280POPC   PO451286   5.848  -6.970   6.019
 3280POPC   GL151287   5.893  -6.780   6.064
 3280POPC   GL251288   5.972  -6.785   6.003
 3280POPC   C1A51289   5.938  -6.591   6.109
 3280POPC   D2A51290   5.984  -6.401   6.155
 3280POPC   C3A51291   6.029  -6.212   6.200
 3280POPC   C4A51292   6.074  -6.022   6.245
 3280POPC   C1B51293   5.824  -6.528   5.958
 3280POPC   C2B51294   5.869  -6.338   6.003
 3280POPC   C3B51295   5.914  -6.148   6.049
 3280POPC   C4B51296   5.960  -5.959   6.094
 3281POPC   NC351297  11.956  26.999  15.597
 3281POPC   PO451298  11.931  26.810  15.537
 3281POPC   GL151299  11.906  26.621  15.477
 3281POPC   GL251300  12.002  26.618  15.447
 3281POPC   C1A51301  11.882  26.432  15.417
 3281POPC   D2A51302  11.857  26.242  15.358
 3281POPC   C3A51303  11.833  26.053  15.298
 3281POPC   C4A51304  11.808  25.864  15.238
 3281POPC   C1B51305  11.937  26.367  15.599
 3281POPC   C2B51306  11.912  26.178  15.539
 3281POPC   C3B51307  11.887  25.989  15.479
 3281POPC   C4B51308  11.863  25.800  15.419
 3282POPC   NC351309   6.316  -5.432   1.269
 3282POPC   PO451310   6.353  -5.260   1.364
 3282POPC   GL151311   6.390  -5.088   1.459
 3282POPC   GL251312   6.480  -5.122   1.486
 3282POPC   C1A51313   6.427  -4.916   1.554
 3282POPC   D2A51314   6.464  -4.744   1.650
 3282POPC   C3A51315   6.501  -4.572   1.745
 3282POPC   C4A51316   6.538  -4.400   1.840
 3282POPC   C1B51317   6.505  -4.840   1.387
 3282POPC   C2B51318   6.542  -4.668   1.482
 3282POPC   C3B51319   6.579  -4.496   1.577
 3282POPC   C4B51320   6.616  -4.324   1.672
 3283POPC   NC351321  23.962  20.609  13.575
 3283POPC   PO451322  23.809  20.488  13.533
 3283POPC   GL151323  23.656  20.367  13.491
 3283POPC   GL251324  23.636  20.420  13.409
 3283POPC   C1A51325  23.503  20.245  13.449
 3283POPC   D2A51326  23.349  20.124  13.408
 3283POPC   C3A51327  23.196  20.002  13.366
 3283POPC   C4A51328  23.043  19.881  13.324
 3283POPC   C1B51329  23.625  20.128  13.343
 3283POPC   C2B51330  23.471  20.006  13.301
 3283POPC   C3B51331  23.318  19.885  13.259
 3283POPC   C4B51332  23.165  19.764  13.217
 3284POPC   NC351333  27.207  14.474  12.010
 3284POPC   PO451334  27.014  14.426  11.985
 3284POPC   GL151335  26.821  14.378  11.960
 3284POPC   GL251336  26.834  14.378  11.861
 3284POPC   C1A51337  26.629  14.330  11.935
 3284POPC   D2A51338  26.436  14.283  11.909
 3284POPC   C3A51339  26.244  14.235  11.884
 3284POPC   C4A51340  26.051  14.187  11.859
 3284POPC   C1B51341  26.676  14.136  11.941
 3284POPC   C2B51342  26.484  14.088  11.915
 3284POPC   C3B51343  26.291  14.041  11.890
 3284POPC   C4B51344  26.098  13.993  11.865
 3285POPC   NC351345  10.229  14.908  27.273
 3285POPC   PO451346  10.222  14.849  27.082
 3285POPC   GL151347  10.215  14.790  26.891
 3285POPC   GL251348  10.308  14.825  26.877
 3285POPC   C1A51349  10.208  14.731  26.700
 3285POPC   D2A51350  10.200  14.673  26.509
 3285POPC   C3A51351  10.193  14.614  26.318
 3285POPC   C4A51352  10.186  14.555  26.127
 3285POPC   C1B51353  10.282  14.553  26.752
 3285POPC   C2B51354  10.275  14.495  26.561
 3285POPC   C3B51355  10.268  14.436  26.370
 3285POPC   C4B51356  10.261  14.377  26.179
 3286POPC   NC351357   5.407  14.517  26.802
 3286POPC   PO451358   5.452  14.479  26.611
 3286POPC   GL151359   5.497  14.441  26.420
 3286POPC   GL251360   5.502  14.539  26.402
 3286POPC   C1A51361   5.542  14.403  26.229
 3286POPC   D2A51362   5.586  14.365  26.037
 3286POPC   C3A51363   5.631  14.327  25.846
 3286POPC   C4A51364   5.676  14.289  25.655
 3286POPC   C1B51365   5.736  14.400  26.275
 3286POPC   C2B51366   5.781  14.362  26.083
 3286POPC   C3B51367   5.826  14.324  25.892
 3286POPC   C4B51368   5.871  14.286  25.701
 3287POPC   NC351369  10.736   7.335  -7.901
 3287POPC   PO451370  10.732   7.367  -7.704
 3287POPC   GL151371  10.728   7.399  -7.507
 3287POPC   GL251372  10.828   7.401  -7.505
 3287POPC   C1A51373  10.724   7.430  -7.309
 3287POPC   D2A51374  10.719   7.462  -7.112
 3287POPC   C3A51375  10.715   7.493  -6.914
 3287POPC   C4A51376  10.711   7.525  -6.717
 3287POPC   C1B51377  10.720   7.628  -7.341
 3287POPC   C2B51378  10.716   7.659  -7.143
 3287POPC   C3B51379  10.712   7.691  -6.946
 3287POPC   C4B51380  10.707   7.722  -6.749
 3288POPC   NC351381  16.777  10.905  -6.703
 3288POPC   PO451382  16.696  10.898  -6.520
 3288POPC   GL151383  16.615  10.891  -6.337
 3288POPC   GL251384  16.570  10.979  -6.354
 3288POPC   C1A51385  16.534  10.885  -6.154
 3288POPC   D2A51386  16.453  10.878  -5.972
 3288POPC   C3A51387  16.372  10.872  -5.789
 3288POPC   C4A51388  16.291  10.865  -5.606
 3288POPC   C1B51389  16.375  10.788  -6.228
 3288POPC   C2B51390  16.294  10.782  -6.045
 3288POPC   C3B51391  16.213  10.775  -5.863
 3288POPC   C4B51392  16.132  10.768  -5.680
 3289POPC   NC351393  -7.155   4.545   7.622
 3289POPC   PO451394  -6.968   4.611   7.646
 3289POPC   GL151395  -6.781   4.677   7.670
 3289POPC   GL251396  -6.763   4.602   7.734
 3289POPC   C1A51397  -6.593   4.743   7.694
 3289POPC   D2A51398  -6.406   4.808   7.717
 3289POPC   C3A51399  -6.218   4.874   7.741
 3289POPC   C4A51400  -6.031   4.940   7.765
 3289POPC   C1B51401  -6.533   4.626   7.543
 3289POPC   C2B51402  -6.346   4.692   7.566
 3289POPC   C3B51403  -6.158   4.758   7.590
 3289POPC   C4B51404  -5.971   4.824   7.614
 3290POPC   NC351405  -5.317  19.838   9.200
 3290POPC   PO451406  -5.150  19.728   9.206
 3290POPC   GL151407  -4.983  19.618   9.212
 3290POPC   GL251408  -5.014  19.575   9.297
 3290POPC   C1A51409  -4.816  19.508   9.218
 3290POPC   D2A51410  -4.649  19.399   9.225
 3290POPC   C3A51411  -4.482  19.289   9.231
 3290POPC   C4A51412  -4.315  19.179   9.237
 3290POPC   C1B51413  -4.906  19.365   9.112
 3290POPC   C2B51414  -4.739  19.255   9.118
 3290POPC   C3B51415  -4.572  19.146   9.124
 3290POPC   C4B51416  -4.405  19.036   9.131
 3291POPC   NC351417   8.191  14.298  -7.534
 3291POPC   PO451418   8.208  14.250  -7.341
 3291POPC   GL151419   8.225  14.202  -7.148
 3291POPC   GL251420   8.291  14.130  -7.171
 3291POPC   C1A51421   8.242  14.154  -6.954
 3291POPC   D2A51422   8.258  14.106  -6.761
 3291POPC   C3A51423   8.275  14.058  -6.567
 3291POPC   C4A51424   8.292  14.010  -6.374
 3291POPC   C1B51425   8.391  14.285  -6.935
 3291POPC   C2B51426   8.408  14.237  -6.741
 3291POPC   C3B51427   8.425  14.189  -6.548
 3291POPC   C4B51428   8.442  14.141  -6.355
 3292POPC   NC351429   4.353   1.091  -4.823
 3292POPC   PO451430   4.419   1.192  -4.664
 3292POPC   GL151431   4.485   1.293  -4.505
 3292POPC   GL251432   4.578   1.262  -4.524
 3292POPC   C1A51433   4.552   1.394  -4.346
 3292POPC   D2A51434   4.618   1.496  -4.186
 3292POPC   C3A51435   4.685   1.597  -4.027
 3292POPC   C4A51436   4.751   1.698  -3.868
 3292POPC   C1B51437   4.583   1.555  -4.461
 3292POPC   C2B51438   4.649   1.656  -4.302
 3292POPC   C3B51439   4.716   1.757  -4.142
 3292POPC   C4B51440   4.782   1.859  -3.983
 3293POPC   NC351441  -4.468  20.821  11.750
 3293POPC   PO451442  -4.310  20.700  11.727
 3293POPC   GL151443  -4.152  20.579  11.704
 3293POPC   GL251444  -4.092  20.653  11.733
 3293POPC   C1A51445  -3.995  20.458  11.681
 3293POPC   D2A51446  -3.837  20.338  11.658
 3293POPC   C3A51447  -3.680  20.217  11.635
 3293POPC   C4A51448  -3.522  20.096  11.612
 3293POPC   C1B51449  -4.013  20.399  11.871
 3293POPC   C2B51450  -3.855  20.278  11.848
 3293POPC   C3B51451  -3.698  20.157  11.825
 3293POPC   C4B51452  -3.540  20.036  11.802
 3294POPC   NC351453  17.487   5.014  -5.608
 3294POPC   PO451454  17.403   5.064  -5.433
 3294POPC   GL151455  17.319   5.114  -5.258
 3294POPC   GL251456  17.236   5.064  -5.284
 3294POPC   C1A51457  17.235   5.164  -5.084
 3294POPC   D2A51458  17.151   5.214  -4.909
 3294POPC   C3A51459  17.067   5.264  -4.735
 3294POPC   C4A51460  16.983   5.314  -4.560
 3294POPC   C1B51461  17.309   4.998  -5.001
 3294POPC   C2B51462  17.225   5.048  -4.826
 3294POPC   C3B51463  17.141   5.098  -4.651
 3294POPC   C4B51464  17.057   5.148  -4.477
 3295POPC   NC351465   1.207  15.758  -4.812
 3295POPC   PO451466   1.304  15.695  -4.649
 3295POPC   GL151467   1.401  15.632  -4.486
 3295POPC   GL251468   1.321  15.652  -4.430
 3295POPC   C1A51469   1.498  15.569  -4.323
 3295POPC   D2A51470   1.596  15.507  -4.159
 3295POPC   C3A51471   1.693  15.444  -3.996
 3295POPC   C4A51472   1.790  15.381  -3.833
 3295POPC   C1B51473   1.431  15.384  -4.354
 3295POPC   C2B51474   1.528  15.321  -4.191
 3295POPC   C3B51475   1.625  15.258  -4.027
 3295POPC   C4B51476   1.722  15.195  -3.864
 3296POPC   NC351477  -0.503  16.710  -3.241
 3296POPC   PO451478  -0.390  16.638  -3.093
 3296POPC   GL151479  -0.277  16.566  -2.945
 3296POPC   GL251480  -0.207  16.635  -2.964
 3296POPC   C1A51481  -0.164  16.494  -2.796
 3296POPC   D2A51482  -0.051  16.421  -2.648
 3296POPC   C3A51483   0.062  16.349  -2.499
 3296POPC   C4A51484   0.175  16.277  -2.351
 3296POPC   C1B51485  -0.253  16.619  -2.668
 3296POPC   C2B51486  -0.140  16.547  -2.519
 3296POPC   C3B51487  -0.027  16.474  -2.371
 3296POPC   C4B51488   0.086  16.402  -2.223
 3297POPC   NC351489   0.315  21.159  20.465
 3297POPC   PO451490   0.421  21.038  20.346
 3297POPC   GL151491   0.527  20.917  20.227
 3297POPC   GL251492   0.513  20.841  20.292
 3297POPC   C1A51493   0.633  20.795  20.109
 3297POPC   D2A51494   0.738  20.674  19.990
 3297POPC   C3A51495   0.844  20.552  19.872
 3297POPC   C4A51496   0.950  20.431  19.753
 3297POPC   C1B51497   0.465  20.744  20.012
 3297POPC   C2B51498   0.571  20.622  19.893
 3297POPC   C3B51499   0.677  20.501  19.775
 3297POPC   C4B51500   0.783  20.380  19.656
 3298POPC   NC351501  -8.227   9.989  10.335
 3298POPC   PO451502  -8.027   9.989  10.329
 3298POPC   GL151503  -7.827   9.989  10.323
 3298POPC   GL251504  -7.825  10.069  10.384
 3298POPC   C1A51505  -7.627   9.990  10.317
 3298POPC   D2A51506  -7.427   9.990  10.311
 3298POPC   C3A51507  -7.227   9.991  10.305
 3298POPC   C4A51508  -7.027   9.991  10.299
 3298POPC   C1B51509  -7.622   9.868  10.475
 3298POPC   C2B51510  -7.422   9.868  10.469
 3298POPC   C3B51511  -7.222   9.869  10.463
 3298POPC   C4B51512  -7.022   9.869  10.457
 3299POPC   NC351513  24.860   3.023   2.601
 3299POPC   PO451514  24.695   3.101   2.682
 3299POPC   GL151515  24.530   3.179   2.763
 3299POPC   GL251516  24.556   3.270   2.729
 3299POPC   C1A51517  24.365   3.258   2.845
 3299POPC   D2A51518  24.200   3.336   2.926
 3299POPC   C3A51519  24.035   3.415   3.008
 3299POPC   C4A51520  23.870   3.493   3.089
 3299POPC   C1B51521  24.264   3.222   2.676
 3299POPC   C2B51522  24.099   3.300   2.757
 3299POPC   C3B51523  23.934   3.379   2.838
 3299POPC   C4B51524  23.769   3.457   2.920
 3300POPC   NC351525  27.276   9.999   5.298
 3300POPC   PO451526  27.082  10.000   5.347
 3300POPC   GL151527  26.888  10.001   5.396
 3300POPC   GL251528  26.880   9.906   5.365
 3300POPC   C1A51529  26.694  10.002   5.445
 3300POPC   D2A51530  26.501  10.003   5.495
 3300POPC   C3A51531  26.307  10.004   5.544
 3300POPC   C4A51532  26.113  10.005   5.593
 3300POPC   C1B51533  26.741   9.937   5.629
 3300POPC   C2B51534  26.547   9.938   5.678
 3300POPC   C3B51535  26.353   9.939   5.727
 3300POPC   C4B51536  26.159   9.940   5.776
 3301POPC   NC351537  12.013   5.758  -7.484
 3301POPC   PO451538  11.994   5.809  -7.292
 3301POPC   GL151539  11.975   5.860  -7.100
 3301POPC   GL251540  12.013   5.950  -7.120
 3301POPC   C1A51541  11.956   5.911  -6.907
 3301POPC   D2A51542  11.938   5.962  -6.715
 3301POPC   C3A51543  11.919   6.013  -6.522
 3301POPC   C4A51544  11.900   6.064  -6.330
 3301POPC   C1B51545  11.772   5.980  -6.944
 3301POPC   C2B51546  11.753   6.031  -6.751
 3301POPC   C3B51547  11.734   6.082  -6.559
 3301POPC   C4B51548  11.716   6.133  -6.366
 3302POPC   NC351549   5.342  27.476  11.064
 3302POPC   PO451550   5.393  27.283  11.051
 3302POPC   GL151551   5.444  27.090  11.038
 3302POPC   GL251552   5.492  27.097  11.126
 3302POPC   C1A51553   5.494  26.897  11.026
 3302POPC   D2A51554   5.545  26.703  11.013
 3302POPC   C3A51555   5.595  26.510  11.001
 3302POPC   C4A51556   5.646  26.317  10.988
 3302POPC   C1B51557   5.326  26.846  11.123
 3302POPC   C2B51558   5.377  26.653  11.110
 3302POPC   C3B51559   5.428  26.460  11.097
 3302POPC   C4B51560   5.478  26.267  11.085
 3303POPC   NC351561   7.507   8.154  27.718
 3303POPC   PO451562   7.533   8.173  27.521
 3303POPC   GL151563   7.559   8.192  27.324
 3303POPC   GL251564   7.655   8.216  27.339
 3303POPC   C1A51565   7.586   8.211  27.126
 3303POPC   D2A51566   7.612   8.230  26.929
 3303POPC   C3A51567   7.639   8.249  26.731
 3303POPC   C4A51568   7.665   8.268  26.534
 3303POPC   C1B51569   7.636   8.018  27.114
 3303POPC   C2B51570   7.662   8.037  26.917
 3303POPC   C3B51571   7.688   8.056  26.720
 3303POPC   C4B51572   7.715   8.075  26.522
 3304POPC   NC351573  -2.156  11.236  23.349
 3304POPC   PO451574  -2.024  11.219  23.200
 3304POPC   GL151575  -1.892  11.202  23.051
 3304POPC   GL251576  -1.856  11.118  23.091
 3304POPC   C1A51577  -1.760  11.186  22.902
 3304POPC   D2A51578  -1.627  11.169  22.752
 3304POPC   C3A51579  -1.495  11.153  22.603
 3304POPC   C4A51580  -1.363  11.136  22.454
 3304POPC   C1B51581  -1.892  11.079  22.796
 3304POPC   C2B51582  -1.760  11.063  22.647
 3304POPC   C3B51583  -1.628  11.046  22.498
 3304POPC   C4B51584  -1.496  11.030  22.349
 3305POPC   NC351585  14.540   6.927  -7.247
 3305POPC   PO451586  14.481   6.962  -7.059
 3305POPC   GL151587  14.422   6.997  -6.871
 3305POPC   GL251588  14.418   7.095  -6.891
 3305POPC   C1A51589  14.364   7.032  -6.683
 3305POPC   D2A51590  14.305   7.067  -6.495
 3305POPC   C3A51591  14.247   7.102  -6.307
 3305POPC   C4A51592  14.188   7.137  -6.119
 3305POPC   C1B51593  14.173   7.012  -6.739
 3305POPC   C2B51594  14.114   7.047  -6.551
 3305POPC   C3B51595  14.056   7.082  -6.363
 3305POPC   C4B51596  13.997   7.117  -6.175
 3306POPC   NC351597  25.511   7.024   1.400
 3306POPC   PO451598  25.337   7.052   1.495
 3306POPC   GL151599  25.163   7.080   1.590
 3306POPC   GL251600  25.138   7.149   1.522
 3306POPC   C1A51601  24.989   7.109   1.684
 3306POPC   D2A51602  24.816   7.137   1.779
 3306POPC   C3A51603  24.642   7.166   1.873
 3306POPC   C4A51604  24.468   7.194   1.968
 3306POPC   C1B51605  24.905   6.966   1.572
 3306POPC   C2B51606  24.731   6.995   1.667
 3306POPC   C3B51607  24.557   7.023   1.761
 3306POPC   C4B51608  24.384   7.052   1.856
 3307POPC   NC351609   1.283   0.253  22.484
 3307POPC   PO451610   1.383   0.358  22.346
 3307POPC   GL151611   1.483   0.463  22.208
 3307POPC   GL251612   1.566   0.457  22.265
 3307POPC   C1A51613   1.584   0.567  22.071
 3307POPC   D2A51614   1.684   0.672  21.933
 3307POPC   C3A51615   1.785   0.776  21.796
 3307POPC   C4A51616   1.885   0.881  21.658
 3307POPC   C1B51617   1.635   0.397  21.979
 3307POPC   C2B51618   1.736   0.502  21.841
 3307POPC   C3B51619   1.836   0.606  21.704
 3307POPC   C4B51620   1.936   0.711  21.566
 3308POPC   NC351621  19.317  25.226  11.822
 3308POPC   PO451622  19.217  25.053  11.809
 3308POPC   GL151623  19.117  24.880  11.796
 3308POPC   GL251624  19.180  24.849  11.726
 3308POPC   C1A51625  19.017  24.708  11.784
 3308POPC   D2A51626  18.916  24.535  11.771
 3308POPC   C3A51627  18.816  24.363  11.759
 3308POPC   C4A51628  18.716  24.190  11.746
 3308POPC   C1B51629  19.134  24.629  11.925
 3308POPC   C2B51630  19.034  24.457  11.913
 3308POPC   C3B51631  18.934  24.284  11.900
 3308POPC   C4B51632  18.833  24.111  11.888
 3309POPC   NC351633  -5.878  18.314  12.992
 3309POPC   PO451634  -5.704  18.221  12.959
 3309POPC   GL151635  -5.530  18.128  12.926
 3309POPC   GL251636  -5.534  18.088  13.017
 3309POPC   C1A51637  -5.356  18.035  12.892
 3309POPC   D2A51638  -5.182  17.943  12.859
 3309POPC   C3A51639  -5.008  17.850  12.825
 3309POPC   C4A51640  -4.834  17.757  12.792
 3309POPC   C1B51641  -5.454  17.877  12.820
 3309POPC   C2B51642  -5.280  17.784  12.786
 3309POPC   C3B51643  -5.106  17.692  12.753
 3309POPC   C4B51644  -4.932  17.599  12.719
 3310POPC   NC351645  -6.046   8.741   1.510
 3310POPC   PO451646  -5.869   8.755   1.601
 3310POPC   GL151647  -5.692   8.769   1.692
 3310POPC   GL251648  -5.684   8.670   1.692
 3310POPC   C1A51649  -5.514   8.784   1.784
 3310POPC   D2A51650  -5.337   8.798   1.875
 3310POPC   C3A51651  -5.159   8.813   1.967
 3310POPC   C4A51652  -4.982   8.827   2.058
 3310POPC   C1B51653  -5.423   8.791   1.606
 3310POPC   C2B51654  -5.246   8.805   1.697
 3310POPC   C3B51655  -5.068   8.820   1.789
 3310POPC   C4B51656  -4.891   8.834   1.880
 3311POPC   NC351657   7.940  -7.643  13.351
 3311POPC   PO451658   7.961  -7.447  13.319
 3311POPC   GL151659   7.982  -7.251  13.287
 3311POPC   GL251660   7.990  -7.235  13.385
 3311POPC   C1A51661   8.003  -7.055  13.255
 3311POPC   D2A51662   8.024  -6.858  13.222
 3311POPC   C3A51663   8.045  -6.662  13.190
 3311POPC   C4A51664   8.066  -6.466  13.158
 3311POPC   C1B51665   8.201  -7.078  13.243
 3311POPC   C2B51666   8.222  -6.881  13.210
 3311POPC   C3B51667   8.243  -6.685  13.178
 3311POPC   C4B51668   8.264  -6.489  13.146
 3312POPC   NC351669  -0.445   0.316  21.132
 3312POPC   PO451670  -0.330   0.420  21.006
 3312POPC   GL151671  -0.215   0.524  20.880
 3312POPC   GL251672  -0.135   0.507  20.938
 3312POPC   C1A51673  -0.100   0.628  20.754
 3312POPC   D2A51674   0.015   0.732  20.627
 3312POPC   C3A51675   0.130   0.836  20.501
 3312POPC   C4A51676   0.245   0.940  20.375
 3312POPC   C1B51677  -0.061   0.461  20.651
 3312POPC   C2B51678   0.054   0.565  20.525
 3312POPC   C3B51679   0.169   0.669  20.399
 3312POPC   C4B51680   0.284   0.773  20.272
 3313POPC   NC351681   3.180  -1.973  -1.757
 3313POPC   PO451682   3.260  -1.842  -1.629
 3313POPC   GL151683   3.340  -1.711  -1.501
 3313POPC   GL251684   3.306  -1.766  -1.424
 3313POPC   C1A51685   3.420  -1.580  -1.372
 3313POPC   D2A51686   3.499  -1.449  -1.244
 3313POPC   C3A51687   3.579  -1.318  -1.115
 3313POPC   C4A51688   3.659  -1.187  -0.987
 3313POPC   C1B51689   3.590  -1.685  -1.372
 3313POPC   C2B51690   3.670  -1.554  -1.243
 3313POPC   C3B51691   3.750  -1.423  -1.115
 3313POPC   C4B51692   3.829  -1.292  -0.986
 3314POPC   NC351693  14.952   5.747  -6.850
 3314POPC   PO451694  14.888   5.794  -6.666
 3314POPC   GL151695  14.824   5.841  -6.482
 3314POPC   GL251696  14.802   5.933  -6.513
 3314POPC   C1A51697  14.759   5.887  -6.299
 3314POPC   D2A51698  14.695   5.934  -6.115
 3314POPC   C3A51699  14.630   5.980  -5.932
 3314POPC   C4A51700  14.566   6.027  -5.748
 3314POPC   C1B51701  14.575   5.828  -6.349
 3314POPC   C2B51702  14.510   5.875  -6.165
 3314POPC   C3B51703  14.446   5.921  -5.981
 3314POPC   C4B51704  14.381   5.968  -5.798
 3315POPC   NC351705  24.055  10.521  -1.092
 3315POPC   PO451706  23.897  10.514  -0.970
 3315POPC   GL151707  23.739  10.507  -0.848
 3315POPC   GL251708  23.679  10.492  -0.926
 3315POPC   C1A51709  23.581  10.501  -0.725
 3315POPC   D2A51710  23.423  10.494  -0.603
 3315POPC   C3A51711  23.265  10.488  -0.480
 3315POPC   C4A51712  23.107  10.481  -0.358
 3315POPC   C1B51713  23.605  10.303  -0.704
 3315POPC   C2B51714  23.447  10.297  -0.582
 3315POPC   C3B51715  23.289  10.290  -0.460
 3315POPC   C4B51716  23.131  10.284  -0.337
 3316POPC   NC351717   8.625   8.024  -7.946
 3316POPC   PO451718   8.637   8.048  -7.748
 3316POPC   GL151719   8.649   8.072  -7.550
 3316POPC   GL251720   8.749   8.067  -7.555
 3316POPC   C1A51721   8.662   8.096  -7.352
 3316POPC   D2A51722   8.674   8.119  -7.153
 3316POPC   C3A51723   8.687   8.143  -6.955
 3316POPC   C4A51724   8.699   8.167  -6.757
 3316POPC   C1B51725   8.670   8.294  -7.376
 3316POPC   C2B51726   8.683   8.318  -7.178
 3316POPC   C3B51727   8.695   8.342  -6.980
 3316POPC   C4B51728   8.708   8.365  -6.781
 3317POPC   NC351729   4.409  -6.919  13.171
 3317POPC   PO451730   4.470  -6.732  13.136
 3317POPC   GL151731   4.531  -6.545  13.101
 3317POPC   GL251732   4.565  -6.573  13.012
 3317POPC   C1A51733   4.592  -6.358  13.067
 3317POPC   D2A51734   4.653  -6.170  13.032
 3317POPC   C3A51735   4.714  -5.983  12.998
 3317POPC   C4A51736   4.775  -5.796  12.963
 3317POPC   C1B51737   4.414  -6.315  12.986
 3317POPC   C2B51738   4.475  -6.127  12.951
 3317POPC   C3B51739   4.536  -5.940  12.917
 3317POPC   C4B51740   4.597  -5.753  12.882
 3318POPC   NC351741  24.312  12.114  20.583
 3318POPC   PO451742  24.154  12.091  20.462
 3318POPC   GL151743  23.996  12.068  20.341
 3318POPC   GL251744  24.028  12.145  20.286
 3318POPC   C1A51745  23.838  12.045  20.221
 3318POPC   D2A51746  23.681  12.022  20.100
 3318POPC   C3A51747  23.523  11.999  19.980
 3318POPC   C4A51748  23.365  11.976  19.859
 3318POPC   C1B51749  23.944  11.919  20.107
 3318POPC   C2B51750  23.786  11.896  19.986
 3318POPC   C3B51751  23.628  11.873  19.866
 3318POPC   C4B51752  23.470  11.850  19.745
 3319POPC   NC351753  -2.818  16.417  21.066
 3319POPC   PO451754  -2.682  16.344  20.939
 3319POPC   GL151755  -2.546  16.271  20.812
 3319POPC   GL251756  -2.489  16.352  20.826
 3319POPC   C1A51757  -2.410  16.198  20.685
 3319POPC   D2A51758  -2.273  16.124  20.559
 3319POPC   C3A51759  -2.137  16.051  20.432
 3319POPC   C4A51760  -2.001  15.978  20.305
 3319POPC   C1B51761  -2.316  16.107  20.838
 3319POPC   C2B51762  -2.180  16.034  20.711
 3319POPC   C3B51763  -2.044  15.961  20.584
 3319POPC   C4B51764  -1.908  15.888  20.457
 3320POPC   NC351765   6.180  -0.447  -4.368
 3320POPC   PO451766   6.224  -0.327  -4.214
 3320POPC   GL151767   6.268  -0.207  -4.060
 3320POPC   GL251768   6.306  -0.285  -4.010
 3320POPC   C1A51769   6.312  -0.087  -3.906
 3320POPC   D2A51770   6.355   0.032  -3.752
 3320POPC   C3A51771   6.399   0.152  -3.598
 3320POPC   C4A51772   6.443   0.272  -3.444
 3320POPC   C1B51773   6.491  -0.050  -3.986
 3320POPC   C2B51774   6.535   0.070  -3.832
 3320POPC   C3B51775   6.579   0.190  -3.678
 3320POPC   C4B51776   6.622   0.309  -3.524
 3321POPC   NC351777  19.155  19.541  22.118
 3321POPC   PO451778  19.049  19.441  21.981
 3321POPC   GL151779  18.943  19.341  21.844
 3321POPC   GL251780  19.024  19.334  21.786
 3321POPC   C1A51781  18.836  19.241  21.707
 3321POPC   D2A51782  18.730  19.141  21.571
 3321POPC   C3A51783  18.623  19.041  21.434
 3321POPC   C4A51784  18.517  18.941  21.297
 3321POPC   C1B51785  18.885  19.068  21.796
 3321POPC   C2B51786  18.778  18.968  21.659
 3321POPC   C3B51787  18.672  18.868  21.522
 3321POPC   C4B51788  18.566  18.768  21.386
 3322POPC   NC351789  18.566  25.377   6.467
 3322POPC   PO451790  18.472  25.204   6.500
 3322POPC   GL151791  18.378  25.031   6.533
 3322POPC   GL251792  18.444  24.984   6.474
 3322POPC   C1A51793  18.284  24.857   6.567
 3322POPC   D2A51794  18.191  24.684   6.600
 3322POPC   C3A51795  18.097  24.510   6.634
 3322POPC   C4A51796  18.003  24.337   6.667
 3322POPC   C1B51797  18.403  24.823   6.724
 3322POPC   C2B51798  18.309  24.650   6.758
 3322POPC   C3B51799  18.215  24.477   6.791
 3322POPC   C4B51800  18.122  24.303   6.824
 3323POPC   NC351801  23.584  11.334  -1.620
 3323POPC   PO451802  23.430  11.320  -1.494
 3323POPC   GL151803  23.276  11.306  -1.368
 3323POPC   GL251804  23.229  11.245  -1.431
 3323POPC   C1A51805  23.121  11.292  -1.241
 3323POPC   D2A51806  22.967  11.279  -1.115
 3323POPC   C3A51807  22.812  11.265  -0.988
 3323POPC   C4A51808  22.658  11.251  -0.862
 3323POPC   C1B51809  23.207  11.135  -1.153
 3323POPC   C2B51810  23.053  11.121  -1.026
 3323POPC   C3B51811  22.899  11.107  -0.900
 3323POPC   C4B51812  22.744  11.094  -0.774
 3324POPC   NC351813   5.143  -4.792  19.215
 3324POPC   PO451814   5.195  -4.629  19.111
 3324POPC   GL151815   5.247  -4.466  19.007
 3324POPC   GL251816   5.293  -4.429  19.088
 3324POPC   C1A51817   5.300  -4.304  18.903
 3324POPC   D2A51818   5.352  -4.141  18.799
 3324POPC   C3A51819   5.405  -3.979  18.695
 3324POPC   C4A51820   5.457  -3.816  18.591
 3324POPC   C1B51821   5.470  -4.393  18.849
 3324POPC   C2B51822   5.523  -4.231  18.745
 3324POPC   C3B51823   5.575  -4.068  18.641
 3324POPC   C4B51824   5.627  -3.905  18.537
 3325POPC   NC351825  17.172   1.876  -4.510
 3325POPC   PO451826  17.088   1.962  -4.350
 3325POPC   GL151827  17.004   2.048  -4.190
 3325POPC   GL251828  16.916   2.050  -4.238
 3325POPC   C1A51829  16.920   2.134  -4.030
 3325POPC   D2A51830  16.835   2.219  -3.871
 3325POPC   C3A51831  16.751   2.305  -3.711
 3325POPC   C4A51832  16.667   2.391  -3.551
 3325POPC   C1B51833  16.875   1.953  -3.957
 3325POPC   C2B51834  16.791   2.039  -3.797
 3325POPC   C3B51835  16.707   2.125  -3.637
 3325POPC   C4B51836  16.622   2.210  -3.478
 3326POPC   NC351837   4.375   5.233  26.465
 3326POPC   PO451838   4.428   5.288  26.280
 3326POPC   GL151839   4.481   5.343  26.095
 3326POPC   GL251840   4.492   5.437  26.126
 3326POPC   C1A51841   4.533   5.398  25.910
 3326POPC   D2A51842   4.586   5.454  25.725
 3326POPC   C3A51843   4.638   5.509  25.540
 3326POPC   C4A51844   4.691   5.564  25.355
 3326POPC   C1B51845   4.725   5.360  25.953
 3326POPC   C2B51846   4.777   5.415  25.768
 3326POPC   C3B51847   4.830   5.471  25.583
 3326POPC   C4B51848   4.883   5.526  25.398
 3327POPC   NC351849   8.789   3.380  -6.794
 3327POPC   PO451850   8.798   3.451  -6.607
 3327POPC   GL151851   8.807   3.522  -6.420
 3327POPC   GL251852   8.903   3.544  -6.433
 3327POPC   C1A51853   8.815   3.593  -6.233
 3327POPC   D2A51854   8.824   3.664  -6.047
 3327POPC   C3A51855   8.832   3.735  -5.860
 3327POPC   C4A51856   8.841   3.806  -5.673
 3327POPC   C1B51857   8.765   3.775  -6.300
 3327POPC   C2B51858   8.774   3.846  -6.113
 3327POPC   C3B51859   8.783   3.917  -5.927
 3327POPC   C4B51860   8.791   3.988  -5.740
 3328POPC   NC351861  13.863   0.991  -5.204
 3328POPC   PO451862  13.823   1.093  -5.037
 3328POPC   GL151863  13.783   1.195  -4.870
 3328POPC   GL251864  13.880   1.193  -4.845
 3328POPC   C1A51865  13.744   1.297  -4.702
 3328POPC   D2A51866  13.704   1.399  -4.535
 3328POPC   C3A51867  13.665   1.501  -4.367
 3328POPC   C4A51868  13.625   1.603  -4.200
 3328POPC   C1B51869  13.772   1.469  -4.800
 3328POPC   C2B51870  13.732   1.571  -4.633
 3328POPC   C3B51871  13.693   1.673  -4.465
 3328POPC   C4B51872  13.653   1.775  -4.298
 3329POPC   NC351873   7.808   0.627  25.211
 3329POPC   PO451874   7.830   0.726  25.039
 3329POPC   GL151875   7.852   0.825  24.867
 3329POPC   GL251876   7.907   0.894  24.914
 3329POPC   C1A51877   7.875   0.924  24.694
 3329POPC   D2A51878   7.897   1.023  24.522
 3329POPC   C3A51879   7.920   1.122  24.349
 3329POPC   C4A51880   7.942   1.221  24.177
 3329POPC   C1B51881   8.041   0.820  24.656
 3329POPC   C2B51882   8.063   0.919  24.483
 3329POPC   C3B51883   8.086   1.018  24.311
 3329POPC   C4B51884   8.108   1.117  24.139
 3330POPC   NC351885  26.340   7.221   3.057
 3330POPC   PO451886  26.157   7.250   3.133
 3330POPC   GL151887  25.974   7.279   3.209
 3330POPC   GL251888  25.947   7.188   3.178
 3330POPC   C1A51889  25.792   7.308   3.286
 3330POPC   D2A51890  25.609   7.338   3.362
 3330POPC   C3A51891  25.427   7.367   3.439
 3330POPC   C4A51892  25.244   7.396   3.515
 3330POPC   C1B51893  25.852   7.231   3.460
 3330POPC   C2B51894  25.670   7.260   3.536
 3330POPC   C3B51895  25.487   7.289   3.613
 3330POPC   C4B51896  25.304   7.318   3.689
 3331POPC   NC351897  24.703   0.326   6.517
 3331POPC   PO451898  24.538   0.433   6.553
 3331POPC   GL151899  24.373   0.540   6.589
 3331POPC   GL251900  24.395   0.600   6.512
 3331POPC   C1A51901  24.208   0.647   6.625
 3331POPC   D2A51902  24.043   0.755   6.661
 3331POPC   C3A51903  23.878   0.862   6.697
 3331POPC   C4A51904  23.713   0.969   6.733
 3331POPC   C1B51905  24.104   0.529   6.502
 3331POPC   C2B51906  23.939   0.636   6.538
 3331POPC   C3B51907  23.774   0.743   6.574
 3331POPC   C4B51908  23.609   0.851   6.610
 3332POPC   NC351909  25.404  10.588  19.127
 3332POPC   PO451910  25.232  10.585  19.025
 3332POPC   GL151911  25.060  10.582  18.923
 3332POPC   GL251912  25.095  10.508  18.866
 3332POPC   C1A51913  24.888  10.579  18.822
 3332POPC   D2A51914  24.715  10.575  18.720
 3332POPC   C3A51915  24.543  10.572  18.619
 3332POPC   C4A51916  24.371  10.569  18.517
 3332POPC   C1B51917  24.814  10.444  18.950
 3332POPC   C2B51918  24.642  10.441  18.849
 3332POPC   C3B51919  24.470  10.438  18.747
 3332POPC   C4B51920  24.298  10.434  18.645
 3333POPC   NC351921  14.760  10.897  -7.438
 3333POPC   PO451922  14.704  10.886  -7.246
 3333POPC   GL151923  14.648  10.875  -7.054
 3333POPC   GL251924  14.572  10.814  -7.080
 3333POPC   C1A51925  14.591  10.863  -6.863
 3333POPC   D2A51926  14.535  10.852  -6.671
 3333POPC   C3A51927  14.478  10.840  -6.480
 3333POPC   C4A51928  14.422  10.829  -6.288
 3333POPC   C1B51929  14.710  10.704  -6.838
 3333POPC   C2B51930  14.653  10.693  -6.646
 3333POPC   C3B51931  14.597  10.681  -6.454
 3333POPC   C4B51932  14.540  10.670  -6.263
 3334POPC   NC351933   5.161  20.032  -4.373
 3334POPC   PO451934   5.211  19.921  -4.215
 3334POPC   GL151935   5.261  19.810  -4.057
 3334POPC   GL251936   5.351  19.792  -4.098
 3334POPC   C1A51937   5.312  19.699  -3.898
 3334POPC   D2A51938   5.362  19.587  -3.740
 3334POPC   C3A51939   5.413  19.476  -3.581
 3334POPC   C4A51940   5.463  19.365  -3.423
 3334POPC   C1B51941   5.386  19.861  -3.808
 3334POPC   C2B51942   5.436  19.750  -3.649
 3334POPC   C3B51943   5.487  19.639  -3.491
 3334POPC   C4B51944   5.537  19.527  -3.333
 3335POPC   NC351945  -6.310   2.225   8.306
 3335POPC   PO451946  -6.129   2.308   8.327
 3335POPC   GL151947  -5.948   2.391   8.348
 3335POPC   GL251948  -5.990   2.468   8.397
 3335POPC   C1A51949  -5.768   2.475   8.369
 3335POPC   D2A51950  -5.587   2.558   8.390
 3335POPC   C3A51951  -5.407   2.642   8.411
 3335POPC   C4A51952  -5.226   2.725   8.432
 3335POPC   C1B51953  -5.743   2.378   8.542
 3335POPC   C2B51954  -5.563   2.462   8.563
 3335POPC   C3B51955  -5.382   2.545   8.584
 3335POPC   C4B51956  -5.202   2.629   8.605
 3336POPC   NC351957  26.891  10.810   4.033
 3336POPC   PO451958  26.702  10.802   4.097
 3336POPC   GL151959  26.513  10.794   4.161
 3336POPC   GL251960  26.502  10.704   4.120
 3336POPC   C1A51961  26.323  10.787   4.224
 3336POPC   D2A51962  26.134  10.779   4.288
 3336POPC   C3A51963  25.944  10.772   4.351
 3336POPC   C4A51964  25.755  10.764   4.415
 3336POPC   C1B51965  26.384  10.703   4.395
 3336POPC   C2B51966  26.195  10.695   4.459
 3336POPC   C3B51967  26.005  10.688   4.522
 3336POPC   C4B51968  25.816  10.680   4.586
 3337POPC   NC351969  20.688  22.372  17.119
 3337POPC   PO451970  20.567  22.232  17.042
 3337POPC   GL151971  20.446  22.092  16.965
 3337POPC   GL251972  20.418  22.156  16.894
 3337POPC   C1A51973  20.325  21.953  16.889
 3337POPC   D2A51974  20.204  21.813  16.812
 3337POPC   C3A51975  20.083  21.674  16.736
 3337POPC   C4A51976  19.962  21.534  16.659
 3337POPC   C1B51977  20.474  21.888  16.772
 3337POPC   C2B51978  20.353  21.748  16.696
 3337POPC   C3B51979  20.232  21.609  16.619
 3337POPC   C4B51980  20.111  21.469  16.542
 3338POPC   NC351981  -4.601  20.616   7.477
 3338POPC   PO451982  -4.442  20.498   7.504
 3338POPC   GL151983  -4.283  20.380   7.531
 3338POPC   GL251984  -4.333  20.328   7.600
 3338POPC   C1A51985  -4.124  20.262   7.557
 3338POPC   D2A51986  -3.964  20.143   7.584
 3338POPC   C3A51987  -3.805  20.025   7.610
 3338POPC   C4A51988  -3.646  19.907   7.637
 3338POPC   C1B51989  -4.191  20.139   7.415
 3338POPC   C2B51990  -4.032  20.020   7.441
 3338POPC   C3B51991  -3.873  19.902   7.468
 3338POPC   C4B51992  -3.713  19.784   7.495
 3339POPC   NC351993  -0.515  24.590  12.479
 3339POPC   PO451994  -0.403  24.426  12.451
 3339POPC   GL151995  -0.291  24.262  12.423
 3339POPC   GL251996  -0.213  24.320  12.398
 3339POPC   C1A51997  -0.180  24.099  12.395
 3339POPC   D2A51998  -0.068  23.935  12.368
 3339POPC   C3A51999   0.043  23.772  12.340
 3339POPC   C4A52000   0.155  23.608  12.312
 3339POPC   C1B52001  -0.123  24.105  12.587
 3339POPC   C2B52002  -0.011  23.942  12.559
 3339POPC   C3B52003   0.101  23.778  12.531
 3339POPC   C4B52004   0.212  23.615  12.504
 3340POPC   NC352005  17.565  -4.093   1.681
 3340POPC   PO452006  17.478  -3.935   1.768
 3340POPC   GL152007  17.391  -3.777   1.855
 3340POPC   GL252008  17.464  -3.718   1.821
 3340POPC   C1A52009  17.304  -3.620   1.942
 3340POPC   D2A52010  17.217  -3.462   2.029
 3340POPC   C3A52011  17.130  -3.305   2.116
 3340POPC   C4A52012  17.043  -3.147   2.203
 3340POPC   C1B52013  17.200  -3.585   1.775
 3340POPC   C2B52014  17.113  -3.428   1.862
 3340POPC   C3B52015  17.026  -3.270   1.949
 3340POPC   C4B52016  16.939  -3.112   2.036
 3341POPC   NC352017   0.395  21.660  -0.080
 3341POPC   PO452018   0.500  21.527   0.026
 3341POPC   GL152019   0.605  21.394   0.132
 3341POPC   GL252020   0.535  21.395   0.203
 3341POPC   C1A52021   0.710  21.260   0.238
 3341POPC   D2A52022   0.814  21.127   0.343
 3341POPC   C3A52023   0.919  20.993   0.449
 3341POPC   C4A52024   1.024  20.860   0.555
 3341POPC   C1B52025   0.613  21.111   0.145
 3341POPC   C2B52026   0.718  20.978   0.251
 3341POPC   C3B52027   0.823  20.844   0.357
 3341POPC   C4B52028   0.928  20.711   0.463
 3342POPC   NC352029  12.841  25.209   0.720
 3342POPC   PO452030  12.807  25.039   0.819
 3342POPC   GL152031  12.773  24.869   0.918
 3342POPC   GL252032  12.860  24.832   0.884
 3342POPC   C1A52033  12.740  24.698   1.017
 3342POPC   D2A52034  12.706  24.528   1.116
 3342POPC   C3A52035  12.673  24.357   1.215
 3342POPC   C4A52036  12.639  24.187   1.314
 3342POPC   C1B52037  12.834  24.772   1.177
 3342POPC   C2B52038  12.801  24.602   1.276
 3342POPC   C3B52039  12.767  24.432   1.375
 3342POPC   C4B52040  12.733  24.261   1.474
 3343POPC   NC352041  10.006  -1.349  -4.130
 3343POPC   PO452042  10.001  -1.225  -3.974
 3343POPC   GL152043   9.996  -1.101  -3.818
 3343POPC   GL252044  10.085  -1.134  -3.788
 3343POPC   C1A52045   9.991  -0.976  -3.661
 3343POPC   D2A52046   9.986  -0.852  -3.505
 3343POPC   C3A52047   9.981  -0.727  -3.348
 3343POPC   C4A52048   9.976  -0.603  -3.192
 3343POPC   C1B52049  10.081  -0.835  -3.771
 3343POPC   C2B52050  10.076  -0.711  -3.614
 3343POPC   C3B52051  10.071  -0.586  -3.458
 3343POPC   C4B52052  10.066  -0.462  -3.301
 3344POPC   NC352053  16.658   1.831  -4.745
 3344POPC   PO452054  16.580   1.918  -4.583
 3344POPC   GL152055  16.502   2.005  -4.421
 3344POPC   GL252056  16.440   2.058  -4.479
 3344POPC   C1A52057  16.424   2.092  -4.258
 3344POPC   D2A52058  16.347   2.180  -4.096
 3344POPC   C3A52059  16.269   2.267  -3.933
 3344POPC   C4A52060  16.191   2.354  -3.771
 3344POPC   C1B52061  16.289   1.946  -4.245
 3344POPC   C2B52062  16.211   2.033  -4.082
 3344POPC   C3B52063  16.133   2.121  -3.920
 3344POPC   C4B52064  16.055   2.208  -3.758
 3345POPC   NC352065  22.331  -1.422   3.529
 3345POPC   PO452066  22.192  -1.296   3.599
 3345POPC   GL152067  22.053  -1.170   3.669
 3345POPC   GL252068  22.114  -1.093   3.651
 3345POPC   C1A52069  21.914  -1.044   3.739
 3345POPC   D2A52070  21.776  -0.919   3.809
 3345POPC   C3A52071  21.637  -0.793   3.879
 3345POPC   C4A52072  21.498  -0.667   3.949
 3345POPC   C1B52073  21.837  -1.027   3.555
 3345POPC   C2B52074  21.698  -0.902   3.625
 3345POPC   C3B52075  21.560  -0.776   3.695
 3345POPC   C4B52076  21.421  -0.650   3.765
 3346POPC   NC352077  21.565   2.263  -1.342
 3346POPC   PO452078  21.436   2.349  -1.216
 3346POPC   GL152079  21.307   2.435  -1.090
 3346POPC   GL252080  21.351   2.523  -1.105
 3346POPC   C1A52081  21.177   2.521  -0.964
 3346POPC   D2A52082  21.048   2.607  -0.838
 3346POPC   C3A52083  20.918   2.693  -0.712
 3346POPC   C4A52084  20.789   2.779  -0.586
 3346POPC   C1B52085  21.054   2.558  -1.117
 3346POPC   C2B52086  20.924   2.644  -0.991
 3346POPC   C3B52087  20.795   2.730  -0.865
 3346POPC   C4B52088  20.665   2.816  -0.739
 3347POPC   NC352089   6.412  25.234  19.004
 3347POPC   PO452090   6.450  25.065  18.904
 3347POPC   GL152091   6.488  24.896  18.804
 3347POPC   GL252092   6.584  24.923  18.795
 3347POPC   C1A52093   6.526  24.727  18.704
 3347POPC   D2A52094   6.563  24.558  18.604
 3347POPC   C3A52095   6.601  24.389  18.504
 3347POPC   C4A52096   6.639  24.220  18.404
 3347POPC   C1B52097   6.567  24.634  18.876
 3347POPC   C2B52098   6.605  24.465  18.776
 3347POPC   C3B52099   6.643  24.296  18.676
 3347POPC   C4B52100   6.681  24.127  18.576
 3348POPC   NC352101   3.606   0.006  23.698
 3348POPC   PO452102   3.675   0.116  23.546
 3348POPC   GL152103   3.744   0.226  23.394
 3348POPC   GL252104   3.778   0.295  23.459
 3348POPC   C1A52105   3.814   0.337  23.243
 3348POPC   D2A52106   3.883   0.447  23.091
 3348POPC   C3A52107   3.953   0.558  22.940
 3348POPC   C4A52108   4.022   0.668  22.788
 3348POPC   C1B52109   3.989   0.241  23.253
 3348POPC   C2B52110   4.059   0.352  23.102
 3348POPC   C3B52111   4.128   0.462  22.950
 3348POPC   C4B52112   4.197   0.572  22.799
 3349POPC   NC352113  -5.316  19.226  13.175
 3349POPC   PO452114  -5.149  19.122  13.139
 3349POPC   GL152115  -4.982  19.018  13.103
 3349POPC   GL252116  -4.977  18.992  13.199
 3349POPC   C1A52117  -4.815  18.915  13.067
 3349POPC   D2A52118  -4.647  18.811  13.030
 3349POPC   C3A52119  -4.480  18.708  12.994
 3349POPC   C4A52120  -4.313  18.604  12.958
 3349POPC   C1B52121  -4.924  18.752  13.026
 3349POPC   C2B52122  -4.757  18.649  12.990
 3349POPC   C3B52123  -4.590  18.545  12.954
 3349POPC   C4B52124  -4.422  18.441  12.918
 3350POPC   NC352125  16.230  26.827   9.622
 3350POPC   PO452126  16.154  26.642   9.627
 3350POPC   GL152127  16.078  26.457   9.632
 3350POPC   GL252128  16.139  26.430   9.558
 3350POPC   C1A52129  16.002  26.272   9.637
 3350POPC   D2A52130  15.927  26.087   9.642
 3350POPC   C3A52131  15.851  25.902   9.647
 3350POPC   C4A52132  15.775  25.717   9.652
 3350POPC   C1B52133  16.141  26.219   9.771
 3350POPC   C2B52134  16.065  26.034   9.776
 3350POPC   C3B52135  15.990  25.849   9.781
 3350POPC   C4B52136  15.914  25.664   9.786
 3351POPC   NC352137   2.792   9.525  26.562
 3351POPC   PO452138   2.865   9.524  26.376
 3351POPC   GL152139   2.938   9.523  26.190
 3351POPC   GL252140   2.999   9.448  26.214
 3351POPC   C1A52141   3.011   9.522  26.004
 3351POPC   D2A52142   3.083   9.522  25.817
 3351POPC   C3A52143   3.156   9.521  25.631
 3351POPC   C4A52144   3.229   9.520  25.445
 3351POPC   C1B52145   2.871   9.390  25.950
 3351POPC   C2B52146   2.944   9.389  25.763
 3351POPC   C3B52147   3.017   9.388  25.577
 3351POPC   C4B52148   3.089   9.387  25.391
 3352POPC   NC352149  17.646  25.913  13.421
 3352POPC   PO452150  17.562  25.734  13.391
 3352POPC   GL152151  17.478  25.555  13.361
 3352POPC   GL252152  17.561  25.524  13.315
 3352POPC   C1A52153  17.395  25.376  13.331
 3352POPC   D2A52154  17.311  25.196  13.301
 3352POPC   C3A52155  17.228  25.017  13.271
 3352POPC   C4A52156  17.144  24.838  13.241
 3352POPC   C1B52157  17.468  25.312  13.506
 3352POPC   C2B52158  17.385  25.133  13.476
 3352POPC   C3B52159  17.301  24.954  13.446
 3352POPC   C4B52160  17.217  24.774  13.416
 3353POPC   NC352161   1.820  24.521  16.933
 3353POPC   PO452162   1.910  24.359  16.858
 3353POPC   GL152163   2.000  24.197  16.783
 3353POPC   GL252164   2.081  24.252  16.763
 3353POPC   C1A52165   2.090  24.035  16.708
 3353POPC   D2A52166   2.181  23.873  16.634
 3353POPC   C3A52167   2.271  23.711  16.559
 3353POPC   C4A52168   2.361  23.549  16.484
 3353POPC   C1B52169   2.165  23.993  16.889
 3353POPC   C2B52170   2.255  23.831  16.814
 3353POPC   C3B52171   2.345  23.669  16.740
 3353POPC   C4B52172   2.435  23.507  16.665
 3354POPC   NC352173  11.693   0.184  24.987
 3354POPC   PO452174  11.674   0.294  24.821
 3354POPC   GL152175  11.655   0.404  24.655
 3354POPC   GL252176  11.708   0.477  24.697
 3354POPC   C1A52177  11.635   0.514  24.489
 3354POPC   D2A52178  11.616   0.623  24.323
 3354POPC   C3A52179  11.596   0.733  24.157
 3354POPC   C4A52180  11.577   0.843  23.991
 3354POPC   C1B52181  11.803   0.433  24.416
 3354POPC   C2B52182  11.784   0.543  24.250
 3354POPC   C3B52183  11.764   0.653  24.084
 3354POPC   C4B52184  11.745   0.763  23.918
 3355POPC   NC352185  -2.107  13.568  22.919
 3355POPC   PO452186  -1.979  13.526  22.772
 3355POPC   GL152187  -1.851  13.484  22.625
 3355POPC   GL252188  -1.774  13.505  22.685
 3355POPC   C1A52189  -1.722  13.442  22.477
 3355POPC   D2A52190  -1.594  13.399  22.330
 3355POPC   C3A52191  -1.465  13.357  22.182
 3355POPC   C4A52192  -1.337  13.315  22.035
 3355POPC   C1B52193  -1.716  13.251  22.537
 3355POPC   C2B52194  -1.588  13.209  22.390
 3355POPC   C3B52195  -1.460  13.166  22.242
 3355POPC   C4B52196  -1.331  13.124  22.095
 3356POPC   NC352197   9.075  26.043  18.196
 3356POPC   PO452198   9.085  25.865  18.106
 3356POPC   GL152199   9.095  25.687  18.016
 3356POPC   GL252200   9.154  25.653  18.089
 3356POPC   C1A52201   9.105  25.508  17.926
 3356POPC   D2A52202   9.115  25.330  17.837
 3356POPC   C3A52203   9.125  25.151  17.747
 3356POPC   C4A52204   9.135  24.973  17.657
 3356POPC   C1B52205   8.944  25.448  18.029
 3356POPC   C2B52206   8.954  25.269  17.939
 3356POPC   C3B52207   8.964  25.091  17.849
 3356POPC   C4B52208   8.974  24.912  17.760
 3357POPC   NC352209  13.728  20.275  -4.387
 3357POPC   PO452210  13.688  20.163  -4.226
 3357POPC   GL152211  13.648  20.051  -4.065
 3357POPC   GL252212  13.723  20.096  -4.016
 3357POPC   C1A52213  13.608  19.939  -3.904
 3357POPC   D2A52214  13.569  19.828  -3.743
 3357POPC   C3A52215  13.529  19.716  -3.582
 3357POPC   C4A52216  13.489  19.604  -3.421
 3357POPC   C1B52217  13.481  20.079  -3.839
 3357POPC   C2B52218  13.441  19.967  -3.678
 3357POPC   C3B52219  13.401  19.855  -3.517
 3357POPC   C4B52220  13.361  19.743  -3.356
 3358POPC   NC352221  17.081   4.784  -5.731
 3358POPC   PO452222  17.001   4.836  -5.555
 3358POPC   GL152223  16.921   4.888  -5.379
 3358POPC   GL252224  17.006   4.935  -5.354
 3358POPC   C1A52225  16.841   4.940  -5.204
 3358POPC   D2A52226  16.760   4.992  -5.028
 3358POPC   C3A52227  16.680   5.044  -4.853
 3358POPC   C4A52228  16.600   5.096  -4.677
 3358POPC   C1B52229  16.772   5.109  -5.285
 3358POPC   C2B52230  16.691   5.161  -5.110
 3358POPC   C3B52231  16.611   5.213  -4.934
 3358POPC   C4B52232  16.531   5.265  -4.759
 3359POPC   NC352233  16.446  26.480  13.084
 3359POPC   PO452234  16.370  26.298  13.053
 3359POPC   GL152235  16.294  26.116  13.022
 3359POPC   GL252236  16.366  26.076  13.079
 3359POPC   C1A52237  16.217  25.934  12.991
 3359POPC   D2A52238  16.141  25.751  12.959
 3359POPC   C3A52239  16.064  25.569  12.928
 3359POPC   C4A52240  15.988  25.387  12.897
 3359POPC   C1B52241  16.101  25.954  13.152
 3359POPC   C2B52242  16.025  25.772  13.121
 3359POPC   C3B52243  15.949  25.590  13.090
 3359POPC   C4B52244  15.872  25.408  13.059
 3360POPC   NC352245  -4.059   0.447  16.326
 3360POPC   PO452246  -3.903   0.552  16.258
 3360POPC   GL152247  -3.747   0.657  16.190
 3360POPC   GL252248  -3.751   0.715  16.271
 3360POPC   C1A52249  -3.591   0.763  16.122
 3360POPC   D2A52250  -3.436   0.868  16.053
 3360POPC   C3A52251  -3.280   0.974  15.985
 3360POPC   C4A52252  -3.124   1.079  15.917
 3360POPC   C1B52253  -3.466   0.638  16.216
 3360POPC   C2B52254  -3.310   0.744  16.147
 3360POPC   C3B52255  -3.155   0.849  16.079
 3360POPC   C4B52256  -2.999   0.955  16.011
 3361POPC   NC352257  -3.394   8.401  -2.149
 3361POPC   PO452258  -3.246   8.416  -2.015
 3361POPC   GL152259  -3.098   8.431  -1.881
 3361POPC   GL252260  -3.141   8.512  -1.843
 3361POPC   C1A52261  -2.950   8.445  -1.748
 3361POPC   D2A52262  -2.801   8.460  -1.614
 3361POPC   C3A52263  -2.653   8.474  -1.481
 3361POPC   C4A52264  -2.505   8.489  -1.347
 3361POPC   C1B52265  -3.053   8.331  -1.620
 3361POPC   C2B52266  -2.905   8.345  -1.487
 3361POPC   C3B52267  -2.757   8.360  -1.353
 3361POPC   C4B52268  -2.609   8.375  -1.220
 3362POPC   NC352269  14.236  21.735  -3.127
 3362POPC   PO452270  14.191  21.607  -2.980
 3362POPC   GL152271  14.146  21.479  -2.833
 3362POPC   GL252272  14.186  21.404  -2.886
 3362POPC   C1A52273  14.101  21.351  -2.686
 3362POPC   D2A52274  14.056  21.223  -2.539
 3362POPC   C3A52275  14.011  21.095  -2.392
 3362POPC   C4A52276  13.966  20.967  -2.245
 3362POPC   C1B52277  14.279  21.386  -2.601
 3362POPC   C2B52278  14.234  21.258  -2.454
 3362POPC   C3B52279  14.189  21.130  -2.307
 3362POPC   C4B52280  14.144  21.002  -2.160
 3363POPC   NC352281  12.082  -4.092  20.904
 3363POPC   PO452282  12.054  -3.940  20.777
 3363POPC   GL152283  12.026  -3.788  20.650
 3363POPC   GL252284  12.124  -3.787  20.630
 3363POPC   C1A52285  11.998  -3.636  20.523
 3363POPC   D2A52286  11.971  -3.485  20.396
 3363POPC   C3A52287  11.943  -3.333  20.269
 3363POPC   C4A52288  11.915  -3.181  20.142
 3363POPC   C1B52289  11.969  -3.766  20.374
 3363POPC   C2B52290  11.941  -3.615  20.247
 3363POPC   C3B52291  11.913  -3.463  20.120
 3363POPC   C4B52292  11.886  -3.311  19.993
 3364POPC   NC352293   8.688  27.747  13.014
 3364POPC   PO452294   8.696  27.550  12.982
 3364POPC   GL152295   8.704  27.353  12.950
 3364POPC   GL252296   8.741  27.339  13.042
 3364POPC   C1A52297   8.712  27.156  12.918
 3364POPC   D2A52298   8.721  26.958  12.886
 3364POPC   C3A52299   8.729  26.761  12.854
 3364POPC   C4A52300   8.737  26.564  12.822
 3364POPC   C1B52301   8.527  27.136  12.990
 3364POPC   C2B52302   8.535  26.939  12.958
 3364POPC   C3B52303   8.543  26.742  12.926
 3364POPC   C4B52304   8.551  26.545  12.894
 3365POPC   NC352305  16.557  24.150   0.986
 3365POPC   PO452306  16.481  23.993   1.084
 3365POPC   GL152307  16.405  23.836   1.182
 3365POPC   GL252308  16.347  23.815   1.103
 3365POPC   C1A52309  16.328  23.680   1.280
 3365POPC   D2A52310  16.252  23.523   1.379
 3365POPC   C3A52311  16.175  23.367   1.477
 3365POPC   C4A52312  16.099  23.210   1.575
 3365POPC   C1B52313  16.473  23.563   1.207
 3365POPC   C2B52314  16.396  23.406   1.305
 3365POPC   C3B52315  16.320  23.250   1.403
 3365POPC   C4B52316  16.244  23.093   1.501
 3366POPC   NC352317  21.161  -3.076  15.169
 3366POPC   PO452318  21.037  -2.930  15.110
 3366POPC   GL152319  20.913  -2.784  15.051
 3366POPC   GL252320  20.946  -2.795  14.957
 3366POPC   C1A52321  20.790  -2.638  14.992
 3366POPC   D2A52322  20.666  -2.493  14.934
 3366POPC   C3A52323  20.543  -2.347  14.875
 3366POPC   C4A52324  20.419  -2.201  14.816
 3366POPC   C1B52325  20.647  -2.774  14.958
 3366POPC   C2B52326  20.523  -2.628  14.899
 3366POPC   C3B52327  20.399  -2.482  14.840
 3366POPC   C4B52328  20.276  -2.336  14.782
 3367POPC   NC352329  19.578  13.297  -4.923
 3367POPC   PO452330  19.470  13.262  -4.759
 3367POPC   GL152331  19.362  13.227  -4.595
 3367POPC   GL252332  19.281  13.265  -4.640
 3367POPC   C1A52333  19.253  13.193  -4.430
 3367POPC   D2A52334  19.145  13.158  -4.266
 3367POPC   C3A52335  19.036  13.124  -4.101
 3367POPC   C4A52336  18.928  13.089  -3.937
 3367POPC   C1B52337  19.207  13.011  -4.499
 3367POPC   C2B52338  19.098  12.976  -4.335
 3367POPC   C3B52339  18.990  12.942  -4.170
 3367POPC   C4B52340  18.882  12.907  -4.006
 3368POPC   NC352341   4.210   8.569  -7.168
 3368POPC   PO452342   4.272   8.584  -6.978
 3368POPC   GL152343   4.334   8.599  -6.788
 3368POPC   GL252344   4.313   8.502  -6.774
 3368POPC   C1A52345   4.395   8.614  -6.598
 3368POPC   D2A52346   4.457   8.628  -6.409
 3368POPC   C3A52347   4.518   8.643  -6.219
 3368POPC   C4A52348   4.580   8.658  -6.029
 3368POPC   C1B52349   4.581   8.565  -6.655
 3368POPC   C2B52350   4.642   8.580  -6.465
 3368POPC   C3B52351   4.704   8.595  -6.275
 3368POPC   C4B52352   4.766   8.610  -6.085
 3369POPC   NC352353  20.834   3.690  -2.890
 3369POPC   PO452354  20.711   3.762  -2.750
 3369POPC   GL152355  20.588   3.834  -2.610
 3369POPC   GL252356  20.659   3.900  -2.582
 3369POPC   C1A52357  20.465   3.907  -2.469
 3369POPC   D2A52358  20.343   3.979  -2.329
 3369POPC   C3A52359  20.220   4.052  -2.188
 3369POPC   C4A52360  20.097   4.124  -2.048
 3369POPC   C1B52361  20.394   4.040  -2.600
 3369POPC   C2B52362  20.271   4.112  -2.460
 3369POPC   C3B52363  20.148   4.185  -2.320
 3369POPC   C4B52364  20.026   4.257  -2.179
 3370POPC   NC352365  23.688  14.108  -0.903
 3370POPC   PO452366  23.534  14.067  -0.783
 3370POPC   GL152367  23.380  14.026  -0.663
 3370POPC   GL252368  23.322  14.088  -0.716
 3370POPC   C1A52369  23.225  13.984  -0.543
 3370POPC   D2A52370  23.071  13.943  -0.423
 3370POPC   C3A52371  22.916  13.901  -0.303
 3370POPC   C4A52372  22.762  13.860  -0.183
 3370POPC   C1B52373  23.173  13.833  -0.663
 3370POPC   C2B52374  23.018  13.791  -0.543
 3370POPC   C3B52375  22.864  13.750  -0.423
 3370POPC   C4B52376  22.710  13.709  -0.303
 3371POPC   NC352377  16.845  15.611  25.625
 3371POPC   PO452378  16.766  15.546  25.453
 3371POPC   GL152379  16.687  15.481  25.281
 3371POPC   GL252380  16.698  15.572  25.241
 3371POPC   C1A52381  16.609  15.415  25.109
 3371POPC   D2A52382  16.530  15.350  24.937
 3371POPC   C3A52383  16.452  15.284  24.765
 3371POPC   C4A52384  16.373  15.219  24.593
 3371POPC   C1B52385  16.791  15.366  25.044
 3371POPC   C2B52386  16.713  15.301  24.872
 3371POPC   C3B52387  16.634  15.235  24.700
 3371POPC   C4B52388  16.556  15.170  24.528
 3372POPC   NC352389   2.814   8.443  -6.634
 3372POPC   PO452390   2.892   8.459  -6.450
 3372POPC   GL152391   2.970   8.475  -6.266
 3372POPC   GL252392   2.955   8.377  -6.252
 3372POPC   C1A52393   3.047   8.491  -6.083
 3372POPC   D2A52394   3.125   8.506  -5.899
 3372POPC   C3A52395   3.202   8.522  -5.716
 3372POPC   C4A52396   3.280   8.538  -5.532
 3372POPC   C1B52397   3.229   8.452  -6.156
 3372POPC   C2B52398   3.307   8.468  -5.973
 3372POPC   C3B52399   3.384   8.484  -5.789
 3372POPC   C4B52400   3.462   8.499  -5.606
 3373POPC   NC352401  -4.067  -0.159  15.292
 3373POPC   PO452402  -3.911  -0.049  15.232
 3373POPC   GL152403  -3.755   0.061  15.172
 3373POPC   GL252404  -3.777   0.130  15.241
 3373POPC   C1A52405  -3.599   0.171  15.113
 3373POPC   D2A52406  -3.442   0.280  15.053
 3373POPC   C3A52407  -3.286   0.390  14.994
 3373POPC   C4A52408  -3.130   0.500  14.934
 3373POPC   C1B52409  -3.482   0.076  15.245
 3373POPC   C2B52410  -3.326   0.186  15.185
 3373POPC   C3B52411  -3.169   0.296  15.125
 3373POPC   C4B52412  -3.013   0.405  15.066
 3374POPC   NC352413  26.601   4.072  13.179
 3374POPC   PO452414  26.415   4.137  13.143
 3374POPC   GL152415  26.229   4.202  13.107
 3374POPC   GL252416  26.265   4.291  13.081
 3374POPC   C1A52417  26.043   4.267  13.071
 3374POPC   D2A52418  25.858   4.331  13.036
 3374POPC   C3A52419  25.672   4.396  13.000
 3374POPC   C4A52420  25.486   4.461  12.964
 3374POPC   C1B52421  26.059   4.206  12.882
 3374POPC   C2B52422  25.873   4.270  12.846
 3374POPC   C3B52423  25.687   4.335  12.810
 3374POPC   C4B52424  25.501   4.400  12.774
 3375POPC   NC352425  24.240  19.954  14.323
 3375POPC   PO452426  24.082  19.841  14.274
 3375POPC   GL152427  23.924  19.728  14.225
 3375POPC   GL252428  23.937  19.752  14.129
 3375POPC   C1A52429  23.766  19.615  14.176
 3375POPC   D2A52430  23.609  19.503  14.128
 3375POPC   C3A52431  23.451  19.390  14.079
 3375POPC   C4A52432  23.293  19.277  14.030
 3375POPC   C1B52433  23.887  19.457  14.154
 3375POPC   C2B52434  23.729  19.344  14.105
 3375POPC   C3B52435  23.571  19.232  14.056
 3375POPC   C4B52436  23.413  19.119  14.007
 3376POPC   NC352437   4.664   7.494  27.059
 3376POPC   PO452438   4.717   7.521  26.868
 3376POPC   GL152439   4.770   7.548  26.677
 3376POPC   GL252440   4.863   7.570  26.706
 3376POPC   C1A52441   4.823   7.576  26.486
 3376POPC   D2A52442   4.875   7.603  26.295
 3376POPC   C3A52443   4.928   7.631  26.104
 3376POPC   C4A52444   4.981   7.658  25.913
 3376POPC   C1B52445   4.872   7.383  26.472
 3376POPC   C2B52446   4.925   7.410  26.281
 3376POPC   C3B52447   4.978   7.437  26.090
 3376POPC   C4B52448   5.031   7.465  25.899
 3377POPC   NC352449   0.526  20.635  21.152
 3377POPC   PO452450   0.630  20.520  21.026
 3377POPC   GL152451   0.734  20.405  20.900
 3377POPC   GL252452   0.789  20.371  20.976
 3377POPC   C1A52453   0.838  20.290  20.774
 3377POPC   D2A52454   0.942  20.174  20.647
 3377POPC   C3A52455   1.046  20.059  20.521
 3377POPC   C4A52456   1.150  19.944  20.395
 3377POPC   C1B52457   0.708  20.141  20.802
 3377POPC   C2B52458   0.812  20.025  20.676
 3377POPC   C3B52459   0.916  19.910  20.550
 3377POPC   C4B52460   1.020  19.795  20.424
 3378POPC   NC352461  27.270   5.508   8.233
 3378POPC   PO452462  27.076   5.552   8.252
 3378POPC   GL152463  26.882   5.596   8.271
 3378POPC   GL252464  26.871   5.592   8.171
 3378POPC   C1A52465  26.688   5.640   8.289
 3378POPC   D2A52466  26.493   5.684   8.308
 3378POPC   C3A52467  26.299   5.728   8.326
 3378POPC   C4A52468  26.105   5.772   8.345
 3378POPC   C1B52469  26.645   5.445   8.302
 3378POPC   C2B52470  26.450   5.489   8.320
 3378POPC   C3B52471  26.256   5.533   8.339
 3378POPC   C4B52472  26.062   5.577   8.358
 3379POPC   NC352473  13.776  15.388  26.665
 3379POPC   PO452474  13.737  15.323  26.480
 3379POPC   GL152475  13.698  15.258  26.295
 3379POPC   GL252476  13.789  15.215  26.291
 3379POPC   C1A52477  13.660  15.194  26.109
 3379POPC   D2A52478  13.621  15.129  25.924
 3379POPC   C3A52479  13.583  15.065  25.738
 3379POPC   C4A52480  13.544  15.000  25.553
 3379POPC   C1B52481  13.583  15.025  26.184
 3379POPC   C2B52482  13.544  14.961  25.999
 3379POPC   C3B52483  13.505  14.896  25.813
 3379POPC   C4B52484  13.467  14.831  25.628
 3380POPC   NC352485  10.815  -5.069   0.008
 3380POPC   PO452486  10.805  -4.902   0.118
 3380POPC   GL152487  10.795  -4.735   0.228
 3380POPC   GL252488  10.800  -4.680   0.144
 3380POPC   C1A52489  10.785  -4.568   0.338
 3380POPC   D2A52490  10.774  -4.402   0.447
 3380POPC   C3A52491  10.764  -4.235   0.557
 3380POPC   C4A52492  10.754  -4.068   0.667
 3380POPC   C1B52493  10.585  -4.571   0.324
 3380POPC   C2B52494  10.575  -4.405   0.433
 3380POPC   C3B52495  10.565  -4.238   0.543
 3380POPC   C4B52496  10.555  -4.071   0.653
 3381POPC   NC352497  26.493  14.667  15.056
 3381POPC   PO452498  26.308  14.619  14.998
 3381POPC   GL152499  26.123  14.571  14.940
 3381POPC   GL252500  26.110  14.663  14.904
 3381POPC   C1A52501  25.937  14.523  14.882
 3381POPC   D2A52502  25.752  14.475  14.825
 3381POPC   C3A52503  25.566  14.427  14.767
 3381POPC   C4A52504  25.381  14.379  14.709
 3381POPC   C1B52505  26.008  14.462  14.706
 3381POPC   C2B52506  25.823  14.414  14.648
 3381POPC   C3B52507  25.637  14.366  14.590
 3381POPC   C4B52508  25.452  14.318  14.532
 3382POPC   NC352509   7.154  10.550  -7.901
 3382POPC   PO452510   7.184  10.545  -7.703
 3382POPC   GL152511   7.214  10.540  -7.505
 3382POPC   GL252512   7.158  10.622  -7.495
 3382POPC   C1A52513   7.244  10.535  -7.308
 3382POPC   D2A52514   7.274  10.529  -7.110
 3382POPC   C3A52515   7.304  10.524  -6.913
 3382POPC   C4A52516   7.334  10.519  -6.715
 3382POPC   C1B52517   7.082  10.420  -7.286
 3382POPC   C2B52518   7.112  10.415  -7.089
 3382POPC   C3B52519   7.142  10.409  -6.891
 3382POPC   C4B52520   7.172  10.404  -6.693
 3383POPC   NC352521   0.072  23.526   3.306
 3383POPC   PO452522   0.180  23.374   3.378
 3383POPC   GL152523   0.288  23.222   3.450
 3383POPC   GL252524   0.372  23.277   3.441
 3383POPC   C1A52525   0.397  23.070   3.523
 3383POPC   D2A52526   0.505  22.919   3.595
 3383POPC   C3A52527   0.614  22.767   3.668
 3383POPC   C4A52528   0.722  22.615   3.740
 3383POPC   C1B52529   0.371  23.140   3.708
 3383POPC   C2B52530   0.479  22.989   3.781
 3383POPC   C3B52531   0.588  22.837   3.853
 3383POPC   C4B52532   0.696  22.685   3.926
 3384POPC   NC352533  27.474   6.098   9.629
 3384POPC   PO452534  27.277   6.134   9.633
 3384POPC   GL152535  27.080   6.170   9.637
 3384POPC   GL252536  27.077   6.162   9.538
 3384POPC   C1A52537  26.884   6.207   9.642
 3384POPC   D2A52538  26.687   6.243   9.646
 3384POPC   C3A52539  26.491   6.280   9.651
 3384POPC   C4A52540  26.294   6.316   9.655
 3384POPC   C1B52541  26.848   6.011   9.661
 3384POPC   C2B52542  26.651   6.047   9.665
 3384POPC   C3B52543  26.455   6.084   9.670
 3384POPC   C4B52544  26.258   6.120   9.674
 3385POPC   NC352545   0.165  -1.358  -0.155
 3385POPC   PO452546   0.267  -1.233  -0.037
 3385POPC   GL152547   0.369  -1.108   0.081
 3385POPC   GL252548   0.331  -1.153   0.162
 3385POPC   C1A52549   0.471  -0.983   0.199
 3385POPC   D2A52550   0.574  -0.858   0.318
 3385POPC   C3A52551   0.676  -0.733   0.436
 3385POPC   C4A52552   0.778  -0.608   0.554
 3385POPC   C1B52553   0.626  -1.110   0.200
 3385POPC   C2B52554   0.728  -0.985   0.319
 3385POPC   C3B52555   0.830  -0.860   0.437
 3385POPC   C4B52556   0.932  -0.735   0.555
 3386POPC   NC352557   4.674  10.814  -7.349
 3386POPC   PO452558   4.731  10.806  -7.157
 3386POPC   GL152559   4.788  10.798  -6.965
 3386POPC   GL252560   4.731  10.717  -6.952
 3386POPC   C1A52561   4.844  10.790  -6.774
 3386POPC   D2A52562   4.901  10.782  -6.582
 3386POPC   C3A52563   4.957  10.774  -6.391
 3386POPC   C4A52564   5.014  10.766  -6.199
 3386POPC   C1B52565   4.999  10.674  -6.824
 3386POPC   C2B52566   5.055  10.666  -6.633
 3386POPC   C3B52567   5.112  10.658  -6.441
 3386POPC   C4B52568   5.169  10.650  -6.250
 3387POPC   NC352569  11.693  23.668  21.525
 3387POPC   PO452570  11.667  23.517  21.397
 3387POPC   GL152571  11.641  23.366  21.269
 3387POPC   GL252572  11.699  23.412  21.202
 3387POPC   C1A52573  11.615  23.214  21.141
 3387POPC   D2A52574  11.588  23.063  21.012
 3387POPC   C3A52575  11.562  22.911  20.884
 3387POPC   C4A52576  11.536  22.760  20.756
 3387POPC   C1B52577  11.775  23.122  21.216
 3387POPC   C2B52578  11.749  22.971  21.088
 3387POPC   C3B52579  11.723  22.820  20.960
 3387POPC   C4B52580  11.697  22.668  20.832
 3388POPC   NC352581  -6.241   9.794  18.102
 3388POPC   PO452582  -6.062   9.799  18.013
 3388POPC   GL152583  -5.883   9.804  17.924
 3388POPC   GL252584  -5.861   9.715  17.963
 3388POPC   C1A52585  -5.704   9.809  17.835
 3388POPC   D2A52586  -5.525   9.813  17.746
 3388POPC   C3A52587  -5.346   9.818  17.657
 3388POPC   C4A52588  -5.167   9.823  17.568
 3388POPC   C1B52589  -5.782   9.719  17.674
 3388POPC   C2B52590  -5.603   9.723  17.585
 3388POPC   C3B52591  -5.424   9.728  17.496
 3388POPC   C4B52592  -5.245   9.733  17.407
 3389POPC   NC352593  10.963  27.914   8.210
 3389POPC   PO452594  10.952  27.715   8.228
 3389POPC   GL152595  10.941  27.516   8.246
 3389POPC   GL252596  11.034  27.514   8.283
 3389POPC   C1A52597  10.930  27.317   8.264
 3389POPC   D2A52598  10.919  27.119   8.283
 3389POPC   C3A52599  10.908  26.920   8.301
 3389POPC   C4A52600  10.897  26.721   8.319
 3389POPC   C1B52601  10.858  27.338   8.450
 3389POPC   C2B52602  10.847  27.140   8.468
 3389POPC   C3B52603  10.836  26.941   8.486
 3389POPC   C4B52604  10.825  26.742   8.504
 3390POPC   NC352605  -4.492  16.046   0.790
 3390POPC   PO452606  -4.330  15.975   0.882
 3390POPC   GL152607  -4.168  15.904   0.974
 3390POPC   GL252608  -4.179  15.971   1.047
 3390POPC   C1A52609  -4.005  15.832   1.066
 3390POPC   D2A52610  -3.843  15.761   1.159
 3390POPC   C3A52611  -3.680  15.689   1.251
 3390POPC   C4A52612  -3.518  15.618   1.343
 3390POPC   C1B52613  -4.120  15.704   1.168
 3390POPC   C2B52614  -3.957  15.632   1.261
 3390POPC   C3B52615  -3.795  15.561   1.353
 3390POPC   C4B52616  -3.632  15.489   1.445
 3391POPC   NC352617  10.070   5.066  27.287
 3391POPC   PO452618  10.071   5.125  27.096
 3391POPC   GL152619  10.072   5.184  26.905
 3391POPC   GL252620  10.103   5.093  26.877
 3391POPC   C1A52621  10.073   5.242  26.714
 3391POPC   D2A52622  10.075   5.301  26.522
 3391POPC   C3A52623  10.076   5.359  26.331
 3391POPC   C4A52624  10.077   5.418  26.140
 3391POPC   C1B52625   9.883   5.184  26.694
 3391POPC   C2B52626   9.884   5.242  26.503
 3391POPC   C3B52627   9.886   5.301  26.312
 3391POPC   C4B52628   9.887   5.359  26.121
 3392POPC   NC352629  12.997   1.525  25.617
 3392POPC   PO452630  12.963   1.621  25.445
 3392POPC   GL152631  12.929   1.717  25.273
 3392POPC   GL252632  13.025   1.706  25.248
 3392POPC   C1A52633  12.895   1.813  25.101
 3392POPC   D2A52634  12.860   1.908  24.928
 3392POPC   C3A52635  12.826   2.004  24.756
 3392POPC   C4A52636  12.792   2.100  24.584
 3392POPC   C1B52637  12.852   1.638  25.012
 3392POPC   C2B52638  12.818   1.734  24.840
 3392POPC   C3B52639  12.783   1.830  24.668
 3392POPC   C4B52640  12.749   1.926  24.496
 3393POPC   NC352641   4.411  22.088  -2.330
 3393POPC   PO452642   4.467  21.949  -2.198
 3393POPC   GL152643   4.523  21.810  -2.066
 3393POPC   GL252644   4.561  21.881  -2.007
 3393POPC   C1A52645   4.579  21.671  -1.933
 3393POPC   D2A52646   4.635  21.532  -1.801
 3393POPC   C3A52647   4.691  21.393  -1.668
 3393POPC   C4A52648   4.747  21.254  -1.536
 3393POPC   C1B52649   4.403  21.689  -1.840
 3393POPC   C2B52650   4.459  21.550  -1.707
 3393POPC   C3B52651   4.515  21.411  -1.575
 3393POPC   C4B52652   4.571  21.272  -1.443
 3394POPC   NC352653  22.441   6.863  -2.670
 3394POPC   PO452654  22.303   6.898  -2.530
 3394POPC   GL152655  22.165   6.933  -2.390
 3394POPC   GL252656  22.107   6.978  -2.458
 3394POPC   C1A52657  22.027   6.969  -2.250
 3394POPC   D2A52658  21.888   7.004  -2.109
 3394POPC   C3A52659  21.750   7.040  -1.969
 3394POPC   C4A52660  21.612   7.075  -1.829
 3394POPC   C1B52661  21.940   6.793  -2.290
 3394POPC   C2B52662  21.802   6.828  -2.150
 3394POPC   C3B52663  21.664   6.864  -2.010
 3394POPC   C4B52664  21.526   6.899  -1.870
 3395POPC   NC352665  19.836  -4.531  13.826
 3395POPC   PO452666  19.726  -4.370  13.782
 3395POPC   GL152667  19.616  -4.209  13.738
 3395POPC   GL252668  19.683  -4.182  13.670
 3395POPC   C1A52669  19.505  -4.048  13.694
 3395POPC   D2A52670  19.395  -3.888  13.650
 3395POPC   C3A52671  19.284  -3.727  13.606
 3395POPC   C4A52672  19.174  -3.566  13.562
 3395POPC   C1B52673  19.407  -4.154  13.555
 3395POPC   C2B52674  19.297  -3.993  13.511
 3395POPC   C3B52675  19.186  -3.832  13.467
 3395POPC   C4B52676  19.076  -3.671  13.423
 3396POPC   NC352677   3.728  26.681   6.629
 3396POPC   PO452678   3.800  26.498   6.665
 3396POPC   GL152679   3.872  26.315   6.701
 3396POPC   GL252680   3.847  26.324   6.797
 3396POPC   C1A52681   3.944  26.132   6.737
 3396POPC   D2A52682   4.015  25.948   6.773
 3396POPC   C3A52683   4.087  25.765   6.809
 3396POPC   C4A52684   4.159  25.582   6.845
 3396POPC   C1B52685   3.764  26.053   6.697
 3396POPC   C2B52686   3.836  25.870   6.733
 3396POPC   C3B52687   3.907  25.687   6.769
 3396POPC   C4B52688   3.979  25.504   6.805
 3397POPC   NC352689  12.971   4.910  -7.116
 3397POPC   PO452690  12.940   4.968  -6.927
 3397POPC   GL152691  12.909   5.026  -6.738
 3397POPC   GL252692  12.936   5.120  -6.762
 3397POPC   C1A52693  12.878   5.085  -6.549
 3397POPC   D2A52694  12.847   5.143  -6.361
 3397POPC   C3A52695  12.816   5.202  -6.172
 3397POPC   C4A52696  12.785   5.260  -5.983
 3397POPC   C1B52697  12.688   5.129  -6.594
 3397POPC   C2B52698  12.657   5.187  -6.405
 3397POPC   C3B52699  12.626   5.246  -6.216
 3397POPC   C4B52700  12.595   5.304  -6.028
 3398POPC   NC352701  25.973   9.067  18.035
 3398POPC   PO452702  25.798   9.081  17.940
 3398POPC   GL152703  25.623   9.095  17.845
 3398POPC   GL252704  25.659   9.041  17.769
 3398POPC   C1A52705  25.447   9.110  17.750
 3398POPC   D2A52706  25.272   9.124  17.655
 3398POPC   C3A52707  25.096   9.139  17.560
 3398POPC   C4A52708  24.921   9.153  17.465
 3398POPC   C1B52709  25.385   8.942  17.839
 3398POPC   C2B52710  25.210   8.956  17.744
 3398POPC   C3B52711  25.034   8.971  17.649
 3398POPC   C4B52712  24.859   8.985  17.554
 3399POPC   NC352713   7.238  26.441  16.904
 3399POPC   PO452714   7.268  26.259  16.827
 3399POPC   GL152715   7.298  26.077  16.750
 3399POPC   GL252716   7.329  26.118  16.664
 3399POPC   C1A52717   7.328  25.895  16.673
 3399POPC   D2A52718   7.358  25.713  16.595
 3399POPC   C3A52719   7.388  25.531  16.518
 3399POPC   C4A52720   7.418  25.349  16.441
 3399POPC   C1B52721   7.516  25.897  16.741
 3399POPC   C2B52722   7.546  25.715  16.663
 3399POPC   C3B52723   7.576  25.533  16.586
 3399POPC   C4B52724   7.606  25.351  16.509
 3400POPC   NC352725  25.602  17.977   6.434
 3400POPC   PO452726  25.428  17.887   6.472
 3400POPC   GL152727  25.254  17.797   6.510
 3400POPC   GL252728  25.259  17.749   6.422
 3400POPC   C1A52729  25.079  17.707   6.548
 3400POPC   D2A52730  24.905  17.616   6.585
 3400POPC   C3A52731  24.730  17.526   6.623
 3400POPC   C4A52732  24.556  17.436   6.661
 3400POPC   C1B52733  25.176  17.556   6.636
 3400POPC   C2B52734  25.002  17.466   6.674
 3400POPC   C3B52735  24.828  17.375   6.712
 3400POPC   C4B52736  24.653  17.285   6.750
 3401POPC   NC352737  23.948  21.125   8.256
 3401POPC   PO452738  23.788  21.007   8.279
 3401POPC   GL152739  23.628  20.889   8.302
 3401POPC   GL252740  23.682  20.810   8.274
 3401POPC   C1A52741  23.468  20.772   8.325
 3401POPC   D2A52742  23.307  20.654   8.347
 3401POPC   C3A52743  23.147  20.537   8.370
 3401POPC   C4A52744  22.987  20.419   8.393
 3401POPC   C1B52745  23.518  20.740   8.515
 3401POPC   C2B52746  23.358  20.622   8.538
 3401POPC   C3B52747  23.198  20.504   8.561
 3401POPC   C4B52748  23.038  20.387   8.584
 3402POPC   NC352749   3.426  26.810  11.369
 3402POPC   PO452750   3.500  26.625  11.351
 3402POPC   GL152751   3.574  26.440  11.333
 3402POPC   GL252752   3.665  26.478  11.318
 3402POPC   C1A52753   3.647  26.255  11.315
 3402POPC   D2A52754   3.721  26.069  11.298
 3402POPC   C3A52755   3.794  25.884  11.280
 3402POPC   C4A52756   3.868  25.699  11.262
 3402POPC   C1B52757   3.683  26.250  11.512
 3402POPC   C2B52758   3.757  26.065  11.494
 3402POPC   C3B52759   3.830  25.880  11.477
 3402POPC   C4B52760   3.904  25.694  11.459
 3403POPC   NC352761  14.361  -6.119  16.717
 3403POPC   PO452762  14.309  -5.940  16.644
 3403POPC   GL152763  14.257  -5.761  16.571
 3403POPC   GL252764  14.341  -5.759  16.516
 3403POPC   C1A52765  14.205  -5.582  16.499
 3403POPC   D2A52766  14.154  -5.403  16.426
 3403POPC   C3A52767  14.102  -5.224  16.354
 3403POPC   C4A52768  14.050  -5.045  16.281
 3403POPC   C1B52769  14.108  -5.671  16.348
 3403POPC   C2B52770  14.057  -5.492  16.276
 3403POPC   C3B52771  14.005  -5.313  16.203
 3403POPC   C4B52772  13.953  -5.134  16.131
 3404POPC   NC352773  26.872  14.403   5.652
 3404POPC   PO452774  26.684  14.352   5.697
 3404POPC   GL152775  26.496  14.301   5.742
 3404POPC   GL252776  26.463  14.354   5.664
 3404POPC   C1A52777  26.308  14.251   5.788
 3404POPC   D2A52778  26.120  14.200   5.833
 3404POPC   C3A52779  25.932  14.150   5.879
 3404POPC   C4A52780  25.744  14.099   5.924
 3404POPC   C1B52781  26.323  14.089   5.671
 3404POPC   C2B52782  26.135  14.038   5.717
 3404POPC   C3B52783  25.947  13.988   5.762
 3404POPC   C4B52784  25.759  13.937   5.807
 3405POPC   NC352785  27.758  10.616   8.041
 3405POPC   PO452786  27.559  10.613   8.060
 3405POPC   GL152787  27.360  10.610   8.079
 3405POPC   GL252788  27.362  10.510   8.080
 3405POPC   C1A52789  27.161  10.606   8.098
 3405POPC   D2A52790  26.962  10.603   8.116
 3405POPC   C3A52791  26.763  10.599   8.135
 3405POPC   C4A52792  26.564  10.596   8.154
 3405POPC   C1B52793  27.180  10.609   8.297
 3405POPC   C2B52794  26.981  10.605   8.315
 3405POPC   C3B52795  26.782  10.602   8.334
 3405POPC   C4B52796  26.583  10.598   8.353
 3406POPC   NC352797  27.402   6.324   7.940
 3406POPC   PO452798  27.206   6.359   7.961
 3406POPC   GL152799  27.010   6.394   7.982
 3406POPC   GL252800  27.008   6.435   7.891
 3406POPC   C1A52801  26.814   6.429   8.003
 3406POPC   D2A52802  26.619   6.463   8.025
 3406POPC   C3A52803  26.423   6.498   8.046
 3406POPC   C4A52804  26.227   6.533   8.067
 3406POPC   C1B52805  26.774   6.250   7.923
 3406POPC   C2B52806  26.578   6.285   7.944
 3406POPC   C3B52807  26.382   6.320   7.965
 3406POPC   C4B52808  26.187   6.354   7.987
 3407POPC   NC352809  11.394  21.872  -3.524
 3407POPC   PO452810  11.380  21.741  -3.374
 3407POPC   GL152811  11.366  21.610  -3.224
 3407POPC   GL252812  11.447  21.651  -3.181
 3407POPC   C1A52813  11.353  21.478  -3.074
 3407POPC   D2A52814  11.339  21.347  -2.923
 3407POPC   C3A52815  11.326  21.215  -2.773
 3407POPC   C4A52816  11.312  21.084  -2.623
 3407POPC   C1B52817  11.234  21.605  -2.974
 3407POPC   C2B52818  11.221  21.473  -2.823
 3407POPC   C3B52819  11.207  21.342  -2.673
 3407POPC   C4B52820  11.194  21.210  -2.523
 3408POPC   NC352821  21.231   9.766  -4.090
 3408POPC   PO452822  21.105   9.768  -3.935
 3408POPC   GL152823  20.979   9.770  -3.780
 3408POPC   GL252824  20.963   9.867  -3.794
 3408POPC   C1A52825  20.853   9.772  -3.624
 3408POPC   D2A52826  20.728   9.773  -3.469
 3408POPC   C3A52827  20.602   9.775  -3.313
 3408POPC   C4A52828  20.476   9.777  -3.158
 3408POPC   C1B52829  20.701   9.729  -3.747
 3408POPC   C2B52830  20.576   9.730  -3.591
 3408POPC   C3B52831  20.450   9.732  -3.436
 3408POPC   C4B52832  20.324   9.734  -3.281
 3409POPC   NC352833   0.380  25.215  12.165
 3409POPC   PO452834   0.483  25.045  12.141
 3409POPC   GL152835   0.586  24.875  12.117
 3409POPC   GL252836   0.668  24.920  12.155
 3409POPC   C1A52837   0.689  24.706  12.094
 3409POPC   D2A52838   0.793  24.536  12.070
 3409POPC   C3A52839   0.896  24.367  12.047
 3409POPC   C4A52840   0.999  24.197  12.023
 3409POPC   C1B52841   0.637  24.648  12.278
 3409POPC   C2B52842   0.740  24.478  12.254
 3409POPC   C3B52843   0.843  24.309  12.231
 3409POPC   C4B52844   0.946  24.139  12.207
 3410POPC   NC352845  13.331  -7.599   7.387
 3410POPC   PO452846  13.289  -7.406   7.415
 3410POPC   GL152847  13.247  -7.213   7.443
 3410POPC   GL252848  13.280  -7.219   7.537
 3410POPC   C1A52849  13.204  -7.019   7.471
 3410POPC   D2A52850  13.162  -6.826   7.498
 3410POPC   C3A52851  13.119  -6.632   7.526
 3410POPC   C4A52852  13.077  -6.439   7.554
 3410POPC   C1B52853  13.388  -6.970   7.409
 3410POPC   C2B52854  13.346  -6.777   7.437
 3410POPC   C3B52855  13.303  -6.583   7.465
 3410POPC   C4B52856  13.261  -6.390   7.493
 3411POPC   NC352857   0.877  22.487  19.432
 3411POPC   PO452858   0.976  22.348  19.327
 3411POPC   GL152859   1.075  22.209  19.222
 3411POPC   GL252860   1.153  22.271  19.214
 3411POPC   C1A52861   1.174  22.071  19.117
 3411POPC   D2A52862   1.273  21.932  19.013
 3411POPC   C3A52863   1.372  21.794  18.908
 3411POPC   C4A52864   1.471  21.655  18.803
 3411POPC   C1B52865   1.250  21.997  19.287
 3411POPC   C2B52866   1.349  21.859  19.182
 3411POPC   C3B52867   1.448  21.720  19.077
 3411POPC   C4B52868   1.547  21.581  18.973
 3412POPC   NC352869  26.955  11.704   4.382
 3412POPC   PO452870  26.765  11.690   4.443
 3412POPC   GL152871  26.575  11.676   4.504
 3412POPC   GL252872  26.572  11.581   4.472
 3412POPC   C1A52873  26.385  11.662   4.565
 3412POPC   D2A52874  26.196  11.647   4.627
 3412POPC   C3A52875  26.006  11.633   4.688
 3412POPC   C4A52876  25.816  11.619   4.749
 3412POPC   C1B52877  26.448  11.599   4.745
 3412POPC   C2B52878  26.258  11.585   4.806
 3412POPC   C3B52879  26.068  11.570   4.867
 3412POPC   C4B52880  25.879  11.556   4.928
 3413POPC   NC352881  23.864  10.755  21.311
 3413POPC   PO452882  23.710  10.747  21.184
 3413POPC   GL152883  23.556  10.739  21.057
 3413POPC   GL252884  23.602  10.805  20.997
 3413POPC   C1A52885  23.402  10.732  20.929
 3413POPC   D2A52886  23.248  10.724  20.802
 3413POPC   C3A52887  23.094  10.717  20.674
 3413POPC   C4A52888  22.940  10.709  20.547
 3413POPC   C1B52889  23.490  10.581  20.832
 3413POPC   C2B52890  23.336  10.573  20.705
 3413POPC   C3B52891  23.182  10.565  20.577
 3413POPC   C4B52892  23.028  10.558  20.450
 3414POPC   NC352893   0.271  25.222  11.492
 3414POPC   PO452894   0.376  25.052  11.480
 3414POPC   GL152895   0.481  24.882  11.468
 3414POPC   GL252896   0.565  24.935  11.452
 3414POPC   C1A52897   0.586  24.712  11.455
 3414POPC   D2A52898   0.691  24.543  11.443
 3414POPC   C3A52899   0.796  24.373  11.430
 3414POPC   C4A52900   0.901  24.203  11.418
 3414POPC   C1B52901   0.619  24.718  11.652
 3414POPC   C2B52902   0.724  24.549  11.640
 3414POPC   C3B52903   0.829  24.379  11.628
 3414POPC   C4B52904   0.934  24.209  11.615
 3415POPC   NC352905  -7.496  14.448   7.806
 3415POPC   PO452906  -7.304  14.401   7.835
 3415POPC   GL152907  -7.112  14.354   7.864
 3415POPC   GL252908  -7.108  14.418   7.941
 3415POPC   C1A52909  -6.920  14.306   7.894
 3415POPC   D2A52910  -6.728  14.259   7.923
 3415POPC   C3A52911  -6.536  14.211   7.953
 3415POPC   C4A52912  -6.344  14.164   7.982
 3415POPC   C1B52913  -6.975  14.161   8.020
 3415POPC   C2B52914  -6.783  14.114   8.050
 3415POPC   C3B52915  -6.591  14.067   8.079
 3415POPC   C4B52916  -6.399  14.019   8.108
 3416POPC   NC352917   1.043  -0.646  -1.569
 3416POPC   PO452918   1.138  -0.526  -1.441
 3416POPC   GL152919   1.233  -0.406  -1.313
 3416POPC   GL252920   1.158  -0.415  -1.248
 3416POPC   C1A52921   1.329  -0.285  -1.185
 3416POPC   D2A52922   1.424  -0.165  -1.056
 3416POPC   C3A52923   1.520  -0.044  -0.928
 3416POPC   C4A52924   1.615   0.076  -0.800
 3416POPC   C1B52925   1.419  -0.444  -1.103
 3416POPC   C2B52926   1.514  -0.323  -0.975
 3416POPC   C3B52927   1.610  -0.203  -0.846
 3416POPC   C4B52928   1.705  -0.083  -0.718
 3417POPC   NC352929  18.366  25.543   6.777
 3417POPC   PO452930  18.273  25.368   6.808
 3417POPC   GL152931  18.180  25.193   6.839
 3417POPC   GL252932  18.255  25.146   6.792
 3417POPC   C1A52933  18.088  25.019   6.870
 3417POPC   D2A52934  17.995  24.844   6.901
 3417POPC   C3A52935  17.903  24.670   6.932
 3417POPC   C4A52936  17.810  24.495   6.963
 3417POPC   C1B52937  18.184  24.999   7.044
 3417POPC   C2B52938  18.091  24.824   7.075
 3417POPC   C3B52939  17.999  24.649   7.106
 3417POPC   C4B52940  17.906  24.475   7.137
 3418POPC   NC352941  -7.765   6.555  11.597
 3418POPC   PO452942  -7.570   6.595  11.576
 3418POPC   GL152943  -7.375   6.635  11.555
 3418POPC   GL252944  -7.354   6.572  11.630
 3418POPC   C1A52945  -7.180   6.676  11.534
 3418POPC   D2A52946  -6.986   6.716  11.513
 3418POPC   C3A52947  -6.791   6.757  11.492
 3418POPC   C4A52948  -6.596   6.797  11.471
 3418POPC   C1B52949  -7.163   6.526  11.403
 3418POPC   C2B52950  -6.969   6.566  11.382
 3418POPC   C3B52951  -6.774   6.607  11.361
 3418POPC   C4B52952  -6.579   6.647  11.340
 3419POPC   NC352953   7.190  11.706  27.604
 3419POPC   PO452954   7.227  11.687  27.408
 3419POPC   GL152955   7.264  11.668  27.212
 3419POPC   GL252956   7.361  11.686  27.229
 3419POPC   C1A52957   7.300  11.648  27.017
 3419POPC   D2A52958   7.337  11.629  26.821
 3419POPC   C3A52959   7.373  11.609  26.626
 3419POPC   C4A52960   7.410  11.590  26.430
 3419POPC   C1B52961   7.332  11.452  27.042
 3419POPC   C2B52962   7.369  11.433  26.847
 3419POPC   C3B52963   7.406  11.414  26.651
 3419POPC   C4B52964   7.442  11.394  26.455
 3420POPC   NC352965  14.707  -7.088   6.619
 3420POPC   PO452966  14.646  -6.901   6.657
 3420POPC   GL152967  14.585  -6.714   6.695
 3420POPC   GL252968  14.677  -6.691   6.727
 3420POPC   C1A52969  14.524  -6.527   6.732
 3420POPC   D2A52970  14.463  -6.341   6.770
 3420POPC   C3A52971  14.402  -6.154   6.807
 3420POPC   C4A52972  14.341  -5.967   6.845
 3420POPC   C1B52973  14.576  -6.473   6.547
 3420POPC   C2B52974  14.515  -6.286   6.585
 3420POPC   C3B52975  14.454  -6.099   6.622
 3420POPC   C4B52976  14.393  -5.913   6.660
 3421POPC   NC352977  -5.403  19.469  11.827
 3421POPC   PO452978  -5.235  19.364  11.804
 3421POPC   GL152979  -5.067  19.259  11.781
 3421POPC   GL252980  -5.055  19.254  11.880
 3421POPC   C1A52981  -4.898  19.153  11.757
 3421POPC   D2A52982  -4.730  19.048  11.734
 3421POPC   C3A52983  -4.561  18.942  11.710
 3421POPC   C4A52984  -4.393  18.837  11.687
 3421POPC   C1B52985  -5.004  18.983  11.761
 3421POPC   C2B52986  -4.835  18.878  11.738
 3421POPC   C3B52987  -4.667  18.773  11.715
 3421POPC   C4B52988  -4.499  18.667  11.691
 3422POPC   NC352989  -6.564   8.979   2.567
 3422POPC   PO452990  -6.381   8.991   2.647
 3422POPC   GL152991  -6.198   9.003   2.727
 3422POPC   GL252992  -6.219   8.924   2.785
 3422POPC   C1A52993  -6.015   9.015   2.807
 3422POPC   D2A52994  -5.832   9.026   2.886
 3422POPC   C3A52995  -5.649   9.038   2.966
 3422POPC   C4A52996  -5.466   9.050   3.046
 3422POPC   C1B52997  -5.945   8.891   2.665
 3422POPC   C2B52998  -5.762   8.903   2.745
 3422POPC   C3B52999  -5.579   8.915   2.825
 3422POPC   C4B53000  -5.396   8.927   2.905
 3423POPC   NC353001  -3.339   4.858  21.139
 3423POPC   PO453002  -3.198   4.918  21.010
 3423POPC   GL153003  -3.057   4.978  20.881
 3423POPC   GL253004  -3.026   5.047  20.947
 3423POPC   C1A53005  -2.916   5.038  20.753
 3423POPC   D2A53006  -2.775   5.097  20.624
 3423POPC   C3A53007  -2.634   5.157  20.496
 3423POPC   C4A53008  -2.493   5.217  20.367
 3423POPC   C1B53009  -2.788   4.905  20.831
 3423POPC   C2B53010  -2.647   4.965  20.703
 3423POPC   C3B53011  -2.506   5.025  20.574
 3423POPC   C4B53012  -2.365   5.085  20.445
 3424POPC   NC353013  12.508  27.755   8.164
 3424POPC   PO453014  12.479  27.558   8.185
 3424POPC   GL153015  12.450  27.361   8.206
 3424POPC   GL253016  12.534  27.355   8.260
 3424POPC   C1A53017  12.421  27.164   8.227
 3424POPC   D2A53018  12.393  26.968   8.248
 3424POPC   C3A53019  12.364  26.771   8.269
 3424POPC   C4A53020  12.335  26.574   8.290
 3424POPC   C1B53021  12.316  27.198   8.394
 3424POPC   C2B53022  12.287  27.001   8.415
 3424POPC   C3B53023  12.259  26.804   8.436
 3424POPC   C4B53024  12.230  26.607   8.457
 3425POPC   NC353025   6.368  -7.403   6.534
 3425POPC   PO453026   6.406  -7.210   6.571
 3425POPC   GL153027   6.444  -7.017   6.608
 3425POPC   GL253028   6.522  -7.021   6.547
 3425POPC   C1A53029   6.481  -6.824   6.646
 3425POPC   D2A53030   6.519  -6.632   6.683
 3425POPC   C3A53031   6.556  -6.439   6.721
 3425POPC   C4A53032   6.594  -6.246   6.758
 3425POPC   C1B53033   6.363  -6.772   6.493
 3425POPC   C2B53034   6.401  -6.579   6.530
 3425POPC   C3B53035   6.439  -6.386   6.568
 3425POPC   C4B53036   6.476  -6.193   6.605
 3426POPC   NC353037  24.157  19.053  16.219
 3426POPC   PO453038  24.000  18.948  16.152
 3426POPC   GL153039  23.843  18.843  16.085
 3426POPC   GL253040  23.821  18.918  16.022
 3426POPC   C1A53041  23.687  18.739  16.018
 3426POPC   D2A53042  23.530  18.634  15.950
 3426POPC   C3A53043  23.374  18.530  15.883
 3426POPC   C4A53044  23.217  18.425  15.816
 3426POPC   C1B53045  23.803  18.655  15.877
 3426POPC   C2B53046  23.646  18.551  15.810
 3426POPC   C3B53047  23.489  18.446  15.743
 3426POPC   C4B53048  23.333  18.342  15.676
 3427POPC   NC353049  17.481   1.797  24.121
 3427POPC   PO453050  17.393   1.887  23.966
 3427POPC   GL153051  17.305   1.977  23.811
 3427POPC   GL253052  17.386   1.959  23.755
 3427POPC   C1A53053  17.216   2.066  23.655
 3427POPC   D2A53054  17.128   2.156  23.500
 3427POPC   C3A53055  17.039   2.245  23.344
 3427POPC   C4A53056  16.951   2.335  23.189
 3427POPC   C1B53057  17.139   1.891  23.598
 3427POPC   C2B53058  17.051   1.980  23.442
 3427POPC   C3B53059  16.962   2.070  23.287
 3427POPC   C4B53060  16.874   2.160  23.132
 3428POPC   NC353061   3.957  -1.440  22.650
 3428POPC   PO453062   4.022  -1.310  22.513
 3428POPC   GL153063   4.087  -1.180  22.376
 3428POPC   GL253064   4.152  -1.248  22.342
 3428POPC   C1A53065   4.152  -1.050  22.238
 3428POPC   D2A53066   4.217  -0.920  22.101
 3428POPC   C3A53067   4.282  -0.790  21.963
 3428POPC   C4A53068   4.347  -0.660  21.826
 3428POPC   C1B53069   4.015  -1.118  22.109
 3428POPC   C2B53070   4.080  -0.988  21.972
 3428POPC   C3B53071   4.145  -0.858  21.834
 3428POPC   C4B53072   4.210  -0.728  21.697
 3429POPC   NC353073   7.379  17.976  25.980
 3429POPC   PO453074   7.406  17.888  25.802
 3429POPC   GL153075   7.433  17.800  25.624
 3429POPC   GL253076   7.526  17.836  25.621
 3429POPC   C1A53077   7.460  17.712  25.447
 3429POPC   D2A53078   7.486  17.624  25.269
 3429POPC   C3A53079   7.513  17.536  25.092
 3429POPC   C4A53080   7.540  17.448  24.914
 3429POPC   C1B53081   7.527  17.547  25.539
 3429POPC   C2B53082   7.553  17.459  25.361
 3429POPC   C3B53083   7.580  17.371  25.183
 3429POPC   C4B53084   7.607  17.283  25.006
 3430POPC   NC353085  16.396  -5.562   3.600
 3430POPC   PO453086  16.322  -5.389   3.669
 3430POPC   GL153087  16.248  -5.216   3.738
 3430POPC   GL253088  16.318  -5.214   3.809
 3430POPC   C1A53089  16.173  -5.044   3.806
 3430POPC   D2A53090  16.099  -4.871   3.875
 3430POPC   C3A53091  16.024  -4.699   3.943
 3430POPC   C4A53092  15.950  -4.526   4.012
 3430POPC   C1B53093  16.294  -4.943   3.683
 3430POPC   C2B53094  16.220  -4.770   3.752
 3430POPC   C3B53095  16.145  -4.597   3.820
 3430POPC   C4B53096  16.071  -4.425   3.889
 3431POPC   NC353097  13.049  -0.076  -4.687
 3431POPC   PO453098  13.016   0.037  -4.525
 3431POPC   GL153099  12.983   0.150  -4.363
 3431POPC   GL253100  13.049   0.217  -4.396
 3431POPC   C1A53101  12.949   0.262  -4.201
 3431POPC   D2A53102  12.916   0.375  -4.040
 3431POPC   C3A53103  12.882   0.487  -3.878
 3431POPC   C4A53104  12.849   0.600  -3.716
 3431POPC   C1B53105  12.803   0.358  -4.298
 3431POPC   C2B53106  12.769   0.470  -4.136
 3431POPC   C3B53107  12.736   0.583  -3.975
 3431POPC   C4B53108  12.702   0.696  -3.813
 3432POPC   NC353109  19.929  24.248  14.455
 3432POPC   PO453110  19.813  24.096  14.397
 3432POPC   GL153111  19.697  23.944  14.339
 3432POPC   GL253112  19.732  23.953  14.245
 3432POPC   C1A53113  19.581  23.792  14.281
 3432POPC   D2A53114  19.464  23.640  14.222
 3432POPC   C3A53115  19.348  23.488  14.164
 3432POPC   C4A53116  19.232  23.336  14.106
 3432POPC   C1B53117  19.728  23.663  14.323
 3432POPC   C2B53118  19.612  23.511  14.265
 3432POPC   C3B53119  19.495  23.359  14.206
 3432POPC   C4B53120  19.379  23.207  14.148
 3433POPC   NC353121  11.428   1.146  -5.714
 3433POPC   PO453122  11.411   1.246  -5.542
 3433POPC   GL153123  11.394   1.346  -5.370
 3433POPC   GL253124  11.489   1.378  -5.379
 3433POPC   C1A53125  11.378   1.446  -5.198
 3433POPC   D2A53126  11.361   1.547  -5.025
 3433POPC   C3A53127  11.345   1.647  -4.853
 3433POPC   C4A53128  11.328   1.747  -4.681
 3433POPC   C1B53129  11.314   1.607  -5.297
 3433POPC   C2B53130  11.297   1.708  -5.125
 3433POPC   C3B53131  11.280   1.808  -4.953
 3433POPC   C4B53132  11.264   1.908  -4.781
 3434POPC   NC353133  10.210  -2.270  23.151
 3434POPC   PO453134  10.200  -2.131  23.007
 3434POPC   GL153135  10.190  -1.992  22.863
 3434POPC   GL253136  10.203  -1.920  22.932
 3434POPC   C1A53137  10.180  -1.853  22.720
 3434POPC   D2A53138  10.169  -1.715  22.576
 3434POPC   C3A53139  10.159  -1.576  22.433
 3434POPC   C4A53140  10.149  -1.437  22.289
 3434POPC   C1B53141  10.378  -1.865  22.695
 3434POPC   C2B53142  10.368  -1.726  22.551
 3434POPC   C3B53143  10.357  -1.587  22.408
 3434POPC   C4B53144  10.347  -1.448  22.264
 3435POPC   NC353145  12.919  18.217  25.656
 3435POPC   PO453146  12.883  18.131  25.479
 3435POPC   GL153147  12.847  18.045  25.302
 3435POPC   GL253148  12.942  18.015  25.297
 3435POPC   C1A53149  12.811  17.958  25.125
 3435POPC   D2A53150  12.775  17.872  24.949
 3435POPC   C3A53151  12.739  17.785  24.772
 3435POPC   C4A53152  12.703  17.699  24.595
 3435POPC   C1B53153  12.764  17.788  25.218
 3435POPC   C2B53154  12.728  17.701  25.042
 3435POPC   C3B53155  12.692  17.615  24.865
 3435POPC   C4B53156  12.656  17.528  24.688
 3436POPC   NC353157  25.225  10.466  19.425
 3436POPC   PO453158  25.055  10.465  19.320
 3436POPC   GL153159  24.885  10.464  19.215
 3436POPC   GL253160  24.936  10.435  19.133
 3436POPC   C1A53161  24.715  10.462  19.109
 3436POPC   D2A53162  24.545  10.461  19.004
 3436POPC   C3A53163  24.375  10.459  18.898
 3436POPC   C4A53164  24.205  10.458  18.793
 3436POPC   C1B53165  24.686  10.271  19.158
 3436POPC   C2B53166  24.516  10.269  19.053
 3436POPC   C3B53167  24.346  10.268  18.948
 3436POPC   C4B53168  24.176  10.266  18.842
 3437POPC   NC353169  16.257  -6.149  14.843
 3437POPC   PO453170  16.187  -5.970  14.788
 3437POPC   GL153171  16.117  -5.791  14.733
 3437POPC   GL253172  16.187  -5.747  14.789
 3437POPC   C1A53173  16.047  -5.612  14.678
 3437POPC   D2A53174  15.977  -5.433  14.622
 3437POPC   C3A53175  15.907  -5.254  14.567
 3437POPC   C4A53176  15.837  -5.075  14.512
 3437POPC   C1B53177  16.172  -5.611  14.522
 3437POPC   C2B53178  16.102  -5.432  14.467
 3437POPC   C3B53179  16.032  -5.253  14.411
 3437POPC   C4B53180  15.962  -5.074  14.356
 3438POPC   NC353181   2.186  26.232  11.814
 3438POPC   PO453182   2.271  26.052  11.794
 3438POPC   GL153183   2.356  25.872  11.774
 3438POPC   GL253184   2.442  25.915  11.747
 3438POPC   C1A53185   2.441  25.692  11.755
 3438POPC   D2A53186   2.525  25.512  11.735
 3438POPC   C3A53187   2.610  25.332  11.716
 3438POPC   C4A53188   2.695  25.152  11.696
 3438POPC   C1B53189   2.498  25.698  11.946
 3438POPC   C2B53190   2.583  25.518  11.927
 3438POPC   C3B53191   2.667  25.338  11.907
 3438POPC   C4B53192   2.752  25.158  11.888
 3439POPC   NC353193  12.049  -4.682  20.179
 3439POPC   PO453194  12.021  -4.525  20.058
 3439POPC   GL153195  11.993  -4.368  19.937
 3439POPC   GL253196  12.087  -4.377  19.904
 3439POPC   C1A53197  11.966  -4.212  19.815
 3439POPC   D2A53198  11.938  -4.055  19.694
 3439POPC   C3A53199  11.911  -3.899  19.572
 3439POPC   C4A53200  11.883  -3.742  19.451
 3439POPC   C1B53201  11.904  -4.335  19.670
 3439POPC   C2B53202  11.876  -4.178  19.549
 3439POPC   C3B53203  11.848  -4.022  19.428
 3439POPC   C4B53204  11.821  -3.865  19.306
 3440POPC   NC353205   3.506  -4.840   1.724
 3440POPC   PO453206   3.575  -4.675   1.815
 3440POPC   GL153207   3.644  -4.510   1.906
 3440POPC   GL253208   3.698  -4.489   1.825
 3440POPC   C1A53209   3.712  -4.346   1.996
 3440POPC   D2A53210   3.781  -4.181   2.087
 3440POPC   C3A53211   3.849  -4.017   2.177
 3440POPC   C4A53212   3.918  -3.852   2.268
 3440POPC   C1B53213   3.559  -4.241   1.921
 3440POPC   C2B53214   3.628  -4.076   2.012
 3440POPC   C3B53215   3.696  -3.912   2.103
 3440POPC   C4B53216   3.765  -3.747   2.193
 3441POPC   NC353217  20.294  24.293   6.245
 3441POPC   PO453218  20.182  24.131   6.280
 3441POPC   GL153219  20.070  23.969   6.315
 3441POPC   GL253220  20.029  23.978   6.225
 3441POPC   C1A53221  19.958  23.807   6.351
 3441POPC   D2A53222  19.845  23.646   6.386
 3441POPC   C3A53223  19.733  23.484   6.422
 3441POPC   C4A53224  19.621  23.322   6.457
 3441POPC   C1B53225  20.102  23.691   6.275
 3441POPC   C2B53226  19.989  23.529   6.311
 3441POPC   C3B53227  19.877  23.367   6.346
 3441POPC   C4B53228  19.765  23.206   6.381
 3442POPC   NC353229  15.366  -2.271  -2.091
 3442POPC   PO453230  15.307  -2.134  -1.958
 3442POPC   GL153231  15.248  -1.997  -1.825
 3442POPC   GL253232  15.337  -1.951  -1.833
 3442POPC   C1A53233  15.189  -1.860  -1.692
 3442POPC   D2A53234  15.131  -1.722  -1.559
 3442POPC   C3A53235  15.072  -1.585  -1.426
 3442POPC   C4A53236  15.013  -1.448  -1.293
 3442POPC   C1B53237  15.119  -1.746  -1.841
 3442POPC   C2B53238  15.060  -1.609  -1.708
 3442POPC   C3B53239  15.001  -1.472  -1.575
 3442POPC   C4B53240  14.942  -1.334  -1.442
 3443POPC   NC353241  20.622  20.715  19.674
 3443POPC   PO453242  20.502  20.594  19.570
 3443POPC   GL153243  20.382  20.473  19.466
 3443POPC   GL253244  20.461  20.433  19.420
 3443POPC   C1A53245  20.262  20.351  19.362
 3443POPC   D2A53246  20.141  20.230  19.258
 3443POPC   C3A53247  20.021  20.108  19.154
 3443POPC   C4A53248  19.901  19.987  19.050
 3443POPC   C1B53249  20.276  20.214  19.506
 3443POPC   C2B53250  20.156  20.092  19.402
 3443POPC   C3B53251  20.035  19.971  19.298
 3443POPC   C4B53252  19.915  19.849  19.194
 3444POPC   NC353253  13.496  -7.332   6.116
 3444POPC   PO453254  13.450  -7.142   6.158
 3444POPC   GL153255  13.404  -6.952   6.200
 3444POPC   GL253256  13.406  -6.930   6.102
 3444POPC   C1A53257  13.358  -6.762   6.242
 3444POPC   D2A53258  13.311  -6.572   6.283
 3444POPC   C3A53259  13.265  -6.382   6.325
 3444POPC   C4A53260  13.219  -6.192   6.367
 3444POPC   C1B53261  13.163  -6.806   6.227
 3444POPC   C2B53262  13.117  -6.616   6.269
 3444POPC   C3B53263  13.071  -6.426   6.311
 3444POPC   C4B53264  13.024  -6.236   6.353
 3445POPC   NC353265  23.036  -1.866   6.485
 3445POPC   PO453266  22.889  -1.736   6.523
 3445POPC   GL153267  22.742  -1.606   6.561
 3445POPC   GL253268  22.727  -1.595   6.462
 3445POPC   C1A53269  22.595  -1.476   6.598
 3445POPC   D2A53270  22.447  -1.346   6.636
 3445POPC   C3A53271  22.300  -1.216   6.673
 3445POPC   C4A53272  22.153  -1.086   6.711
 3445POPC   C1B53273  22.463  -1.626   6.601
 3445POPC   C2B53274  22.315  -1.496   6.639
 3445POPC   C3B53275  22.168  -1.366   6.676
 3445POPC   C4B53276  22.021  -1.236   6.714
 3446POPC   NC353277  24.953  16.373  17.594
 3446POPC   PO453278  24.784  16.305  17.511
 3446POPC   GL153279  24.615  16.237  17.428
 3446POPC   GL253280  24.659  16.237  17.338
 3446POPC   C1A53281  24.446  16.169  17.345
 3446POPC   D2A53282  24.278  16.101  17.263
 3446POPC   C3A53283  24.109  16.033  17.180
 3446POPC   C4A53284  23.940  15.965  17.097
 3446POPC   C1B53285  24.508  15.981  17.374
 3446POPC   C2B53286  24.339  15.913  17.292
 3446POPC   C3B53287  24.170  15.845  17.209
 3446POPC   C4B53288  24.002  15.777  17.126
 3447POPC   NC353289  15.330   1.360  -5.020
 3447POPC   PO453290  15.275   1.457  -4.854
 3447POPC   GL153291  15.220   1.554  -4.688
 3447POPC   GL253292  15.183   1.628  -4.743
 3447POPC   C1A53293  15.165   1.650  -4.521
 3447POPC   D2A53294  15.111   1.747  -4.355
 3447POPC   C3A53295  15.056   1.843  -4.188
 3447POPC   C4A53296  15.001   1.940  -4.022
 3447POPC   C1B53297  14.988   1.559  -4.527
 3447POPC   C2B53298  14.933   1.655  -4.360
 3447POPC   C3B53299  14.878   1.752  -4.194
 3447POPC   C4B53300  14.823   1.849  -4.028
 3448POPC   NC353301  14.509  -3.394  21.056
 3448POPC   PO453302  14.463  -3.247  20.929
 3448POPC   GL153303  14.417  -3.100  20.802
 3448POPC   GL253304  14.418  -3.165  20.726
 3448POPC   C1A53305  14.371  -2.953  20.674
 3448POPC   D2A53306  14.325  -2.805  20.547
 3448POPC   C3A53307  14.279  -2.658  20.419
 3448POPC   C4A53308  14.233  -2.511  20.292
 3448POPC   C1B53309  14.176  -2.988  20.703
 3448POPC   C2B53310  14.130  -2.841  20.576
 3448POPC   C3B53311  14.084  -2.694  20.448
 3448POPC   C4B53312  14.038  -2.547  20.321
 3449POPC   NC353313   1.651  25.790  12.912
 3449POPC   PO453314   1.739  25.615  12.874
 3449POPC   GL153315   1.827  25.440  12.836
 3449POPC   GL253316   1.912  25.487  12.813
 3449POPC   C1A53317   1.915  25.264  12.797
 3449POPC   D2A53318   2.003  25.089  12.759
 3449POPC   C3A53319   2.091  24.913  12.720
 3449POPC   C4A53320   2.179  24.738  12.682
 3449POPC   C1B53321   1.974  25.252  12.988
 3449POPC   C2B53322   2.062  25.077  12.950
 3449POPC   C3B53323   2.150  24.901  12.911
 3449POPC   C4B53324   2.238  24.726  12.873
 3450POPC   NC353325  -0.824   6.566  -4.229
 3450POPC   PO453326  -0.705   6.601  -4.072
 3450POPC   GL153327  -0.586   6.636  -3.915
 3450POPC   GL253328  -0.662   6.617  -3.853
 3450POPC   C1A53329  -0.467   6.671  -3.758
 3450POPC   D2A53330  -0.348   6.705  -3.602
 3450POPC   C3A53331  -0.229   6.740  -3.445
 3450POPC   C4A53332  -0.110   6.775  -3.288
 3450POPC   C1B53333  -0.415   6.477  -3.755
 3450POPC   C2B53334  -0.296   6.512  -3.598
 3450POPC   C3B53335  -0.177   6.547  -3.441
 3450POPC   C4B53336  -0.058   6.582  -3.284
 3451POPC   NC353337  11.832  20.230  -4.786
 3451POPC   PO453338  11.810  20.115  -4.624
 3451POPC   GL153339  11.788  20.000  -4.462
 3451POPC   GL253340  11.876  20.033  -4.427
 3451POPC   C1A53341  11.767  19.885  -4.300
 3451POPC   D2A53342  11.745  19.770  -4.137
 3451POPC   C3A53343  11.724  19.655  -3.975
 3451POPC   C4A53344  11.702  19.540  -3.813
 3451POPC   C1B53345  11.673  20.035  -4.206
 3451POPC   C2B53346  11.651  19.920  -4.044
 3451POPC   C3B53347  11.629  19.805  -3.882
 3451POPC   C4B53348  11.608  19.690  -3.719
 3452POPC   NC353349  16.855  26.501  11.524
 3452POPC   PO453350  16.772  26.319  11.509
 3452POPC   GL153351  16.689  26.137  11.494
 3452POPC   GL253352  16.779  26.098  11.475
 3452POPC   C1A53353  16.607  25.956  11.479
 3452POPC   D2A53354  16.524  25.774  11.464
 3452POPC   C3A53355  16.442  25.593  11.449
 3452POPC   C4A53356  16.359  25.411  11.434
 3452POPC   C1B53357  16.635  25.927  11.675
 3452POPC   C2B53358  16.553  25.745  11.660
 3452POPC   C3B53359  16.470  25.563  11.645
 3452POPC   C4B53360  16.388  25.382  11.630
 3453POPC   NC353361   9.056  -7.607   5.911
 3453POPC   PO453362   9.068  -7.412   5.954
 3453POPC   GL153363   9.080  -7.217   5.997
 3453POPC   GL253364   9.180  -7.222   5.990
 3453POPC   C1A53365   9.092  -7.022   6.040
 3453POPC   D2A53366   9.104  -6.828   6.084
 3453POPC   C3A53367   9.116  -6.633   6.127
 3453POPC   C4A53368   9.128  -6.438   6.170
 3453POPC   C1B53369   9.079  -6.978   5.846
 3453POPC   C2B53370   9.091  -6.784   5.889
 3453POPC   C3B53371   9.103  -6.589   5.932
 3453POPC   C4B53372   9.115  -6.394   5.975
 3454POPC   NC353373  12.413  25.294   0.728
 3454POPC   PO453374  12.383  25.123   0.828
 3454POPC   GL153375  12.353  24.952   0.928
 3454POPC   GL253376  12.442  24.918   0.896
 3454POPC   C1A53377  12.323  24.781   1.027
 3454POPC   D2A53378  12.292  24.611   1.127
 3454POPC   C3A53379  12.262  24.440   1.226
 3454POPC   C4A53380  12.232  24.269   1.326
 3454POPC   C1B53381  12.410  24.860   1.189
 3454POPC   C2B53382  12.379  24.690   1.289
 3454POPC   C3B53383  12.349  24.519   1.388
 3454POPC   C4B53384  12.319  24.348   1.488
 3455POPC   NC353385  21.895  15.096  -2.539
 3455POPC   PO453386  21.762  15.041  -2.400
 3455POPC   GL153387  21.629  14.986  -2.261
 3455POPC   GL253388  21.606  14.905  -2.316
 3455POPC   C1A53389  21.496  14.930  -2.122
 3455POPC   D2A53390  21.363  14.875  -1.984
 3455POPC   C3A53391  21.230  14.819  -1.845
 3455POPC   C4A53392  21.097  14.764  -1.706
 3455POPC   C1B53393  21.638  14.825  -2.028
 3455POPC   C2B53394  21.505  14.770  -1.890
 3455POPC   C3B53395  21.372  14.714  -1.751
 3455POPC   C4B53396  21.239  14.659  -1.612
 3456POPC   NC353397  18.721   0.279  22.293
 3456POPC   PO453398  18.621   0.386  22.157
 3456POPC   GL153399  18.521   0.493  22.021
 3456POPC   GL253400  18.598   0.486  21.958
 3456POPC   C1A53401  18.421   0.600  21.885
 3456POPC   D2A53402  18.320   0.708  21.749
 3456POPC   C3A53403  18.220   0.815  21.613
 3456POPC   C4A53404  18.120   0.922  21.477
 3456POPC   C1B53405  18.344   0.432  21.809
 3456POPC   C2B53406  18.243   0.539  21.673
 3456POPC   C3B53407  18.143   0.647  21.537
 3456POPC   C4B53408  18.043   0.754  21.401
 3457POPC   NC353409   1.537  22.934   0.552
 3457POPC   PO453410   1.632  22.789   0.652
 3457POPC   GL153411   1.727  22.644   0.752
 3457POPC   GL253412   1.782  22.712   0.799
 3457POPC   C1A53413   1.822  22.499   0.851
 3457POPC   D2A53414   1.917  22.353   0.951
 3457POPC   C3A53415   2.012  22.208   1.050
 3457POPC   C4A53416   2.107  22.063   1.150
 3457POPC   C1B53417   1.685  22.508   0.996
 3457POPC   C2B53418   1.780  22.363   1.096
 3457POPC   C3B53419   1.875  22.218   1.195
 3457POPC   C4B53420   1.970  22.073   1.295
 3458POPC   NC353421  24.469   5.299  19.344
 3458POPC   PO453422  24.307   5.349  19.237
 3458POPC   GL153423  24.145   5.399  19.130
 3458POPC   GL253424  24.187   5.357  19.049
 3458POPC   C1A53425  23.984   5.448  19.023
 3458POPC   D2A53426  23.822   5.498  18.916
 3458POPC   C3A53427  23.661   5.547  18.809
 3458POPC   C4A53428  23.499   5.597  18.702
 3458POPC   C1B53429  23.899   5.273  19.069
 3458POPC   C2B53430  23.738   5.323  18.962
 3458POPC   C3B53431  23.576   5.372  18.855
 3458POPC   C4B53432  23.414   5.422  18.748
 3459POPC   NC353433  -3.444   3.333  20.186
 3459POPC   PO453434  -3.302   3.409  20.067
 3459POPC   GL153435  -3.160   3.485  19.948
 3459POPC   GL253436  -3.109   3.399  19.954
 3459POPC   C1A53437  -3.018   3.561  19.829
 3459POPC   D2A53438  -2.877   3.637  19.711
 3459POPC   C3A53439  -2.735   3.713  19.592
 3459POPC   C4A53440  -2.593   3.789  19.473
 3459POPC   C1B53441  -3.116   3.493  19.669
 3459POPC   C2B53442  -2.975   3.569  19.550
 3459POPC   C3B53443  -2.833   3.645  19.431
 3459POPC   C4B53444  -2.691   3.721  19.313
 3460POPC   NC353445  25.659  11.412  18.584
 3460POPC   PO453446  25.483  11.397  18.491
 3460POPC   GL153447  25.307  11.382  18.398
 3460POPC   GL253448  25.348  11.323  18.329
 3460POPC   C1A53449  25.130  11.367  18.305
 3460POPC   D2A53450  24.954  11.352  18.213
 3460POPC   C3A53451  24.777  11.337  18.120
 3460POPC   C4A53452  24.601  11.322  18.027
 3460POPC   C1B53453  25.086  11.206  18.415
 3460POPC   C2B53454  24.910  11.191  18.322
 3460POPC   C3B53455  24.733  11.176  18.229
 3460POPC   C4B53456  24.557  11.161  18.137
 3461POPC   NC353457  23.071  -2.160  11.993
 3461POPC   PO453458  22.927  -2.024  11.965
 3461POPC   GL153459  22.783  -1.888  11.937
 3461POPC   GL253460  22.744  -1.945  11.864
 3461POPC   C1A53461  22.639  -1.753  11.909
 3461POPC   D2A53462  22.494  -1.617  11.881
 3461POPC   C3A53463  22.350  -1.482  11.853
 3461POPC   C4A53464  22.206  -1.346  11.825
 3461POPC   C1B53465  22.524  -1.847  12.043
 3461POPC   C2B53466  22.380  -1.711  12.015
 3461POPC   C3B53467  22.236  -1.576  11.987
 3461POPC   C4B53468  22.091  -1.440  11.959
 3462POPC   NC353469  16.123  25.017   2.171
 3462POPC   PO453470  16.055  24.849   2.256
 3462POPC   GL153471  15.987  24.681   2.341
 3462POPC   GL253472  16.054  24.691   2.414
 3462POPC   C1A53473  15.919  24.514   2.426
 3462POPC   D2A53474  15.850  24.346   2.511
 3462POPC   C3A53475  15.782  24.179   2.596
 3462POPC   C4A53476  15.714  24.011   2.681
 3462POPC   C1B53477  15.787  24.621   2.532
 3462POPC   C2B53478  15.719  24.453   2.617
 3462POPC   C3B53479  15.651  24.286   2.702
 3462POPC   C4B53480  15.582  24.118   2.787
 3463POPC   NC353481  26.638  16.411   8.647
 3463POPC   PO453482  26.454  16.335   8.663
 3463POPC   GL153483  26.270  16.259   8.679
 3463POPC   GL253484  26.305  16.168   8.654
 3463POPC   C1A53485  26.086  16.182   8.695
 3463POPC   D2A53486  25.901  16.106   8.710
 3463POPC   C3A53487  25.717  16.029   8.726
 3463POPC   C4A53488  25.533  15.953   8.742
 3463POPC   C1B53489  26.119  16.143   8.888
 3463POPC   C2B53490  25.934  16.066   8.904
 3463POPC   C3B53491  25.750  15.990   8.919
 3463POPC   C4B53492  25.566  15.913   8.935
 3464POPC   NC353493   5.318  -3.453  -1.233
 3464POPC   PO453494   5.367  -3.305  -1.107
 3464POPC   GL153495   5.416  -3.157  -0.981
 3464POPC   GL253496   5.418  -3.223  -0.905
 3464POPC   C1A53497   5.464  -3.010  -0.855
 3464POPC   D2A53498   5.513  -2.862  -0.729
 3464POPC   C3A53499   5.561  -2.715  -0.603
 3464POPC   C4A53500   5.610  -2.567  -0.477
 3464POPC   C1B53501   5.658  -3.043  -0.891
 3464POPC   C2B53502   5.707  -2.896  -0.765
 3464POPC   C3B53503   5.755  -2.748  -0.639
 3464POPC   C4B53504   5.804  -2.600  -0.513
 3465POPC   NC353505  23.634  15.028  20.482
 3465POPC   PO453506  23.488  14.973  20.357
 3465POPC   GL153507  23.342  14.918  20.232
 3465POPC   GL253508  23.342  15.010  20.192
 3465POPC   C1A53509  23.196  14.863  20.107
 3465POPC   D2A53510  23.050  14.808  19.982
 3465POPC   C3A53511  22.904  14.753  19.857
 3465POPC   C4A53512  22.758  14.698  19.732
 3465POPC   C1B53513  23.333  14.805  19.973
 3465POPC   C2B53514  23.187  14.750  19.848
 3465POPC   C3B53515  23.041  14.695  19.723
 3465POPC   C4B53516  22.895  14.640  19.598
 3466POPC   NC353517  -2.996  22.464   7.618
 3466POPC   PO453518  -2.859  22.320   7.644
 3466POPC   GL153519  -2.722  22.176   7.670
 3466POPC   GL253520  -2.689  22.223   7.752
 3466POPC   C1A53521  -2.585  22.033   7.696
 3466POPC   D2A53522  -2.449  21.889   7.722
 3466POPC   C3A53523  -2.312  21.746   7.748
 3466POPC   C4A53524  -2.175  21.602   7.774
 3466POPC   C1B53525  -2.715  21.930   7.808
 3466POPC   C2B53526  -2.578  21.786   7.834
 3466POPC   C3B53527  -2.441  21.642   7.860
 3466POPC   C4B53528  -2.305  21.499   7.886
 3467POPC   NC353529  26.371  16.982   8.381
 3467POPC   PO453530  26.188  16.904   8.400
 3467POPC   GL153531  26.005  16.826   8.419
 3467POPC   GL253532  26.043  16.734   8.407
 3467POPC   C1A53533  25.822  16.747   8.438
 3467POPC   D2A53534  25.639  16.669   8.457
 3467POPC   C3A53535  25.456  16.590   8.476
 3467POPC   C4A53536  25.273  16.512   8.495
 3467POPC   C1B53537  25.849  16.732   8.636
 3467POPC   C2B53538  25.666  16.653   8.655
 3467POPC   C3B53539  25.483  16.575   8.674
 3467POPC   C4B53540  25.300  16.497   8.693
 3468POPC   NC353541   7.216  26.667  16.339
 3468POPC   PO453542   7.247  26.483  16.268
 3468POPC   GL153543   7.278  26.299  16.197
 3468POPC   GL253544   7.314  26.338  16.112
 3468POPC   C1A53545   7.309  26.115  16.125
 3468POPC   D2A53546   7.340  25.930  16.054
 3468POPC   C3A53547   7.371  25.746  15.982
 3468POPC   C4A53548   7.402  25.562  15.911
 3468POPC   C1B53549   7.493  26.116  16.203
 3468POPC   C2B53550   7.524  25.931  16.131
 3468POPC   C3B53551   7.555  25.747  16.060
 3468POPC   C4B53552   7.586  25.563  15.989
 3469POPC   NC353553  15.763  26.424   5.533
 3469POPC   PO453554  15.699  26.241   5.584
 3469POPC   GL153555  15.635  26.058   5.635
 3469POPC   GL253556  15.707  26.018   5.579
 3469POPC   C1A53557  15.572  25.876   5.686
 3469POPC   D2A53558  15.508  25.693   5.737
 3469POPC   C3A53559  15.445  25.511   5.788
 3469POPC   C4A53560  15.381  25.328   5.839
 3469POPC   C1B53561  15.696  25.876   5.843
 3469POPC   C2B53562  15.632  25.694   5.894
 3469POPC   C3B53563  15.569  25.511   5.945
 3469POPC   C4B53564  15.505  25.329   5.996
 3470POPC   NC353565  -3.739   0.607  17.236
 3470POPC   PO453566  -3.588   0.712  17.158
 3470POPC   GL153567  -3.437   0.817  17.080
 3470POPC   GL253568  -3.387   0.731  17.061
 3470POPC   C1A53569  -3.285   0.921  17.001
 3470POPC   D2A53570  -3.134   1.026  16.923
 3470POPC   C3A53571  -2.982   1.130  16.844
 3470POPC   C4A53572  -2.831   1.235  16.766
 3470POPC   C1B53573  -3.371   0.910  16.821
 3470POPC   C2B53574  -3.220   1.015  16.742
 3470POPC   C3B53575  -3.068   1.120  16.664
 3470POPC   C4B53576  -2.917   1.224  16.586
 3471POPC   NC353577  -3.896  21.169  13.286
 3471POPC   PO453578  -3.742  21.047  13.247
 3471POPC   GL153579  -3.588  20.925  13.208
 3471POPC   GL253580  -3.529  21.004  13.196
 3471POPC   C1A53581  -3.434  20.803  13.170
 3471POPC   D2A53582  -3.281  20.681  13.131
 3471POPC   C3A53583  -3.127  20.559  13.093
 3471POPC   C4A53584  -2.973  20.437  13.054
 3471POPC   C1B53585  -3.389  20.799  13.364
 3471POPC   C2B53586  -3.235  20.677  13.326
 3471POPC   C3B53587  -3.081  20.555  13.287
 3471POPC   C4B53588  -2.927  20.433  13.249
 3472POPC   NC353589   9.534  25.882  18.550
 3472POPC   PO453590   9.538  25.705  18.457
 3472POPC   GL153591   9.542  25.528  18.364
 3472POPC   GL253592   9.564  25.483  18.451
 3472POPC   C1A53593   9.547  25.351  18.271
 3472POPC   D2A53594   9.551  25.174  18.178
 3472POPC   C3A53595   9.556  24.997  18.085
 3472POPC   C4A53596   9.560  24.820  17.992
 3472POPC   C1B53597   9.352  25.327  18.308
 3472POPC   C2B53598   9.356  25.150  18.215
 3472POPC   C3B53599   9.360  24.973  18.122
 3472POPC   C4B53600   9.365  24.796  18.029
 3473POPC   NC353601  23.420  19.643  16.888
 3473POPC   PO453602  23.274  19.530  16.812
 3473POPC   GL153603  23.128  19.417  16.736
 3473POPC   GL253604  23.147  19.452  16.645
 3473POPC   C1A53605  22.981  19.303  16.661
 3473POPC   D2A53606  22.835  19.190  16.585
 3473POPC   C3A53607  22.688  19.076  16.510
 3473POPC   C4A53608  22.542  18.963  16.434
 3473POPC   C1B53609  23.112  19.154  16.632
 3473POPC   C2B53610  22.965  19.041  16.556
 3473POPC   C3B53611  22.819  18.928  16.480
 3473POPC   C4B53612  22.672  18.814  16.405
 3474POPC   NC353613   3.451  23.598  19.912
 3474POPC   PO453614   3.520  23.448  19.799
 3474POPC   GL153615   3.589  23.298  19.686
 3474POPC   GL253616   3.662  23.357  19.652
 3474POPC   C1A53617   3.658  23.148  19.574
 3474POPC   D2A53618   3.727  22.997  19.461
 3474POPC   C3A53619   3.796  22.847  19.349
 3474POPC   C4A53620   3.865  22.697  19.236
 3474POPC   C1B53621   3.775  23.089  19.725
 3474POPC   C2B53622   3.844  22.938  19.612
 3474POPC   C3B53623   3.913  22.788  19.499
 3474POPC   C4B53624   3.982  22.638  19.387
 3475POPC   NC353625   3.769  12.752  -6.853
 3475POPC   PO453626   3.838  12.723  -6.668
 3475POPC   GL153627   3.907  12.694  -6.483
 3475POPC   GL253628   3.940  12.788  -6.480
 3475POPC   C1A53629   3.977  12.665  -6.298
 3475POPC   D2A53630   4.046  12.635  -6.112
 3475POPC   C3A53631   4.116  12.606  -5.927
 3475POPC   C4A53632   4.185  12.577  -5.742
 3475POPC   C1B53633   3.801  12.724  -6.222
 3475POPC   C2B53634   3.871  12.695  -6.037
 3475POPC   C3B53635   3.940  12.665  -5.852
 3475POPC   C4B53636   4.009  12.636  -5.667
 3476POPC   NC353637  23.833   6.952  -1.124
 3476POPC   PO453638  23.677   6.982  -1.002
 3476POPC   GL153639  23.521   7.012  -0.880
 3476POPC   GL253640  23.464   7.033  -0.959
 3476POPC   C1A53641  23.366   7.043  -0.758
 3476POPC   D2A53642  23.210   7.073  -0.636
 3476POPC   C3A53643  23.055   7.104  -0.514
 3476POPC   C4A53644  22.899   7.134  -0.392
 3476POPC   C1B53645  23.317   6.849  -0.772
 3476POPC   C2B53646  23.161   6.880  -0.650
 3476POPC   C3B53647  23.005   6.910  -0.528
 3476POPC   C4B53648  22.850   6.941  -0.406
 3477POPC   NC353649   8.344  -3.853  -1.558
 3477POPC   PO453650   8.362  -3.699  -1.432
 3477POPC   GL153651   8.380  -3.545  -1.306
 3477POPC   GL253652   8.453  -3.507  -1.362
 3477POPC   C1A53653   8.398  -3.391  -1.179
 3477POPC   D2A53654   8.416  -3.238  -1.053
 3477POPC   C3A53655   8.434  -3.084  -0.926
 3477POPC   C4A53656   8.452  -2.930  -0.800
 3477POPC   C1B53657   8.263  -3.288  -1.285
 3477POPC   C2B53658   8.281  -3.135  -1.159
 3477POPC   C3B53659   8.299  -2.981  -1.033
 3477POPC   C4B53660   8.317  -2.827  -0.906
 3478POPC   NC353661   1.366   9.817  25.926
 3478POPC   PO453662   1.456   9.817  25.747
 3478POPC   GL153663   1.546   9.817  25.568
 3478POPC   GL253664   1.579   9.724  25.585
 3478POPC   C1A53665   1.636   9.818  25.390
 3478POPC   D2A53666   1.726   9.818  25.211
 3478POPC   C3A53667   1.816   9.819  25.033
 3478POPC   C4A53668   1.906   9.819  24.854
 3478POPC   C1B53669   1.470   9.744  25.306
 3478POPC   C2B53670   1.560   9.745  25.127
 3478POPC   C3B53671   1.650   9.745  24.949
 3478POPC   C4B53672   1.740   9.745  24.770
 3479POPC   NC353673  24.076  17.918  17.868
 3479POPC   PO453674  23.920  17.827  17.782
 3479POPC   GL153675  23.764  17.736  17.696
 3479POPC   GL253676  23.785  17.782  17.610
 3479POPC   C1A53677  23.607  17.646  17.610
 3479POPC   D2A53678  23.451  17.555  17.525
 3479POPC   C3A53679  23.294  17.465  17.439
 3479POPC   C4A53680  23.138  17.374  17.353
 3479POPC   C1B53681  23.725  17.493  17.558
 3479POPC   C2B53682  23.568  17.402  17.472
 3479POPC   C3B53683  23.412  17.311  17.386
 3479POPC   C4B53684  23.255  17.221  17.301
 3480POPC   NC353685  13.058  -7.724  11.584
 3480POPC   PO453686  13.025  -7.528  11.564
 3480POPC   GL153687  12.992  -7.332  11.544
 3480POPC   GL253688  13.007  -7.339  11.445
 3480POPC   C1A53689  12.959  -7.136  11.524
 3480POPC   D2A53690  12.925  -6.939  11.504
 3480POPC   C3A53691  12.892  -6.743  11.484
 3480POPC   C4A53692  12.859  -6.547  11.464
 3480POPC   C1B53693  12.764  -7.171  11.497
 3480POPC   C2B53694  12.730  -6.975  11.477
 3480POPC   C3B53695  12.697  -6.779  11.457
 3480POPC   C4B53696  12.664  -6.583  11.437
 3481POPC   NC353697  -6.924  16.023   7.202
 3481POPC   PO453698  -6.738  15.958   7.239
 3481POPC   GL153699  -6.552  15.893   7.276
 3481POPC   GL253700  -6.537  15.971   7.337
 3481POPC   C1A53701  -6.367  15.828   7.312
 3481POPC   D2A53702  -6.181  15.763   7.349
 3481POPC   C3A53703  -5.996  15.698   7.385
 3481POPC   C4A53704  -5.810  15.633   7.422
 3481POPC   C1B53705  -6.435  15.720   7.466
 3481POPC   C2B53706  -6.249  15.655   7.503
 3481POPC   C3B53707  -6.064  15.590   7.539
 3481POPC   C4B53708  -5.878  15.525   7.576
 3482POPC   NC353709  23.031   4.465  -1.108
 3482POPC   PO453710  22.889   4.532  -0.984
 3482POPC   GL153711  22.747   4.599  -0.860
 3482POPC   GL253712  22.685   4.612  -0.938
 3482POPC   C1A53713  22.605   4.666  -0.736
 3482POPC   D2A53714  22.463   4.732  -0.612
 3482POPC   C3A53715  22.321   4.799  -0.488
 3482POPC   C4A53716  22.179   4.866  -0.364
 3482POPC   C1B53717  22.537   4.479  -0.713
 3482POPC   C2B53718  22.395   4.546  -0.589
 3482POPC   C3B53719  22.253   4.613  -0.465
 3482POPC   C4B53720  22.111   4.679  -0.341
 3483POPC   NC353721  -5.941  13.137  18.119
 3483POPC   PO453722  -5.767  13.101  18.027
 3483POPC   GL153723  -5.593  13.065  17.935
 3483POPC   GL253724  -5.548  13.132  17.995
 3483POPC   C1A53725  -5.419  13.030  17.843
 3483POPC   D2A53726  -5.245  12.994  17.752
 3483POPC   C3A53727  -5.071  12.959  17.660
 3483POPC   C4A53728  -4.897  12.923  17.568
 3483POPC   C1B53729  -5.379  12.884  17.975
 3483POPC   C2B53730  -5.205  12.849  17.883
 3483POPC   C3B53731  -5.031  12.813  17.791
 3483POPC   C4B53732  -4.857  12.778  17.700
 3484POPC   NC353733  14.105  11.990  -7.512
 3484POPC   PO453734  14.057  11.965  -7.319
 3484POPC   GL153735  14.009  11.940  -7.126
 3484POPC   GL253736  13.940  11.873  -7.152
 3484POPC   C1A53737  13.961  11.916  -6.934
 3484POPC   D2A53738  13.914  11.891  -6.741
 3484POPC   C3A53739  13.866  11.867  -6.549
 3484POPC   C4A53740  13.818  11.842  -6.356
 3484POPC   C1B53741  14.098  11.770  -6.919
 3484POPC   C2B53742  14.050  11.746  -6.726
 3484POPC   C3B53743  14.002  11.721  -6.533
 3484POPC   C4B53744  13.954  11.696  -6.341
 3485POPC   NC353745   3.805  26.915   7.930
 3485POPC   PO453746   3.875  26.729   7.952
 3485POPC   GL153747   3.945  26.543   7.974
 3485POPC   GL253748   3.924  26.546   8.071
 3485POPC   C1A53749   4.014  26.357   7.996
 3485POPC   D2A53750   4.084  26.170   8.017
 3485POPC   C3A53751   4.153  25.984   8.039
 3485POPC   C4A53752   4.223  25.798   8.061
 3485POPC   C1B53753   3.831  26.284   7.959
 3485POPC   C2B53754   3.901  26.098   7.981
 3485POPC   C3B53755   3.971  25.912   8.003
 3485POPC   C4B53756   4.040  25.725   8.024
 3486POPC   NC353757  -4.628  20.585  11.878
 3486POPC   PO453758  -4.469  20.466  11.853
 3486POPC   GL153759  -4.310  20.347  11.828
 3486POPC   GL253760  -4.250  20.427  11.825
 3486POPC   C1A53761  -4.151  20.228  11.804
 3486POPC   D2A53762  -3.993  20.108  11.779
 3486POPC   C3A53763  -3.834  19.989  11.755
 3486POPC   C4A53764  -3.675  19.870  11.730
 3486POPC   C1B53765  -4.128  20.218  12.002
 3486POPC   C2B53766  -3.969  20.099  11.978
 3486POPC   C3B53767  -3.810  19.979  11.953
 3486POPC   C4B53768  -3.652  19.860  11.928
 3487POPC   NC353769  13.569   7.774  -7.641
 3487POPC   PO453770  13.526   7.800  -7.447
 3487POPC   GL153771  13.483   7.826  -7.253
 3487POPC   GL253772  13.491   7.925  -7.265
 3487POPC   C1A53773  13.441   7.853  -7.060
 3487POPC   D2A53774  13.398   7.879  -6.866
 3487POPC   C3A53775  13.356   7.906  -6.673
 3487POPC   C4A53776  13.313   7.932  -6.479
 3487POPC   C1B53777  13.246   7.863  -7.104
 3487POPC   C2B53778  13.203   7.889  -6.911
 3487POPC   C3B53779  13.161   7.916  -6.717
 3487POPC   C4B53780  13.118   7.942  -6.523
 3488POPC   NC353781  16.148  -5.794  15.997
 3488POPC   PO453782  16.080  -5.618  15.930
 3488POPC   GL153783  16.012  -5.442  15.863
 3488POPC   GL253784  16.063  -5.395  15.935
 3488POPC   C1A53785  15.944  -5.267  15.796
 3488POPC   D2A53786  15.875  -5.091  15.728
 3488POPC   C3A53787  15.807  -4.916  15.661
 3488POPC   C4A53788  15.739  -4.740  15.594
 3488POPC   C1B53789  16.101  -5.252  15.673
 3488POPC   C2B53790  16.033  -5.077  15.606
 3488POPC   C3B53791  15.965  -4.901  15.539
 3488POPC   C4B53792  15.897  -4.725  15.472
 3489POPC   NC353793  15.611  -0.841  -3.332
 3489POPC   PO453794  15.552  -0.717  -3.187
 3489POPC   GL153795  15.493  -0.593  -3.042
 3489POPC   GL253796  15.480  -0.520  -3.109
 3489POPC   C1A53797  15.433  -0.469  -2.897
 3489POPC   D2A53798  15.374  -0.345  -2.751
 3489POPC   C3A53799  15.314  -0.221  -2.606
 3489POPC   C4A53800  15.255  -0.097  -2.461
 3489POPC   C1B53801  15.244  -0.528  -2.924
 3489POPC   C2B53802  15.185  -0.404  -2.779
 3489POPC   C3B53803  15.125  -0.280  -2.633
 3489POPC   C4B53804  15.066  -0.156  -2.488
 3490POPC   NC353805  27.421   8.090  13.694
 3490POPC   PO453806  27.226   8.110  13.656
 3490POPC   GL153807  27.031   8.130  13.618
 3490POPC   GL253808  27.041   8.075  13.535
 3490POPC   C1A53809  26.835   8.150  13.580
 3490POPC   D2A53810  26.640   8.170  13.543
 3490POPC   C3A53811  26.444   8.190  13.505
 3490POPC   C4A53812  26.249   8.210  13.467
 3490POPC   C1B53813  26.798   7.983  13.685
 3490POPC   C2B53814  26.603   8.003  13.647
 3490POPC   C3B53815  26.407   8.023  13.609
 3490POPC   C4B53816  26.212   8.043  13.571
 3491POPC   NC353817   7.671  -0.121  24.743
 3491POPC   PO453818   7.694  -0.014  24.576
 3491POPC   GL153819   7.717   0.093  24.409
 3491POPC   GL253820   7.816   0.093  24.422
 3491POPC   C1A53821   7.740   0.200  24.241
 3491POPC   D2A53822   7.762   0.308  24.074
 3491POPC   C3A53823   7.785   0.415  23.906
 3491POPC   C4A53824   7.808   0.522  23.739
 3491POPC   C1B53825   7.753   0.032  24.135
 3491POPC   C2B53826   7.776   0.139  23.968
 3491POPC   C3B53827   7.799   0.246  23.800
 3491POPC   C4B53828   7.822   0.353  23.633
 3492POPC   NC353829  11.820  19.486  -5.280
 3492POPC   PO453830  11.797  19.381  -5.111
 3492POPC   GL153831  11.774  19.276  -4.942
 3492POPC   GL253832  11.870  19.291  -4.920
 3492POPC   C1A53833  11.750  19.172  -4.773
 3492POPC   D2A53834  11.727  19.067  -4.605
 3492POPC   C3A53835  11.703  18.963  -4.436
 3492POPC   C4A53836  11.680  18.858  -4.267
 3492POPC   C1B53837  11.703  19.340  -4.676
 3492POPC   C2B53838  11.679  19.235  -4.507
 3492POPC   C3B53839  11.656  19.131  -4.338
 3492POPC   C4B53840  11.633  19.026  -4.170
 3493POPC   NC353841  20.167  24.492   6.820
 3493POPC   PO453842  20.058  24.327   6.848
 3493POPC   GL153843  19.949  24.162   6.876
 3493POPC   GL253844  19.902  24.178   6.790
 3493POPC   C1A53845  19.839  23.997   6.905
 3493POPC   D2A53846  19.730  23.832   6.933
 3493POPC   C3A53847  19.620  23.667   6.962
 3493POPC   C4A53848  19.511  23.502   6.990
 3493POPC   C1B53849  19.978  23.889   6.809
 3493POPC   C2B53850  19.868  23.724   6.838
 3493POPC   C3B53851  19.759  23.559   6.866
 3493POPC   C4B53852  19.649  23.394   6.894
 3494POPC   NC353853  -0.386  23.004   2.936
 3494POPC   PO453854  -0.274  22.857   3.012
 3494POPC   GL153855  -0.162  22.710   3.088
 3494POPC   GL253856  -0.080  22.767   3.078
 3494POPC   C1A53857  -0.050  22.563   3.164
 3494POPC   D2A53858   0.063  22.415   3.241
 3494POPC   C3A53859   0.175  22.268   3.317
 3494POPC   C4A53860   0.287  22.121   3.393
 3494POPC   C1B53861  -0.078  22.636   3.348
 3494POPC   C2B53862   0.034  22.489   3.424
 3494POPC   C3B53863   0.146  22.342   3.501
 3494POPC   C4B53864   0.259  22.194   3.577
 3495POPC   NC353865  15.157  17.644  -5.523
 3495POPC   PO453866  15.101  17.559  -5.351
 3495POPC   GL153867  15.045  17.474  -5.179
 3495POPC   GL253868  15.075  17.385  -5.213
 3495POPC   C1A53869  14.988  17.389  -5.007
 3495POPC   D2A53870  14.932  17.304  -4.835
 3495POPC   C3A53871  14.875  17.219  -4.663
 3495POPC   C4A53872  14.819  17.134  -4.491
 3495POPC   C1B53873  15.170  17.422  -4.931
 3495POPC   C2B53874  15.114  17.337  -4.759
 3495POPC   C3B53875  15.057  17.252  -4.587
 3495POPC   C4B53876  15.001  17.167  -4.415
 3496POPC   NC353877   2.641  15.889  25.426
 3496POPC   PO453878   2.727  15.827  25.257
 3496POPC   GL153879   2.813  15.765  25.088
 3496POPC   GL253880   2.868  15.849  25.084
 3496POPC   C1A53881   2.900  15.702  24.919
 3496POPC   D2A53882   2.986  15.640  24.749
 3496POPC   C3A53883   3.073  15.577  24.580
 3496POPC   C4A53884   3.159  15.515  24.411
 3496POPC   C1B53885   3.044  15.613  25.025
 3496POPC   C2B53886   3.131  15.551  24.856
 3496POPC   C3B53887   3.217  15.489  24.686
 3496POPC   C4B53888   3.303  15.426  24.517
 3497POPC   NC353889  -5.490  19.151   7.089
 3497POPC   PO453890  -5.319  19.053   7.123
 3497POPC   GL153891  -5.148  18.955   7.157
 3497POPC   GL253892  -5.196  18.894   7.220
 3497POPC   C1A53893  -4.977  18.857   7.192
 3497POPC   D2A53894  -4.807  18.759   7.226
 3497POPC   C3A53895  -4.636  18.661   7.261
 3497POPC   C4A53896  -4.465  18.563   7.295
 3497POPC   C1B53897  -5.018  18.733   7.040
 3497POPC   C2B53898  -4.847  18.635   7.074
 3497POPC   C3B53899  -4.676  18.537   7.109
 3497POPC   C4B53900  -4.505  18.439   7.143
 3498POPC   NC353901   5.474  -6.228   3.338
 3498POPC   PO453902   5.521  -6.048   3.412
 3498POPC   GL153903   5.568  -5.868   3.486
 3498POPC   GL253904   5.645  -5.908   3.535
 3498POPC   C1A53905   5.615  -5.688   3.559
 3498POPC   D2A53906   5.661  -5.508   3.633
 3498POPC   C3A53907   5.708  -5.328   3.706
 3498POPC   C4A53908   5.755  -5.148   3.780
 3498POPC   C1B53909   5.733  -5.655   3.402
 3498POPC   C2B53910   5.780  -5.475   3.475
 3498POPC   C3B53911   5.827  -5.295   3.549
 3498POPC   C4B53912   5.874  -5.115   3.623
 3499POPC   NC353913  -4.803  11.067  20.344
 3499POPC   PO453914  -4.642  11.054  20.226
 3499POPC   GL153915  -4.481  11.041  20.108
 3499POPC   GL253916  -4.427  11.091  20.176
 3499POPC   C1A53917  -4.320  11.029  19.990
 3499POPC   D2A53918  -4.159  11.016  19.873
 3499POPC   C3A53919  -3.998  11.004  19.755
 3499POPC   C4A53920  -3.837  10.991  19.637
 3499POPC   C1B53921  -4.270  10.856  20.078
 3499POPC   C2B53922  -4.109  10.843  19.960
 3499POPC   C3B53923  -3.948  10.831  19.842
 3499POPC   C4B53924  -3.787  10.818  19.724
 3500POPC   NC353925  17.577  18.300  -4.111
 3500POPC   PO453926  17.490  18.209  -3.956
 3500POPC   GL153927  17.403  18.118  -3.801
 3500POPC   GL253928  17.425  18.029  -3.841
 3500POPC   C1A53929  17.317  18.026  -3.645
 3500POPC   D2A53930  17.230  17.935  -3.490
 3500POPC   C3A53931  17.144  17.843  -3.334
 3500POPC   C4A53932  17.057  17.752  -3.179
 3500POPC   C1B53933  17.492  18.025  -3.549
 3500POPC   C2B53934  17.405  17.933  -3.393
 3500POPC   C3B53935  17.319  17.842  -3.238
 3500POPC   C4B53936  17.232  17.750  -3.082
 3501POPC   NC353937  20.020  24.837   9.581
 3501POPC   PO453938  19.913  24.668   9.586
 3501POPC   GL153939  19.806  24.499   9.591
 3501POPC   GL253940  19.854  24.471   9.673
 3501POPC   C1A53941  19.698  24.331   9.595
 3501POPC   D2A53942  19.591  24.162   9.600
 3501POPC   C3A53943  19.483  23.994   9.604
 3501POPC   C4A53944  19.376  23.825   9.609
 3501POPC   C1B53945  19.560  24.422   9.708
 3501POPC   C2B53946  19.453  24.253   9.712
 3501POPC   C3B53947  19.345  24.085   9.717
 3501POPC   C4B53948  19.238  23.916   9.722
 3502POPC   NC353949  18.466   3.319  24.331
 3502POPC   PO453950  18.369   3.393  24.172
 3502POPC   GL153951  18.272   3.467  24.013
 3502POPC   GL253952  18.335   3.545  24.011
 3502POPC   C1A53953  18.175   3.540  23.854
 3502POPC   D2A53954  18.079   3.614  23.696
 3502POPC   C3A53955  17.982   3.687  23.537
 3502POPC   C4A53956  17.885   3.761  23.378
 3502POPC   C1B53957  18.298   3.439  23.733
 3502POPC   C2B53958  18.201   3.513  23.574
 3502POPC   C3B53959  18.104   3.586  23.415
 3502POPC   C4B53960  18.007   3.660  23.256
 3503POPC   NC353961   1.883  -0.202  22.556
 3503POPC   PO453962   1.978  -0.092  22.419
 3503POPC   GL153963   2.073   0.018  22.282
 3503POPC   GL253964   2.128   0.061  22.354
 3503POPC   C1A53965   2.167   0.128  22.144
 3503POPC   D2A53966   2.262   0.239  22.007
 3503POPC   C3A53967   2.356   0.349  21.869
 3503POPC   C4A53968   2.451   0.459  21.732
 3503POPC   C1B53969   2.305  -0.015  22.124
 3503POPC   C2B53970   2.399   0.095  21.986
 3503POPC   C3B53971   2.494   0.205  21.849
 3503POPC   C4B53972   2.589   0.315  21.711
 3504POPC   NC353973  -2.523  -2.742  13.233
 3504POPC   PO453974  -2.387  -2.600  13.198
 3504POPC   GL153975  -2.251  -2.458  13.163
 3504POPC   GL253976  -2.178  -2.525  13.177
 3504POPC   C1A53977  -2.115  -2.316  13.127
 3504POPC   D2A53978  -1.978  -2.174  13.092
 3504POPC   C3A53979  -1.842  -2.032  13.056
 3504POPC   C4A53980  -1.706  -1.890  13.021
 3504POPC   C1B53981  -2.118  -2.362  12.933
 3504POPC   C2B53982  -1.981  -2.220  12.897
 3504POPC   C3B53983  -1.845  -2.078  12.862
 3504POPC   C4B53984  -1.709  -1.936  12.826
 3505POPC   NC353985   4.329   3.580  25.886
 3505POPC   PO453986   4.383   3.649  25.706
 3505POPC   GL153987   4.437   3.718  25.526
 3505POPC   GL253988   4.450   3.625  25.494
 3505POPC   C1A53989   4.491   3.788  25.347
 3505POPC   D2A53990   4.544   3.857  25.167
 3505POPC   C3A53991   4.598   3.927  24.988
 3505POPC   C4A53992   4.652   3.996  24.808
 3505POPC   C1B53993   4.300   3.780  25.287
 3505POPC   C2B53994   4.354   3.850  25.107
 3505POPC   C3B53995   4.408   3.919  24.928
 3505POPC   C4B53996   4.461   3.989  24.748
 3506POPC   NC353997  -4.405  19.849   4.834
 3506POPC   PO453998  -4.246  19.743   4.894
 3506POPC   GL153999  -4.087  19.637   4.954
 3506POPC   GL254000  -4.117  19.645   5.049
 3506POPC   C1A54001  -3.928  19.531   5.013
 3506POPC   D2A54002  -3.770  19.426   5.073
 3506POPC   C3A54003  -3.611  19.320   5.132
 3506POPC   C4A54004  -3.452  19.214   5.192
 3506POPC   C1B54005  -4.034  19.362   4.994
 3506POPC   C2B54006  -3.875  19.257   5.054
 3506POPC   C3B54007  -3.716  19.151   5.113
 3506POPC   C4B54008  -3.557  19.045   5.173
 3507POPC   NC354009   2.264   2.362  -4.564
 3507POPC   PO454010   2.352   2.451  -4.408
 3507POPC   GL154011   2.440   2.540  -4.252
 3507POPC   GL254012   2.356   2.531  -4.199
 3507POPC   C1A54013   2.529   2.629  -4.096
 3507POPC   D2A54014   2.617   2.717  -3.941
 3507POPC   C3A54015   2.706   2.806  -3.785
 3507POPC   C4A54016   2.794   2.895  -3.629
 3507POPC   C1B54017   2.589   2.450  -4.029
 3507POPC   C2B54018   2.678   2.539  -3.873
 3507POPC   C3B54019   2.766   2.628  -3.718
 3507POPC   C4B54020   2.855   2.717  -3.562
 3508POPC   NC354021  14.227   2.771  -6.049
 3508POPC   PO454022  14.181   2.850  -5.871
 3508POPC   GL154023  14.135   2.929  -5.693
 3508POPC   GL254024  14.053   2.971  -5.733
 3508POPC   C1A54025  14.089   3.008  -5.515
 3508POPC   D2A54026  14.043   3.087  -5.338
 3508POPC   C3A54027  13.997   3.166  -5.160
 3508POPC   C4A54028  13.951   3.245  -4.982
 3508POPC   C1B54029  13.983   2.845  -5.470
 3508POPC   C2B54030  13.937   2.924  -5.293
 3508POPC   C3B54031  13.891   3.003  -5.115
 3508POPC   C4B54032  13.845   3.082  -4.937
 3509POPC   NC354033   4.642  15.037  26.487
 3509POPC   PO454034   4.698  14.992  26.300
 3509POPC   GL154035   4.754  14.947  26.113
 3509POPC   GL254036   4.820  15.022  26.115
 3509POPC   C1A54037   4.811  14.902  25.927
 3509POPC   D2A54038   4.867  14.857  25.740
 3509POPC   C3A54039   4.924  14.812  25.554
 3509POPC   C4A54040   4.980  14.767  25.367
 3509POPC   C1B54041   4.950  14.778  25.999
 3509POPC   C2B54042   5.006  14.733  25.812
 3509POPC   C3B54043   5.063  14.688  25.626
 3509POPC   C4B54044   5.119  14.643  25.439
 3510POPC   NC354045  -4.392   1.129  16.579
 3510POPC   PO454046  -4.233   1.228  16.510
 3510POPC   GL154047  -4.074   1.327  16.441
 3510POPC   GL254048  -4.083   1.394  16.515
 3510POPC   C1A54049  -3.914   1.427  16.372
 3510POPC   D2A54050  -3.755   1.526  16.303
 3510POPC   C3A54051  -3.595   1.626  16.234
 3510POPC   C4A54052  -3.436   1.725  16.165
 3510POPC   C1B54053  -3.795   1.314  16.486
 3510POPC   C2B54054  -3.635   1.414  16.417
 3510POPC   C3B54055  -3.476   1.513  16.348
 3510POPC   C4B54056  -3.316   1.613  16.279
 3511POPC   NC354057   3.248  25.277  16.875
 3511POPC   PO454058   3.324  25.108  16.800
 3511POPC   GL154059   3.400  24.939  16.725
 3511POPC   GL254060   3.401  24.899  16.816
 3511POPC   C1A54061   3.476  24.770  16.649
 3511POPC   D2A54062   3.552  24.601  16.574
 3511POPC   C3A54063   3.628  24.432  16.498
 3511POPC   C4A54064   3.704  24.263  16.423
 3511POPC   C1B54065   3.291  24.700  16.620
 3511POPC   C2B54066   3.367  24.531  16.545
 3511POPC   C3B54067   3.443  24.362  16.470
 3511POPC   C4B54068   3.519  24.193  16.394
 3512POPC   NC354069   0.130  -0.412  -1.072
 3512POPC   PO454070   0.233  -0.295  -0.947
 3512POPC   GL154071   0.336  -0.178  -0.822
 3512POPC   GL254072   0.276  -0.205  -0.747
 3512POPC   C1A54073   0.440  -0.061  -0.697
 3512POPC   D2A54074   0.543   0.056  -0.572
 3512POPC   C3A54075   0.647   0.173  -0.447
 3512POPC   C4A54076   0.750   0.290  -0.322
 3512POPC   C1B54077   0.561  -0.214  -0.654
 3512POPC   C2B54078   0.665  -0.097  -0.529
 3512POPC   C3B54079   0.768   0.020  -0.404
 3512POPC   C4B54080   0.871   0.137  -0.279
 3513POPC   NC354081  -7.124  15.975   8.413
 3513POPC   PO454082  -6.936  15.910   8.432
 3513POPC   GL154083  -6.748  15.845   8.451
 3513POPC   GL254084  -6.715  15.939   8.446
 3513POPC   C1A54085  -6.560  15.779   8.469
 3513POPC   D2A54086  -6.371  15.714   8.488
 3513POPC   C3A54087  -6.183  15.648   8.506
 3513POPC   C4A54088  -5.995  15.583   8.525
 3513POPC   C1B54089  -6.574  15.795   8.668
 3513POPC   C2B54090  -6.386  15.730   8.687
 3513POPC   C3B54091  -6.197  15.664   8.705
 3513POPC   C4B54092  -6.009  15.599   8.724
 3514POPC   NC354093  12.568  -6.609   3.206
 3514POPC   PO454094  12.537  -6.427   3.282
 3514POPC   GL154095  12.506  -6.245   3.358
 3514POPC   GL254096  12.589  -6.212   3.314
 3514POPC   C1A54097  12.475  -6.063   3.434
 3514POPC   D2A54098  12.443  -5.880   3.511
 3514POPC   C3A54099  12.412  -5.698   3.587
 3514POPC   C4A54100  12.381  -5.516   3.663
 3514POPC   C1B54101  12.369  -6.013   3.272
 3514POPC   C2B54102  12.338  -5.831   3.348
 3514POPC   C3B54103  12.307  -5.648   3.424
 3514POPC   C4B54104  12.275  -5.466   3.501
 3515POPC   NC354105  19.199   1.273  -2.830
 3515POPC   PO454106  19.089   1.367  -2.692
 3515POPC   GL154107  18.979   1.461  -2.554
 3515POPC   GL254108  18.960   1.534  -2.619
 3515POPC   C1A54109  18.869   1.554  -2.416
 3515POPC   D2A54110  18.759   1.648  -2.277
 3515POPC   C3A54111  18.649   1.741  -2.139
 3515POPC   C4A54112  18.539   1.835  -2.001
 3515POPC   C1B54113  18.706   1.456  -2.479
 3515POPC   C2B54114  18.596   1.550  -2.341
 3515POPC   C3B54115  18.486   1.644  -2.202
 3515POPC   C4B54116  18.376   1.737  -2.064
 3516POPC   NC354117  -2.655  12.210  22.743
 3516POPC   PO454118  -2.516  12.184  22.601
 3516POPC   GL154119  -2.377  12.158  22.459
 3516POPC   GL254120  -2.364  12.064  22.490
 3516POPC   C1A54121  -2.238  12.133  22.318
 3516POPC   D2A54122  -2.099  12.107  22.176
 3516POPC   C3A54123  -1.960  12.082  22.035
 3516POPC   C4A54124  -1.821  12.056  21.893
 3516POPC   C1B54125  -2.379  12.072  22.190
 3516POPC   C2B54126  -2.240  12.046  22.049
 3516POPC   C3B54127  -2.101  12.021  21.907
 3516POPC   C4B54128  -1.962  11.995  21.765
 3517POPC   NC354129  10.227  27.768  12.929
 3517POPC   PO454130  10.221  27.571  12.897
 3517POPC   GL154131  10.215  27.374  12.865
 3517POPC   GL254132  10.302  27.379  12.815
 3517POPC   C1A54133  10.209  27.176  12.833
 3517POPC   D2A54134  10.203  26.979  12.800
 3517POPC   C3A54135  10.197  26.781  12.768
 3517POPC   C4A54136  10.191  26.584  12.736
 3517POPC   C1B54137  10.308  27.145  13.003
 3517POPC   C2B54138  10.302  26.948  12.971
 3517POPC   C3B54139  10.296  26.750  12.939
 3517POPC   C4B54140  10.290  26.553  12.907
 3518POPC   NC354141  12.662  27.731  11.644
 3518POPC   PO454142  12.634  27.534  11.624
 3518POPC   GL154143  12.606  27.337  11.604
 3518POPC   GL254144  12.703  27.326  11.580
 3518POPC   C1A54145  12.578  27.140  11.583
 3518POPC   D2A54146  12.551  26.943  11.563
 3518POPC   C3A54147  12.523  26.746  11.542
 3518POPC   C4A54148  12.495  26.549  11.522
 3518POPC   C1B54149  12.623  27.114  11.776
 3518POPC   C2B54150  12.595  26.917  11.756
 3518POPC   C3B54151  12.567  26.720  11.736
 3518POPC   C4B54152  12.540  26.523  11.715
 3519POPC   NC354153  -2.437   9.438  -3.203
 3519POPC   PO454154  -2.300   9.442  -3.058
 3519POPC   GL154155  -2.163   9.446  -2.913
 3519POPC   GL254156  -2.189   9.540  -2.890
 3519POPC   C1A54157  -2.025   9.450  -2.768
 3519POPC   D2A54158  -1.888   9.454  -2.622
 3519POPC   C3A54159  -1.750   9.458  -2.477
 3519POPC   C4A54160  -1.613   9.462  -2.332
 3519POPC   C1B54161  -2.160   9.380  -2.638
 3519POPC   C2B54162  -2.023   9.384  -2.493
 3519POPC   C3B54163  -1.886   9.388  -2.348
 3519POPC   C4B54164  -1.748   9.392  -2.202
 3520POPC   NC354165   6.458  21.045  23.750
 3520POPC   PO454166   6.498  20.918  23.600
 3520POPC   GL154167   6.538  20.791  23.450
 3520POPC   GL254168   6.558  20.869  23.391
 3520POPC   C1A54169   6.578  20.665  23.301
 3520POPC   D2A54170   6.617  20.538  23.151
 3520POPC   C3A54171   6.657  20.412  23.002
 3520POPC   C4A54172   6.697  20.285  22.852
 3520POPC   C1B54173   6.769  20.658  23.358
 3520POPC   C2B54174   6.809  20.531  23.208
 3520POPC   C3B54175   6.849  20.405  23.058
 3520POPC   C4B54176   6.889  20.278  22.909
 3521POPC   NC354177  -5.889   3.270   4.131
 3521POPC   PO454178  -5.714   3.348   4.189
 3521POPC   GL154179  -5.539   3.426   4.247
 3521POPC   GL254180  -5.587   3.503   4.289
 3521POPC   C1A54181  -5.364   3.504   4.304
 3521POPC   D2A54182  -5.190   3.582   4.362
 3521POPC   C3A54183  -5.015   3.660   4.419
 3521POPC   C4A54184  -4.840   3.738   4.477
 3521POPC   C1B54185  -5.375   3.402   4.476
 3521POPC   C2B54186  -5.201   3.480   4.533
 3521POPC   C3B54187  -5.026   3.558   4.591
 3521POPC   C4B54188  -4.851   3.636   4.649
 3522POPC   NC354189  15.023  25.539   2.455
 3522POPC   PO454190  14.969  25.364   2.534
 3522POPC   GL154191  14.915  25.189   2.613
 3522POPC   GL254192  15.009  25.157   2.608
 3522POPC   C1A54193  14.860  25.013   2.692
 3522POPC   D2A54194  14.806  24.838   2.771
 3522POPC   C3A54195  14.751  24.662   2.850
 3522POPC   C4A54196  14.697  24.487   2.929
 3522POPC   C1B54197  14.894  25.085   2.875
 3522POPC   C2B54198  14.839  24.910   2.954
 3522POPC   C3B54199  14.785  24.735   3.033
 3522POPC   C4B54200  14.730  24.559   3.112
 3523POPC   NC354201   5.406  21.588  -3.188
 3523POPC   PO454202   5.450  21.454  -3.046
 3523POPC   GL154203   5.494  21.320  -2.904
 3523POPC   GL254204   5.580  21.300  -2.950
 3523POPC   C1A54205   5.538  21.186  -2.762
 3523POPC   D2A54206   5.581  21.053  -2.620
 3523POPC   C3A54207   5.625  20.919  -2.478
 3523POPC   C4A54208   5.669  20.785  -2.336
 3523POPC   C1B54209   5.628  21.329  -2.655
 3523POPC   C2B54210   5.672  21.196  -2.513
 3523POPC   C3B54211   5.716  21.062  -2.371
 3523POPC   C4B54212   5.759  20.928  -2.229
 3524POPC   NC354213   9.643  -2.697  -2.935
 3524POPC   PO454214   9.646  -2.556  -2.793
 3524POPC   GL154215   9.649  -2.415  -2.651
 3524POPC   GL254216   9.687  -2.481  -2.586
 3524POPC   C1A54217   9.651  -2.274  -2.509
 3524POPC   D2A54218   9.654  -2.133  -2.368
 3524POPC   C3A54219   9.656  -1.992  -2.226
 3524POPC   C4A54220   9.659  -1.851  -2.084
 3524POPC   C1B54221   9.836  -2.222  -2.565
 3524POPC   C2B54222   9.839  -2.081  -2.423
 3524POPC   C3B54223   9.841  -1.940  -2.281
 3524POPC   C4B54224   9.844  -1.799  -2.139
 3525POPC   NC354225  10.570  -7.953   7.949
 3525POPC   PO454226  10.568  -7.754   7.966
 3525POPC   GL154227  10.566  -7.555   7.983
 3525POPC   GL254228  10.655  -7.550   7.938
 3525POPC   C1A54229  10.564  -7.356   8.000
 3525POPC   D2A54230  10.563  -7.156   8.018
 3525POPC   C3A54231  10.561  -6.957   8.035
 3525POPC   C4A54232  10.559  -6.758   8.052
 3525POPC   C1B54233  10.473  -7.341   7.823
 3525POPC   C2B54234  10.471  -7.142   7.840
 3525POPC   C3B54235  10.469  -6.943   7.858
 3525POPC   C4B54236  10.467  -6.743   7.875
 3526POPC   NC354237  -5.732   6.446  18.440
 3526POPC   PO454238  -5.559   6.480  18.346
 3526POPC   GL154239  -5.386   6.514  18.252
 3526POPC   GL254240  -5.377   6.601  18.300
 3526POPC   C1A54241  -5.213   6.548  18.158
 3526POPC   D2A54242  -5.039   6.581  18.063
 3526POPC   C3A54243  -4.866   6.615  17.969
 3526POPC   C4A54244  -4.693   6.649  17.875
 3526POPC   C1B54245  -5.114   6.456  18.306
 3526POPC   C2B54246  -4.941   6.490  18.212
 3526POPC   C3B54247  -4.768   6.524  18.118
 3526POPC   C4B54248  -4.595   6.558  18.023
 3527POPC   NC354249   2.863  -2.744  20.676
 3527POPC   PO454250   2.939  -2.603  20.557
 3527POPC   GL154251   3.015  -2.462  20.438
 3527POPC   GL254252   3.045  -2.410  20.518
 3527POPC   C1A54253   3.092  -2.321  20.319
 3527POPC   D2A54254   3.168  -2.179  20.199
 3527POPC   C3A54255   3.245  -2.038  20.080
 3527POPC   C4A54256   3.321  -1.897  19.961
 3527POPC   C1B54257   3.267  -2.417  20.316
 3527POPC   C2B54258   3.343  -2.276  20.197
 3527POPC   C3B54259   3.420  -2.135  20.078
 3527POPC   C4B54260   3.496  -1.994  19.959
 3528POPC   NC354261   5.358  23.861  20.547
 3528POPC   PO454262   5.408  23.711  20.424
 3528POPC   GL154263   5.458  23.561  20.301
 3528POPC   GL254264   5.516  23.624  20.249
 3528POPC   C1A54265   5.508  23.411  20.179
 3528POPC   D2A54266   5.558  23.262  20.056
 3528POPC   C3A54267   5.608  23.112  19.934
 3528POPC   C4A54268   5.658  22.962  19.811
 3528POPC   C1B54269   5.663  23.367  20.297
 3528POPC   C2B54270   5.713  23.217  20.174
 3528POPC   C3B54271   5.763  23.067  20.051
 3528POPC   C4B54272   5.813  22.917  19.929
 3529POPC   NC354273   1.322  22.054  -0.445
 3529POPC   PO454274   1.417  21.916  -0.336
 3529POPC   GL154275   1.512  21.778  -0.227
 3529POPC   GL254276   1.555  21.850  -0.173
 3529POPC   C1A54277   1.607  21.640  -0.118
 3529POPC   D2A54278   1.702  21.501  -0.009
 3529POPC   C3A54279   1.797  21.363   0.100
 3529POPC   C4A54280   1.892  21.225   0.209
 3529POPC   C1B54281   1.454  21.635   0.011
 3529POPC   C2B54282   1.549  21.497   0.120
 3529POPC   C3B54283   1.644  21.359   0.229
 3529POPC   C4B54284   1.739  21.221   0.338
 3530POPC   NC354285   5.363  12.607  -7.377
 3530POPC   PO454286   5.413  12.580  -7.185
 3530POPC   GL154287   5.463  12.553  -6.993
 3530POPC   GL254288   5.494  12.648  -6.988
 3530POPC   C1A54289   5.512  12.526  -6.801
 3530POPC   D2A54290   5.562  12.499  -6.610
 3530POPC   C3A54291   5.611  12.472  -6.418
 3530POPC   C4A54292   5.661  12.445  -6.226
 3530POPC   C1B54293   5.329  12.584  -6.746
 3530POPC   C2B54294   5.379  12.557  -6.554
 3530POPC   C3B54295   5.428  12.530  -6.362
 3530POPC   C4B54296   5.478  12.503  -6.170
 3531POPC   NC354297  21.597  -3.737  10.542
 3531POPC   PO454298  21.467  -3.585  10.533
 3531POPC   GL154299  21.337  -3.433  10.524
 3531POPC   GL254300  21.299  -3.471  10.439
 3531POPC   C1A54301  21.208  -3.281  10.515
 3531POPC   D2A54302  21.078  -3.129  10.505
 3531POPC   C3A54303  20.949  -2.977  10.496
 3531POPC   C4A54304  20.819  -2.825  10.487
 3531POPC   C1B54305  21.076  -3.387  10.621
 3531POPC   C2B54306  20.946  -3.235  10.612
 3531POPC   C3B54307  20.817  -3.083  10.603
 3531POPC   C4B54308  20.687  -2.931  10.593
 3532POPC   NC354309   2.004  23.389  19.169
 3532POPC   PO454310   2.089  23.239  19.068
 3532POPC   GL154311   2.174  23.089  18.967
 3532POPC   GL254312   2.256  23.145  18.953
 3532POPC   C1A54313   2.259  22.939  18.866
 3532POPC   D2A54314   2.344  22.789  18.764
 3532POPC   C3A54315   2.429  22.639  18.663
 3532POPC   C4A54316   2.514  22.489  18.562
 3532POPC   C1B54317   2.336  22.867  19.036
 3532POPC   C2B54318   2.421  22.717  18.935
 3532POPC   C3B54319   2.506  22.567  18.834
 3532POPC   C4B54320   2.591  22.417  18.732
 3533POPC   NC354321   7.754  21.271  23.846
 3533POPC   PO454322   7.781  21.142  23.695
 3533POPC   GL154323   7.808  21.013  23.544
 3533POPC   GL254324   7.904  21.038  23.540
 3533POPC   C1A54325   7.834  20.885  23.393
 3533POPC   D2A54326   7.861  20.756  23.243
 3533POPC   C3A54327   7.887  20.628  23.092
 3533POPC   C4A54328   7.914  20.499  22.941
 3533POPC   C1B54329   7.877  20.740  23.524
 3533POPC   C2B54330   7.904  20.611  23.374
 3533POPC   C3B54331   7.930  20.483  23.223
 3533POPC   C4B54332   7.957  20.354  23.072
 3534POPC   NC354333  18.156  15.102  25.112
 3534POPC   PO454334  18.056  15.044  24.949
 3534POPC   GL154335  17.956  14.986  24.786
 3534POPC   GL254336  17.964  15.078  24.748
 3534POPC   C1A54337  17.855  14.928  24.623
 3534POPC   D2A54338  17.755  14.870  24.460
 3534POPC   C3A54339  17.654  14.812  24.297
 3534POPC   C4A54340  17.554  14.754  24.134
 3534POPC   C1B54341  18.027  14.876  24.535
 3534POPC   C2B54342  17.927  14.818  24.372
 3534POPC   C3B54343  17.827  14.760  24.209
 3534POPC   C4B54344  17.726  14.702  24.046
 3535POPC   NC354345  25.006   1.404  14.780
 3535POPC   PO454346  24.839   1.501  14.727
 3535POPC   GL154347  24.672   1.598  14.674
 3535POPC   GL254348  24.692   1.580  14.578
 3535POPC   C1A54349  24.505   1.694  14.621
 3535POPC   D2A54350  24.338   1.791  14.569
 3535POPC   C3A54351  24.171   1.887  14.516
 3535POPC   C4A54352  24.004   1.984  14.463
 3535POPC   C1B54353  24.403   1.523  14.631
 3535POPC   C2B54354  24.236   1.619  14.579
 3535POPC   C3B54355  24.069   1.716  14.526
 3535POPC   C4B54356  23.902   1.812  14.473
 3536POPC   NC354357   0.402  23.987  16.214
 3536POPC   PO454358   0.504  23.829  16.146
 3536POPC   GL154359   0.606  23.671  16.078
 3536POPC   GL254360   0.608  23.633  16.170
 3536POPC   C1A54361   0.709  23.513  16.010
 3536POPC   D2A54362   0.811  23.356  15.943
 3536POPC   C3A54363   0.914  23.198  15.875
 3536POPC   C4A54364   1.016  23.040  15.807
 3536POPC   C1B54365   0.537  23.418  15.974
 3536POPC   C2B54366   0.639  23.260  15.906
 3536POPC   C3B54367   0.742  23.102  15.838
 3536POPC   C4B54368   0.844  22.944  15.771
 3537POPC   NC354369   8.857  27.444  14.506
 3537POPC   PO454370   8.867  27.250  14.457
 3537POPC   GL154371   8.877  27.056  14.408
 3537POPC   GL254372   8.940  27.040  14.484
 3537POPC   C1A54373   8.887  26.863  14.359
 3537POPC   D2A54374   8.897  26.669  14.309
 3537POPC   C3A54375   8.907  26.476  14.260
 3537POPC   C4A54376   8.917  26.282  14.211
 3537POPC   C1B54377   8.732  26.824  14.479
 3537POPC   C2B54378   8.742  26.631  14.429
 3537POPC   C3B54379   8.752  26.437  14.380
 3537POPC   C4B54380   8.762  26.244  14.331
 3538POPC   NC354381  14.185   5.592  -7.051
 3538POPC   PO454382  14.134   5.642  -6.864
 3538POPC   GL154383  14.083   5.692  -6.677
 3538POPC   GL254384  14.065   5.785  -6.707
 3538POPC   C1A54385  14.031   5.741  -6.490
 3538POPC   D2A54386  13.980   5.791  -6.304
 3538POPC   C3A54387  13.928   5.840  -6.117
 3538POPC   C4A54388  13.877   5.890  -5.930
 3538POPC   C1B54389  13.841   5.694  -6.530
 3538POPC   C2B54390  13.790   5.743  -6.343
 3538POPC   C3B54391  13.738   5.793  -6.157
 3538POPC   C4B54392  13.687   5.843  -5.970
 3539POPC   NC354393  16.834  24.051  18.794
 3539POPC   PO454394  16.755  23.894  18.698
 3539POPC   GL154395  16.676  23.737  18.602
 3539POPC   GL254396  16.743  23.749  18.528
 3539POPC   C1A54397  16.597  23.581  18.506
 3539POPC   D2A54398  16.519  23.424  18.409
 3539POPC   C3A54399  16.440  23.268  18.313
 3539POPC   C4A54400  16.361  23.111  18.217
 3539POPC   C1B54401  16.724  23.459  18.601
 3539POPC   C2B54402  16.645  23.302  18.504
 3539POPC   C3B54403  16.567  23.145  18.408
 3539POPC   C4B54404  16.488  22.989  18.312
 3540POPC   NC354405  17.253  -5.792  14.624
 3540POPC   PO454406  17.172  -5.617  14.572
 3540POPC   GL154407  17.091  -5.442  14.520
 3540POPC   GL254408  17.143  -5.396  14.592
 3540POPC   C1A54409  17.010  -5.267  14.468
 3540POPC   D2A54410  16.929  -5.091  14.416
 3540POPC   C3A54411  16.848  -4.916  14.364
 3540POPC   C4A54412  16.767  -4.741  14.312
 3540POPC   C1B54413  17.160  -5.235  14.340
 3540POPC   C2B54414  17.079  -5.060  14.288
 3540POPC   C3B54415  16.998  -4.885  14.236
 3540POPC   C4B54416  16.917  -4.710  14.184
 3541POPC   NC354417  25.041   2.237   3.871
 3541POPC   PO454418  24.873   2.324   3.937
 3541POPC   GL154419  24.705   2.411   4.003
 3541POPC   GL254420  24.752   2.499   4.006
 3541POPC   C1A54421  24.537   2.497   4.069
 3541POPC   D2A54422  24.370   2.584   4.136
 3541POPC   C3A54423  24.202   2.670   4.202
 3541POPC   C4A54424  24.034   2.757   4.268
 3541POPC   C1B54425  24.481   2.533   3.881
 3541POPC   C2B54426  24.313   2.619   3.947
 3541POPC   C3B54427  24.146   2.706   4.013
 3541POPC   C4B54428  23.978   2.792   4.079
 3542POPC   NC354429  14.166  16.483  -6.323
 3542POPC   PO454430  14.121  16.411  -6.142
 3542POPC   GL154431  14.076  16.339  -5.961
 3542POPC   GL254432  14.169  16.358  -5.930
 3542POPC   C1A54433  14.030  16.266  -5.780
 3542POPC   D2A54434  13.985  16.194  -5.600
 3542POPC   C3A54435  13.939  16.121  -5.419
 3542POPC   C4A54436  13.894  16.049  -5.238
 3542POPC   C1B54437  13.974  16.449  -5.722
 3542POPC   C2B54438  13.928  16.376  -5.541
 3542POPC   C3B54439  13.883  16.304  -5.360
 3542POPC   C4B54440  13.838  16.232  -5.179
 3543POPC   NC354441  -7.021  14.014   5.186
 3543POPC   PO454442  -6.834  13.969   5.240
 3543POPC   GL154443  -6.647  13.924   5.294
 3543POPC   GL254444  -6.662  13.967   5.383
 3543POPC   C1A54445  -6.459  13.879   5.348
 3543POPC   D2A54446  -6.272  13.834   5.401
 3543POPC   C3A54447  -6.084  13.789   5.455
 3543POPC   C4A54448  -5.897  13.744   5.509
 3543POPC   C1B54449  -6.522  13.704   5.421
 3543POPC   C2B54450  -6.335  13.659   5.474
 3543POPC   C3B54451  -6.147  13.614   5.528
 3543POPC   C4B54452  -5.960  13.569   5.582
 3544POPC   NC354453  -0.267  -4.897   8.325
 3544POPC   PO454454  -0.154  -4.733   8.342
 3544POPC   GL154455  -0.041  -4.569   8.359
 3544POPC   GL254456   0.018  -4.617   8.424
 3544POPC   C1A54457   0.072  -4.405   8.376
 3544POPC   D2A54458   0.186  -4.241   8.392
 3544POPC   C3A54459   0.299  -4.077   8.409
 3544POPC   C4A54460   0.412  -3.913   8.426
 3544POPC   C1B54461   0.187  -4.469   8.225
 3544POPC   C2B54462   0.300  -4.305   8.242
 3544POPC   C3B54463   0.414  -4.141   8.258
 3544POPC   C4B54464   0.527  -3.977   8.275
 3545POPC   NC354465  15.789  -3.407  20.476
 3545POPC   PO454466  15.726  -3.261  20.355
 3545POPC   GL154467  15.663  -3.115  20.234
 3545POPC   GL254468  15.660  -3.180  20.157
 3545POPC   C1A54469  15.600  -2.969  20.112
 3545POPC   D2A54470  15.538  -2.823  19.991
 3545POPC   C3A54471  15.475  -2.677  19.869
 3545POPC   C4A54472  15.412  -2.531  19.748
 3545POPC   C1B54473  15.411  -3.013  20.157
 3545POPC   C2B54474  15.348  -2.867  20.036
 3545POPC   C3B54475  15.285  -2.721  19.915
 3545POPC   C4B54476  15.222  -2.575  19.793
 3546POPC   NC354477  17.091  26.433  10.885
 3546POPC   PO454478  17.006  26.252  10.876
 3546POPC   GL154479  16.921  26.071  10.867
 3546POPC   GL254480  17.010  26.029  10.884
 3546POPC   C1A54481  16.837  25.890  10.858
 3546POPC   D2A54482  16.752  25.709  10.850
 3546POPC   C3A54483  16.668  25.528  10.841
 3546POPC   C4A54484  16.583  25.347  10.832
 3546POPC   C1B54485  16.802  25.897  11.055
 3546POPC   C2B54486  16.718  25.716  11.047
 3546POPC   C3B54487  16.633  25.535  11.038
 3546POPC   C4B54488  16.549  25.354  11.029
 3547POPC   NC354489   4.746  -4.628   0.600
 3547POPC   PO454490   4.797  -4.464   0.703
 3547POPC   GL154491   4.848  -4.300   0.806
 3547POPC   GL254492   4.912  -4.274   0.733
 3547POPC   C1A54493   4.899  -4.137   0.909
 3547POPC   D2A54494   4.951  -3.973   1.012
 3547POPC   C3A54495   5.002  -3.810   1.115
 3547POPC   C4A54496   5.053  -3.646   1.218
 3547POPC   C1B54497   4.753  -4.034   0.819
 3547POPC   C2B54498   4.805  -3.871   0.922
 3547POPC   C3B54499   4.856  -3.707   1.025
 3547POPC   C4B54500   4.907  -3.543   1.128
 3548POPC   NC354501   5.179   4.710  26.501
 3548POPC   PO454502   5.221   4.771  26.315
 3548POPC   GL154503   5.263   4.832  26.129
 3548POPC   GL254504   5.354   4.860  26.159
 3548POPC   C1A54505   5.306   4.893  25.943
 3548POPC   D2A54506   5.348   4.953  25.758
 3548POPC   C3A54507   5.391   5.014  25.572
 3548POPC   C4A54508   5.433   5.075  25.386
 3548POPC   C1B54509   5.377   4.711  25.900
 3548POPC   C2B54510   5.420   4.772  25.714
 3548POPC   C3B54511   5.462   4.832  25.529
 3548POPC   C4B54512   5.504   4.893  25.343
 3549POPC   NC354513  27.664  10.106   7.242
 3549POPC   PO454514  27.466  10.107   7.271
 3549POPC   GL154515  27.268  10.108   7.300
 3549POPC   GL254516  27.265  10.010   7.282
 3549POPC   C1A54517  27.070  10.109   7.328
 3549POPC   D2A54518  26.872  10.111   7.357
 3549POPC   C3A54519  26.674  10.112   7.385
 3549POPC   C4A54520  26.476  10.113   7.414
 3549POPC   C1B54521  27.098  10.073   7.523
 3549POPC   C2B54522  26.900  10.075   7.552
 3549POPC   C3B54523  26.702  10.076   7.580
 3549POPC   C4B54524  26.504  10.077   7.609
 3550POPC   NC354525   4.158  26.516  14.412
 3550POPC   PO454526   4.221  26.333  14.362
 3550POPC   GL154527   4.284  26.150  14.312
 3550POPC   GL254528   4.372  26.188  14.283
 3550POPC   C1A54529   4.348  25.967  14.261
 3550POPC   D2A54530   4.411  25.785  14.211
 3550POPC   C3A54531   4.475  25.602  14.160
 3550POPC   C4A54532   4.538  25.419  14.110
 3550POPC   C1B54533   4.419  25.941  14.446
 3550POPC   C2B54534   4.483  25.758  14.396
 3550POPC   C3B54535   4.546  25.576  14.345
 3550POPC   C4B54536   4.609  25.393  14.295
 3551POPC   NC354537   4.888  23.376  20.930
 3551POPC   PO454538   4.942  23.230  20.805
 3551POPC   GL154539   4.996  23.084  20.680
 3551POPC   GL254540   5.053  23.148  20.629
 3551POPC   C1A54541   5.049  22.937  20.555
 3551POPC   D2A54542   5.103  22.791  20.429
 3551POPC   C3A54543   5.156  22.644  20.304
 3551POPC   C4A54544   5.210  22.498  20.179
 3551POPC   C1B54545   5.204  22.892  20.673
 3551POPC   C2B54546   5.257  22.746  20.548
 3551POPC   C3B54547   5.311  22.599  20.423
 3551POPC   C4B54548   5.364  22.453  20.298
 3552POPC   NC354549  12.148  -2.509  22.626
 3552POPC   PO454550  12.118  -2.368  22.487
 3552POPC   GL154551  12.088  -2.227  22.348
 3552POPC   GL254552  12.183  -2.238  22.317
 3552POPC   C1A54553  12.058  -2.087  22.209
 3552POPC   D2A54554  12.029  -1.946  22.070
 3552POPC   C3A54555  11.999  -1.806  21.931
 3552POPC   C4A54556  11.969  -1.665  21.792
 3552POPC   C1B54557  12.000  -2.227  22.079
 3552POPC   C2B54558  11.971  -2.087  21.940
 3552POPC   C3B54559  11.941  -1.946  21.801
 3552POPC   C4B54560  11.911  -1.806  21.662
 3553POPC   NC354561   9.306  -8.021  10.410
 3553POPC   PO454562   9.313  -7.821  10.405
 3553POPC   GL154563   9.320  -7.621  10.400
 3553POPC   GL254564   9.409  -7.625  10.355
 3553POPC   C1A54565   9.326  -7.421  10.394
 3553POPC   D2A54566   9.333  -7.222  10.389
 3553POPC   C3A54567   9.339  -7.022  10.383
 3553POPC   C4A54568   9.346  -6.822  10.378
 3553POPC   C1B54569   9.237  -7.423  10.215
 3553POPC   C2B54570   9.243  -7.223  10.210
 3553POPC   C3B54571   9.250  -7.024  10.205
 3553POPC   C4B54572   9.257  -6.824  10.199
 3554POPC   NC354573  10.150  -7.535  14.378
 3554POPC   PO454574  10.144  -7.340  14.334
 3554POPC   GL154575  10.138  -7.145  14.290
 3554POPC   GL254576  10.205  -7.160  14.217
 3554POPC   C1A54577  10.132  -6.950  14.246
 3554POPC   D2A54578  10.127  -6.755  14.202
 3554POPC   C3A54579  10.121  -6.560  14.158
 3554POPC   C4A54580  10.115  -6.365  14.114
 3554POPC   C1B54581   9.983  -6.983  14.118
 3554POPC   C2B54582   9.977  -6.788  14.074
 3554POPC   C3B54583   9.971  -6.593  14.030
 3554POPC   C4B54584   9.965  -6.398  13.986
 3555POPC   NC354585  26.623   3.463  11.499
 3555POPC   PO454586  26.437   3.534  11.480
 3555POPC   GL154587  26.251   3.605  11.461
 3555POPC   GL254588  26.258   3.598  11.362
 3555POPC   C1A54589  26.065   3.676  11.443
 3555POPC   D2A54590  25.878   3.746  11.424
 3555POPC   C3A54591  25.692   3.817  11.406
 3555POPC   C4A54592  25.506   3.888  11.387
 3555POPC   C1B54593  25.993   3.489  11.451
 3555POPC   C2B54594  25.807   3.560  11.432
 3555POPC   C3B54595  25.621   3.631  11.413
 3555POPC   C4B54596  25.434   3.701  11.395
 3556POPC   NC354597  13.421  19.306  -5.093
 3556POPC   PO454598  13.382  19.204  -4.925
 3556POPC   GL154599  13.343  19.102  -4.757
 3556POPC   GL254600  13.437  19.116  -4.727
 3556POPC   C1A54601  13.304  19.000  -4.590
 3556POPC   D2A54602  13.266  18.897  -4.422
 3556POPC   C3A54603  13.227  18.795  -4.255
 3556POPC   C4A54604  13.188  18.693  -4.087
 3556POPC   C1B54605  13.249  19.169  -4.499
 3556POPC   C2B54606  13.210  19.067  -4.332
 3556POPC   C3B54607  13.171  18.965  -4.164
 3556POPC   C4B54608  13.132  18.863  -3.997
 3557POPC   NC354609  11.274  -3.758  21.449
 3557POPC   PO454610  11.252  -3.609  21.318
 3557POPC   GL154611  11.230  -3.460  21.187
 3557POPC   GL254612  11.262  -3.520  21.113
 3557POPC   C1A54613  11.209  -3.310  21.056
 3557POPC   D2A54614  11.187  -3.161  20.924
 3557POPC   C3A54615  11.166  -3.011  20.793
 3557POPC   C4A54616  11.144  -2.862  20.662
 3557POPC   C1B54617  11.020  -3.367  21.022
 3557POPC   C2B54618  10.998  -3.218  20.891
 3557POPC   C3B54619  10.977  -3.068  20.760
 3557POPC   C4B54620  10.955  -2.919  20.628
 3558POPC   NC354621   6.662  -7.602  12.423
 3558POPC   PO454622   6.695  -7.407  12.397
 3558POPC   GL154623   6.728  -7.212  12.371
 3558POPC   GL254624   6.749  -7.202  12.468
 3558POPC   C1A54625   6.762  -7.016  12.345
 3558POPC   D2A54626   6.795  -6.821  12.319
 3558POPC   C3A54627   6.829  -6.625  12.293
 3558POPC   C4A54628   6.862  -6.430  12.267
 3558POPC   C1B54629   6.955  -7.054  12.308
 3558POPC   C2B54630   6.988  -6.859  12.282
 3558POPC   C3B54631   7.021  -6.663  12.256
 3558POPC   C4B54632   7.055  -6.468  12.230
 3559POPC   NC354633   9.695  -4.884  -0.300
 3559POPC   PO454634   9.698  -4.719  -0.187
 3559POPC   GL154635   9.701  -4.554  -0.074
 3559POPC   GL254636   9.740  -4.607   0.002
 3559POPC   C1A54637   9.704  -4.389   0.040
 3559POPC   D2A54638   9.708  -4.225   0.153
 3559POPC   C3A54639   9.711  -4.060   0.267
 3559POPC   C4A54640   9.714  -3.895   0.380
 3559POPC   C1B54641   9.889  -4.348  -0.025
 3559POPC   C2B54642   9.892  -4.184   0.088
 3559POPC   C3B54643   9.895  -4.019   0.202
 3559POPC   C4B54644   9.899  -3.854   0.315
 3560POPC   NC354645  -7.551   5.544   8.304
 3560POPC   PO454646  -7.360   5.602   8.319
 3560POPC   GL154647  -7.169   5.660   8.334
 3560POPC   GL254648  -7.153   5.589   8.403
 3560POPC   C1A54649  -6.978   5.717   8.349
 3560POPC   D2A54650  -6.787   5.775   8.364
 3560POPC   C3A54651  -6.596   5.832   8.379
 3560POPC   C4A54652  -6.405   5.890   8.394
 3560POPC   C1B54653  -6.928   5.589   8.204
 3560POPC   C2B54654  -6.737   5.646   8.219
 3560POPC   C3B54655  -6.546   5.704   8.234
 3560POPC   C4B54656  -6.355   5.761   8.249
 3561POPC   NC354657  23.155  12.632  21.816
 3561POPC   PO454658  23.012  12.599  21.680
 3561POPC   GL154659  22.869  12.566  21.544
 3561POPC   GL254660  22.927  12.607  21.473
 3561POPC   C1A54661  22.727  12.534  21.407
 3561POPC   D2A54662  22.584  12.501  21.271
 3561POPC   C3A54663  22.442  12.469  21.134
 3561POPC   C4A54664  22.299  12.436  20.998
 3561POPC   C1B54665  22.806  12.354  21.368
 3561POPC   C2B54666  22.663  12.322  21.231
 3561POPC   C3B54667  22.520  12.289  21.095
 3561POPC   C4B54668  22.378  12.256  20.959
 3562POPC   NC354669  22.737  -2.013   5.886
 3562POPC   PO454670  22.593  -1.881   5.930
 3562POPC   GL154671  22.449  -1.749   5.974
 3562POPC   GL254672  22.462  -1.705   5.885
 3562POPC   C1A54673  22.306  -1.617   6.018
 3562POPC   D2A54674  22.162  -1.484   6.061
 3562POPC   C3A54675  22.019  -1.352   6.105
 3562POPC   C4A54676  21.875  -1.220   6.149
 3562POPC   C1B54677  22.169  -1.739   5.939
 3562POPC   C2B54678  22.025  -1.607   5.983
 3562POPC   C3B54679  21.882  -1.475   6.026
 3562POPC   C4B54680  21.738  -1.343   6.070
 3563POPC   NC354681   3.379  12.784  -6.696
 3563POPC   PO454682   3.454  12.754  -6.513
 3563POPC   GL154683   3.529  12.724  -6.330
 3563POPC   GL254684   3.563  12.818  -6.328
 3563POPC   C1A54685   3.603  12.694  -6.147
 3563POPC   D2A54686   3.678  12.665  -5.963
 3563POPC   C3A54687   3.752  12.635  -5.780
 3563POPC   C4A54688   3.827  12.605  -5.597
 3563POPC   C1B54689   3.431  12.756  -6.066
 3563POPC   C2B54690   3.505  12.726  -5.883
 3563POPC   C3B54691   3.580  12.696  -5.700
 3563POPC   C4B54692   3.654  12.666  -5.517
 3564POPC   NC354693   8.587  -6.029  18.202
 3564POPC   PO454694   8.602  -5.852  18.110
 3564POPC   GL154695   8.617  -5.675  18.018
 3564POPC   GL254696   8.714  -5.694  17.998
 3564POPC   C1A54697   8.633  -5.498  17.926
 3564POPC   D2A54698   8.648  -5.321  17.835
 3564POPC   C3A54699   8.664  -5.144  17.743
 3564POPC   C4A54700   8.679  -4.967  17.651
 3564POPC   C1B54701   8.580  -5.583  17.753
 3564POPC   C2B54702   8.595  -5.406  17.662
 3564POPC   C3B54703   8.610  -5.229  17.570
 3564POPC   C4B54704   8.626  -5.052  17.478
 3565POPC   NC354705   4.267  18.077  -5.215
 3565POPC   PO454706   4.330  17.992  -5.045
 3565POPC   GL154707   4.393  17.907  -4.875
 3565POPC   GL254708   4.406  17.997  -4.835
 3565POPC   C1A54709   4.456  17.821  -4.706
 3565POPC   D2A54710   4.519  17.736  -4.536
 3565POPC   C3A54711   4.582  17.650  -4.367
 3565POPC   C4A54712   4.645  17.565  -4.197
 3565POPC   C1B54713   4.268  17.817  -4.638
 3565POPC   C2B54714   4.331  17.732  -4.468
 3565POPC   C3B54715   4.394  17.646  -4.299
 3565POPC   C4B54716   4.457  17.561  -4.129
 3566POPC   NC354717  -4.848  18.121  16.561
 3566POPC   PO454718  -4.689  18.026  16.486
 3566POPC   GL154719  -4.530  17.931  16.411
 3566POPC   GL254720  -4.473  17.969  16.484
 3566POPC   C1A54721  -4.371  17.835  16.337
 3566POPC   D2A54722  -4.211  17.740  16.262
 3566POPC   C3A54723  -4.052  17.644  16.188
 3566POPC   C4A54724  -3.893  17.549  16.113
 3566POPC   C1B54725  -4.411  17.677  16.452
 3566POPC   C2B54726  -4.252  17.581  16.377
 3566POPC   C3B54727  -4.093  17.486  16.303
 3566POPC   C4B54728  -3.934  17.391  16.228
 3567POPC   NC354729  24.344  20.767  10.208
 3567POPC   PO454730  24.180  20.652  10.207
 3567POPC   GL154731  24.016  20.537  10.206
 3567POPC   GL254732  24.074  20.455  10.215
 3567POPC   C1A54733  23.853  20.422  10.205
 3567POPC   D2A54734  23.689  20.306  10.205
 3567POPC   C3A54735  23.526  20.191  10.204
 3567POPC   C4A54736  23.362  20.076  10.203
 3567POPC   C1B54737  23.843  20.435  10.405
 3567POPC   C2B54738  23.679  20.320  10.404
 3567POPC   C3B54739  23.515  20.204  10.403
 3567POPC   C4B54740  23.352  20.089  10.402
 3568POPC   NC354741  -2.069  12.879  -3.254
 3568POPC   PO454742  -1.940  12.851  -3.104
 3568POPC   GL154743  -1.811  12.823  -2.954
 3568POPC   GL254744  -1.841  12.908  -2.912
 3568POPC   C1A54745  -1.681  12.795  -2.804
 3568POPC   D2A54746  -1.552  12.767  -2.654
 3568POPC   C3A54747  -1.422  12.739  -2.504
 3568POPC   C4A54748  -1.293  12.711  -2.354
 3568POPC   C1B54749  -1.821  12.694  -2.702
 3568POPC   C2B54750  -1.692  12.666  -2.552
 3568POPC   C3B54751  -1.562  12.638  -2.402
 3568POPC   C4B54752  -1.433  12.610  -2.252
 3569POPC   NC354753  25.274  18.953   7.511
 3569POPC   PO454754  25.104  18.852   7.541
 3569POPC   GL154755  24.934  18.751   7.571
 3569POPC   GL254756  24.939  18.716   7.477
 3569POPC   C1A54757  24.763  18.651   7.600
 3569POPC   D2A54758  24.593  18.550   7.630
 3569POPC   C3A54759  24.422  18.450   7.659
 3569POPC   C4A54760  24.252  18.349   7.689
 3569POPC   C1B54761  24.867  18.494   7.666
 3569POPC   C2B54762  24.697  18.393   7.696
 3569POPC   C3B54763  24.527  18.292   7.726
 3569POPC   C4B54764  24.356  18.192   7.755
 3570POPC   NC354765  -2.537   4.512  21.794
 3570POPC   PO454766  -2.405   4.577  21.658
 3570POPC   GL154767  -2.273   4.642  21.522
 3570POPC   GL254768  -2.212   4.567  21.546
 3570POPC   C1A54769  -2.142   4.707  21.386
 3570POPC   D2A54770  -2.010   4.772  21.251
 3570POPC   C3A54771  -1.879   4.837  21.115
 3570POPC   C4A54772  -1.747   4.902  20.979
 3570POPC   C1B54773  -2.228   4.592  21.248
 3570POPC   C2B54774  -2.097   4.657  21.112
 3570POPC   C3B54775  -1.965   4.722  20.976
 3570POPC   C4B54776  -1.833   4.787  20.840
 3571POPC   NC354777  -3.696  18.632  18.162
 3571POPC   PO454778  -3.546  18.535  18.072
 3571POPC   GL154779  -3.396  18.438  17.982
 3571POPC   GL254780  -3.410  18.360  18.043
 3571POPC   C1A54781  -3.247  18.341  17.891
 3571POPC   D2A54782  -3.097  18.244  17.801
 3571POPC   C3A54783  -2.948  18.147  17.710
 3571POPC   C4A54784  -2.798  18.050  17.620
 3571POPC   C1B54785  -3.377  18.262  17.761
 3571POPC   C2B54786  -3.227  18.165  17.671
 3571POPC   C3B54787  -3.077  18.068  17.580
 3571POPC   C4B54788  -2.928  17.971  17.490
 3572POPC   NC354789  23.115  22.263   8.909
 3572POPC   PO454790  22.967  22.129   8.922
 3572POPC   GL154791  22.819  21.995   8.935
 3572POPC   GL254792  22.807  21.998   8.836
 3572POPC   C1A54793  22.671  21.861   8.948
 3572POPC   D2A54794  22.523  21.727   8.962
 3572POPC   C3A54795  22.375  21.593   8.975
 3572POPC   C4A54796  22.227  21.459   8.988
 3572POPC   C1B54797  22.804  21.713   8.928
 3572POPC   C2B54798  22.656  21.579   8.942
 3572POPC   C3B54799  22.508  21.445   8.955
 3572POPC   C4B54800  22.360  21.311   8.968
 3573POPC   NC354801  -1.507   3.398  22.190
 3573POPC   PO454802  -1.383   3.470  22.050
 3573POPC   GL154803  -1.259   3.542  21.910
 3573POPC   GL254804  -1.233   3.449  21.885
 3573POPC   C1A54805  -1.135   3.614  21.771
 3573POPC   D2A54806  -1.011   3.686  21.631
 3573POPC   C3A54807  -0.887   3.758  21.492
 3573POPC   C4A54808  -0.763   3.830  21.352
 3573POPC   C1B54809  -1.283   3.610  21.637
 3573POPC   C2B54810  -1.159   3.682  21.497
 3573POPC   C3B54811  -1.035   3.754  21.358
 3573POPC   C4B54812  -0.911   3.826  21.218
 3574POPC   NC354813  26.831  12.756  15.289
 3574POPC   PO454814  26.642  12.723  15.231
 3574POPC   GL154815  26.453  12.690  15.173
 3574POPC   GL254816  26.471  12.739  15.087
 3574POPC   C1A54817  26.265  12.657  15.115
 3574POPC   D2A54818  26.076  12.625  15.056
 3574POPC   C3A54819  25.888  12.592  14.998
 3574POPC   C4A54820  25.699  12.559  14.940
 3574POPC   C1B54821  26.321  12.485  15.029
 3574POPC   C2B54822  26.132  12.453  14.971
 3574POPC   C3B54823  25.944  12.420  14.913
 3574POPC   C4B54824  25.755  12.387  14.855
 3575POPC   NC354825   9.903  19.977  -5.104
 3575POPC   PO454826   9.901  19.863  -4.940
 3575POPC   GL154827   9.899  19.749  -4.776
 3575POPC   GL254828   9.995  19.770  -4.760
 3575POPC   C1A54829   9.896  19.635  -4.611
 3575POPC   D2A54830   9.894  19.521  -4.447
 3575POPC   C3A54831   9.891  19.407  -4.282
 3575POPC   C4A54832   9.889  19.293  -4.118
 3575POPC   C1B54833   9.843  19.794  -4.502
 3575POPC   C2B54834   9.841  19.680  -4.337
 3575POPC   C3B54835   9.838  19.566  -4.173
 3575POPC   C4B54836   9.836  19.452  -4.009
 3576POPC   NC354837  15.682  24.703   1.262
 3576POPC   PO454838  15.617  24.539   1.356
 3576POPC   GL154839  15.552  24.375   1.450
 3576POPC   GL254840  15.613  24.395   1.526
 3576POPC   C1A54841  15.487  24.211   1.544
 3576POPC   D2A54842  15.421  24.047   1.637
 3576POPC   C3A54843  15.356  23.883   1.731
 3576POPC   C4A54844  15.291  23.719   1.825
 3576POPC   C1B54845  15.342  24.318   1.631
 3576POPC   C2B54846  15.277  24.154   1.725
 3576POPC   C3B54847  15.212  23.990   1.819
 3576POPC   C4B54848  15.147  23.826   1.912
 3577POPC   NC354849   8.884  11.470  -8.035
 3577POPC   PO454850   8.896  11.454  -7.836
 3577POPC   GL154851   8.908  11.438  -7.637
 3577POPC   GL254852   8.822  11.488  -7.628
 3577POPC   C1A54853   8.920  11.422  -7.438
 3577POPC   D2A54854   8.933  11.406  -7.239
 3577POPC   C3A54855   8.945  11.390  -7.040
 3577POPC   C4A54856   8.957  11.374  -6.841
 3577POPC   C1B54857   8.819  11.250  -7.446
 3577POPC   C2B54858   8.831  11.234  -7.247
 3577POPC   C3B54859   8.844  11.218  -7.048
 3577POPC   C4B54860   8.856  11.202  -6.849
 3578POPC   NC354861  18.377  -4.952   4.539
 3578POPC   PO454862  18.285  -4.785   4.600
 3578POPC   GL154863  18.193  -4.618   4.661
 3578POPC   GL254864  18.263  -4.605   4.731
 3578POPC   C1A54865  18.102  -4.451   4.721
 3578POPC   D2A54866  18.010  -4.283   4.782
 3578POPC   C3A54867  17.919  -4.116   4.842
 3578POPC   C4A54868  17.827  -3.949   4.903
 3578POPC   C1B54869  18.212  -4.344   4.593
 3578POPC   C2B54870  18.121  -4.177   4.654
 3578POPC   C3B54871  18.029  -4.009   4.714
 3578POPC   C4B54872  17.937  -3.842   4.775
 3579POPC   NC354873  -5.445   5.298   1.476
 3579POPC   PO454874  -5.274   5.343   1.570
 3579POPC   GL154875  -5.103   5.388   1.664
 3579POPC   GL254876  -5.155   5.415   1.745
 3579POPC   C1A54877  -4.932   5.434   1.757
 3579POPC   D2A54878  -4.762   5.479   1.851
 3579POPC   C3A54879  -4.591   5.525   1.944
 3579POPC   C4A54880  -4.420   5.570   2.038
 3579POPC   C1B54881  -4.920   5.246   1.826
 3579POPC   C2B54882  -4.750   5.292   1.919
 3579POPC   C3B54883  -4.579   5.337   2.013
 3579POPC   C4B54884  -4.408   5.383   2.107
 3580POPC   NC354885   7.667  -5.489   0.945
 3580POPC   PO454886   7.693  -5.318   1.045
 3580POPC   GL154887   7.719  -5.147   1.145
 3580POPC   GL254888   7.817  -5.150   1.126
 3580POPC   C1A54889   7.745  -4.975   1.245
 3580POPC   D2A54890   7.770  -4.804   1.344
 3580POPC   C3A54891   7.796  -4.632   1.444
 3580POPC   C4A54892   7.822  -4.461   1.544
 3580POPC   C1B54893   7.715  -4.872   1.076
 3580POPC   C2B54894   7.741  -4.701   1.175
 3580POPC   C3B54895   7.767  -4.530   1.275
 3580POPC   C4B54896   7.793  -4.358   1.375
 3581POPC   NC354897   4.789  10.426  -7.392
 3581POPC   PO454898   4.844  10.422  -7.200
 3581POPC   GL154899   4.899  10.418  -7.008
 3581POPC   GL254900   4.866  10.324  -7.000
 3581POPC   C1A54901   4.954  10.415  -6.816
 3581POPC   D2A54902   5.008  10.411  -6.623
 3581POPC   C3A54903   5.063  10.408  -6.431
 3581POPC   C4A54904   5.118  10.404  -6.239
 3581POPC   C1B54905   5.135  10.348  -6.868
 3581POPC   C2B54906   5.189  10.344  -6.676
 3581POPC   C3B54907   5.244  10.341  -6.484
 3581POPC   C4B54908   5.299  10.337  -6.292
 3582POPC   NC354909   3.002  18.108  -4.669
 3582POPC   PO454910   3.079  18.023  -4.505
 3582POPC   GL154911   3.156  17.938  -4.341
 3582POPC   GL254912   3.171  18.028  -4.301
 3582POPC   C1A54913   3.233  17.853  -4.177
 3582POPC   D2A54914   3.309  17.767  -4.014
 3582POPC   C3A54915   3.386  17.682  -3.850
 3582POPC   C4A54916   3.463  17.597  -3.686
 3582POPC   C1B54917   3.050  17.846  -4.095
 3582POPC   C2B54918   3.127  17.761  -3.931
 3582POPC   C3B54919   3.204  17.676  -3.768
 3582POPC   C4B54920   3.281  17.591  -3.604
 3583POPC   NC354921  -7.845  12.554  12.646
 3583POPC   PO454922  -7.649  12.527  12.614
 3583POPC   GL154923  -7.453  12.500  12.582
 3583POPC   GL254924  -7.435  12.521  12.678
 3583POPC   C1A54925  -7.258  12.474  12.551
 3583POPC   D2A54926  -7.062  12.447  12.519
 3583POPC   C3A54927  -6.867  12.421  12.488
 3583POPC   C4A54928  -6.671  12.394  12.456
 3583POPC   C1B54929  -7.277  12.280  12.597
 3583POPC   C2B54930  -7.081  12.253  12.565
 3583POPC   C3B54931  -6.886  12.227  12.534
 3583POPC   C4B54932  -6.690  12.200  12.502
 3584POPC   NC354933  -6.546  16.102  14.430
 3584POPC   PO454934  -6.364  16.033  14.383
 3584POPC   GL154935  -6.182  15.964  14.336
 3584POPC   GL254936  -6.178  15.916  14.424
 3584POPC   C1A54937  -6.000  15.896  14.289
 3584POPC   D2A54938  -5.818  15.827  14.243
 3584POPC   C3A54939  -5.636  15.759  14.196
 3584POPC   C4A54940  -5.454  15.690  14.149
 3584POPC   C1B54941  -6.083  15.735  14.205
 3584POPC   C2B54942  -5.901  15.666  14.158
 3584POPC   C3B54943  -5.719  15.597  14.111
 3584POPC   C4B54944  -5.537  15.529  14.064
 3585POPC   NC354945  27.658   7.312  10.569
 3585POPC   PO454946  27.460   7.337  10.564
 3585POPC   GL154947  27.262   7.362  10.559
 3585POPC   GL254948  27.271   7.419  10.477
 3585POPC   C1A54949  27.063   7.387  10.554
 3585POPC   D2A54950  26.865   7.411  10.550
 3585POPC   C3A54951  26.666   7.436  10.545
 3585POPC   C4A54952  26.468   7.461  10.540
 3585POPC   C1B54953  27.046   7.224  10.439
 3585POPC   C2B54954  26.847   7.249  10.434
 3585POPC   C3B54955  26.649   7.274  10.429
 3585POPC   C4B54956  26.450   7.299  10.425
 3586POPC   NC354957  25.399   2.547   4.429
 3586POPC   PO454958  25.227   2.630   4.487
 3586POPC   GL154959  25.055   2.713   4.545
 3586POPC   GL254960  25.097   2.804   4.542
 3586POPC   C1A54961  24.883   2.796   4.603
 3586POPC   D2A54962  24.710   2.880   4.662
 3586POPC   C3A54963  24.538   2.963   4.720
 3586POPC   C4A54964  24.366   3.046   4.778
 3586POPC   C1B54965  24.827   2.815   4.412
 3586POPC   C2B54966  24.655   2.898   4.470
 3586POPC   C3B54967  24.483   2.982   4.529
 3586POPC   C4B54968  24.310   3.065   4.587
 3587POPC   NC354969  20.574  20.182  -0.370
 3587POPC   PO454970  20.455  20.064  -0.261
 3587POPC   GL154971  20.336  19.946  -0.152
 3587POPC   GL254972  20.416  19.896  -0.119
 3587POPC   C1A54973  20.217  19.828  -0.043
 3587POPC   D2A54974  20.099  19.709   0.067
 3587POPC   C3A54975  19.980  19.591   0.176
 3587POPC   C4A54976  19.861  19.473   0.285
 3587POPC   C1B54977  20.233  19.954   0.111
 3587POPC   C2B54978  20.114  19.836   0.220
 3587POPC   C3B54979  19.995  19.718   0.330
 3587POPC   C4B54980  19.876  19.600   0.439
 3588POPC   NC354981  12.598  27.810   9.092
 3588POPC   PO454982  12.570  27.612   9.100
 3588POPC   GL154983  12.542  27.414   9.108
 3588POPC   GL254984  12.616  27.406   9.174
 3588POPC   C1A54985  12.513  27.216   9.116
 3588POPC   D2A54986  12.485  27.019   9.123
 3588POPC   C3A54987  12.456  26.821   9.131
 3588POPC   C4A54988  12.428  26.623   9.139
 3588POPC   C1B54989  12.384  27.241   9.266
 3588POPC   C2B54990  12.355  27.043   9.274
 3588POPC   C3B54991  12.327  26.845   9.281
 3588POPC   C4B54992  12.298  26.648   9.289
 3589POPC   NC354993  20.182  -4.664  12.020
 3589POPC   PO454994  20.069  -4.501  11.997
 3589POPC   GL154995  19.956  -4.338  11.974
 3589POPC   GL254996  20.033  -4.290  11.931
 3589POPC   C1A54997  19.843  -4.175  11.951
 3589POPC   D2A54998  19.729  -4.011  11.928
 3589POPC   C3A54999  19.616  -3.848  11.905
 3589POPC   C4A55000  19.503  -3.685  11.882
 3589POPC   C1B55001  19.784  -4.241  11.772
 3589POPC   C2B55002  19.670  -4.078  11.749
 3589POPC   C3B55003  19.557  -3.914  11.726
 3589POPC   C4B55004  19.444  -3.751  11.703
 3590POPC   NC355005  13.161  24.430  -0.430
 3590POPC   PO455006  13.127  24.266  -0.320
 3590POPC   GL155007  13.093  24.102  -0.210
 3590POPC   GL255008  13.096  24.046  -0.293
 3590POPC   C1A55009  13.059  23.938  -0.101
 3590POPC   D2A55010  13.024  23.775   0.009
 3590POPC   C3A55011  12.990  23.611   0.118
 3590POPC   C4A55012  12.956  23.447   0.228
 3590POPC   C1B55013  13.256  23.914  -0.076
 3590POPC   C2B55014  13.221  23.750   0.034
 3590POPC   C3B55015  13.187  23.586   0.143
 3590POPC   C4B55016  13.153  23.423   0.253
 3591POPC   NC355017  24.206   6.558  20.245
 3591POPC   PO455018  24.046   6.597  20.132
 3591POPC   GL155019  23.886   6.636  20.019
 3591POPC   GL255020  23.906   6.557  19.962
 3591POPC   C1A55021  23.725   6.675  19.906
 3591POPC   D2A55022  23.565   6.714  19.794
 3591POPC   C3A55023  23.404   6.753  19.681
 3591POPC   C4A55024  23.244   6.792  19.568
 3591POPC   C1B55025  23.613   6.560  20.026
 3591POPC   C2B55026  23.453   6.599  19.913
 3591POPC   C3B55027  23.292   6.638  19.800
 3591POPC   C4B55028  23.132   6.677  19.687
 3592POPC   NC355029   6.909  -0.043  24.672
 3592POPC   PO455030   6.939   0.063  24.505
 3592POPC   GL155031   6.969   0.169  24.338
 3592POPC   GL255032   7.067   0.151  24.345
 3592POPC   C1A55033   7.000   0.276  24.172
 3592POPC   D2A55034   7.030   0.382  24.005
 3592POPC   C3A55035   7.061   0.489  23.839
 3592POPC   C4A55036   7.091   0.595  23.672
 3592POPC   C1B55037   6.976   0.110  24.062
 3592POPC   C2B55038   7.007   0.217  23.895
 3592POPC   C3B55039   7.037   0.323  23.729
 3592POPC   C4B55040   7.067   0.430  23.562
 3593POPC   NC355041   5.661  27.123   5.871
 3593POPC   PO455042   5.705  26.933   5.915
 3593POPC   GL155043   5.749  26.743   5.959
 3593POPC   GL255044   5.778  26.771   6.051
 3593POPC   C1A55045   5.793  26.553   6.004
 3593POPC   D2A55046   5.836  26.363   6.048
 3593POPC   C3A55047   5.880  26.173   6.093
 3593POPC   C4A55048   5.924  25.983   6.137
 3593POPC   C1B55049   5.607  26.526   6.072
 3593POPC   C2B55050   5.650  26.336   6.117
 3593POPC   C3B55051   5.694  26.146   6.161
 3593POPC   C4B55052   5.738  25.956   6.205
 3594POPC   NC355053  27.430  10.296  14.020
 3594POPC   PO455054  27.234  10.290  13.980
 3594POPC   GL155055  27.038  10.284  13.940
 3594POPC   GL255056  27.045  10.372  13.894
 3594POPC   C1A55057  26.842  10.277  13.900
 3594POPC   D2A55058  26.647  10.271  13.859
 3594POPC   C3A55059  26.451  10.264  13.819
 3594POPC   C4A55060  26.255  10.258  13.779
 3594POPC   C1B55061  26.881  10.185  13.726
 3594POPC   C2B55062  26.685  10.178  13.686
 3594POPC   C3B55063  26.489  10.172  13.646
 3594POPC   C4B55064  26.294  10.166  13.606
 3595POPC   NC355065  16.443  -4.449  18.591
 3595POPC   PO455066  16.373  -4.288  18.495
 3595POPC   GL155067  16.303  -4.127  18.399
 3595POPC   GL255068  16.396  -4.089  18.396
 3595POPC   C1A55069  16.234  -3.966  18.304
 3595POPC   D2A55070  16.164  -3.804  18.208
 3595POPC   C3A55071  16.095  -3.643  18.113
 3595POPC   C4A55072  16.025  -3.482  18.017
 3595POPC   C1B55073  16.266  -4.056  18.128
 3595POPC   C2B55074  16.196  -3.895  18.033
 3595POPC   C3B55075  16.126  -3.734  17.937
 3595POPC   C4B55076  16.057  -3.572  17.841
 3596POPC   NC355077  27.312  10.613  14.465
 3596POPC   PO455078  27.118  10.601  14.418
 3596POPC   GL155079  26.924  10.589  14.371
 3596POPC   GL255080  26.940  10.645  14.290
 3596POPC   C1A55081  26.730  10.577  14.324
 3596POPC   D2A55082  26.536  10.566  14.276
 3596POPC   C3A55083  26.342  10.554  14.229
 3596POPC   C4A55084  26.148  10.542  14.182
 3596POPC   C1B55085  26.766  10.413  14.216
 3596POPC   C2B55086  26.572  10.401  14.169
 3596POPC   C3B55087  26.378  10.389  14.122
 3596POPC   C4B55088  26.184  10.377  14.075
 3597POPC   NC355089  11.446  -5.327  19.395
 3597POPC   PO455090  11.429  -5.160  19.286
 3597POPC   GL155091  11.412  -4.993  19.177
 3597POPC   GL255092  11.489  -5.022  19.121
 3597POPC   C1A55093  11.394  -4.826  19.068
 3597POPC   D2A55094  11.377  -4.659  18.960
 3597POPC   C3A55095  11.359  -4.492  18.851
 3597POPC   C4A55096  11.342  -4.325  18.742
 3597POPC   C1B55097  11.268  -4.920  18.944
 3597POPC   C2B55098  11.251  -4.753  18.836
 3597POPC   C3B55099  11.234  -4.586  18.727
 3597POPC   C4B55100  11.216  -4.419  18.618
 3598POPC   NC355101   1.267   6.168  25.354
 3598POPC   PO455102   1.364   6.216  25.186
 3598POPC   GL155103   1.461   6.264  25.018
 3598POPC   GL255104   1.504   6.174  25.017
 3598POPC   C1A55105   1.559   6.312  24.850
 3598POPC   D2A55106   1.656   6.359  24.682
 3598POPC   C3A55107   1.754   6.407  24.514
 3598POPC   C4A55108   1.851   6.455  24.346
 3598POPC   C1B55109   1.407   6.240  24.741
 3598POPC   C2B55110   1.504   6.288  24.573
 3598POPC   C3B55111   1.602   6.336  24.405
 3598POPC   C4B55112   1.699   6.384  24.237
 3599POPC   NC355113  18.735  20.805  21.397
 3599POPC   PO455114  18.635  20.686  21.271
 3599POPC   GL155115  18.535  20.567  21.145
 3599POPC   GL255116  18.621  20.534  21.107
 3599POPC   C1A55117  18.435  20.448  21.020
 3599POPC   D2A55118  18.334  20.329  20.894
 3599POPC   C3A55119  18.234  20.210  20.769
 3599POPC   C4A55120  18.134  20.091  20.643
 3599POPC   C1B55121  18.439  20.301  21.155
 3599POPC   C2B55122  18.339  20.182  21.030
 3599POPC   C3B55123  18.239  20.063  20.904
 3599POPC   C4B55124  18.138  19.944  20.779
 3600POPC   NC355125  27.408   9.891  14.172
 3600POPC   PO455126  27.212   9.888  14.131
 3600POPC   GL155127  27.016   9.885  14.090
 3600POPC   GL255128  27.028   9.962  14.027
 3600POPC   C1A55129  26.820   9.882  14.049
 3600POPC   D2A55130  26.625   9.880  14.009
 3600POPC   C3A55131  26.429   9.877  13.968
 3600POPC   C4A55132  26.233   9.874  13.927
 3600POPC   C1B55133  26.853   9.754  13.900
 3600POPC   C2B55134  26.658   9.751  13.859
 3600POPC   C3B55135  26.462   9.748  13.818
 3600POPC   C4B55136  26.266   9.746  13.777
 3601POPC   NC355137  -4.482  20.418  13.235
 3601POPC   PO455138  -4.324  20.301  13.197
 3601POPC   GL155139  -4.166  20.184  13.159
 3601POPC   GL255140  -4.105  20.261  13.179
 3601POPC   C1A55141  -4.008  20.068  13.120
 3601POPC   D2A55142  -3.851  19.951  13.082
 3601POPC   C3A55143  -3.693  19.835  13.043
 3601POPC   C4A55144  -3.535  19.718  13.005
 3601POPC   C1B55145  -4.003  20.012  13.312
 3601POPC   C2B55146  -3.845  19.896  13.274
 3601POPC   C3B55147  -3.687  19.779  13.235
 3601POPC   C4B55148  -3.529  19.663  13.197
 3602POPC   NC355149   3.297  -6.651  12.344
 3602POPC   PO455150   3.370  -6.467  12.318
 3602POPC   GL155151   3.443  -6.283  12.292
 3602POPC   GL255152   3.449  -6.271  12.392
 3602POPC   C1A55153   3.516  -6.098  12.267
 3602POPC   D2A55154   3.590  -5.914  12.241
 3602POPC   C3A55155   3.663  -5.729  12.216
 3602POPC   C4A55156   3.736  -5.545  12.190
 3602POPC   C1B55157   3.702  -6.172  12.264
 3602POPC   C2B55158   3.775  -5.988  12.238
 3602POPC   C3B55159   3.849  -5.804  12.213
 3602POPC   C4B55160   3.922  -5.619  12.187
 3603POPC   NC355161  -0.044  17.037  23.194
 3603POPC   PO455162   0.067  16.960  23.047
 3603POPC   GL155163   0.178  16.883  22.900
 3603POPC   GL255164   0.243  16.848  22.967
 3603POPC   C1A55165   0.289  16.806  22.752
 3603POPC   D2A55166   0.400  16.728  22.605
 3603POPC   C3A55167   0.511  16.651  22.457
 3603POPC   C4A55168   0.622  16.574  22.310
 3603POPC   C1B55169   0.185  16.635  22.763
 3603POPC   C2B55170   0.296  16.558  22.616
 3603POPC   C3B55171   0.407  16.480  22.469
 3603POPC   C4B55172   0.518  16.403  22.321
 3604POPC   NC355173   9.275  11.464  -8.056
 3604POPC   PO455174   9.283  11.448  -7.857
 3604POPC   GL155175   9.291  11.432  -7.658
 3604POPC   GL255176   9.391  11.423  -7.663
 3604POPC   C1A55177   9.299  11.416  -7.459
 3604POPC   D2A55178   9.308  11.401  -7.259
 3604POPC   C3A55179   9.316  11.385  -7.060
 3604POPC   C4A55180   9.324  11.369  -6.861
 3604POPC   C1B55181   9.319  11.615  -7.444
 3604POPC   C2B55182   9.327  11.599  -7.244
 3604POPC   C3B55183   9.335  11.583  -7.045
 3604POPC   C4B55184   9.343  11.568  -6.846
 3605POPC   NC355185   5.724   4.802  -6.884
 3605POPC   PO455186   5.765   4.857  -6.696
 3605POPC   GL155187   5.806   4.912  -6.508
 3605POPC   GL255188   5.849   4.824  -6.492
 3605POPC   C1A55189   5.847   4.967  -6.320
 3605POPC   D2A55190   5.889   5.023  -6.133
 3605POPC   C3A55191   5.930   5.078  -5.945
 3605POPC   C4A55192   5.971   5.133  -5.757
 3605POPC   C1B55193   6.023   5.041  -6.381
 3605POPC   C2B55194   6.064   5.097  -6.193
 3605POPC   C3B55195   6.106   5.152  -6.005
 3605POPC   C4B55196   6.147   5.207  -5.817
 3606POPC   NC355197  22.710   9.457  22.604
 3606POPC   PO455198  22.568   9.461  22.463
 3606POPC   GL155199  22.426   9.465  22.322
 3606POPC   GL255200  22.475   9.539  22.275
 3606POPC   C1A55201  22.285   9.469  22.181
 3606POPC   D2A55202  22.143   9.474  22.039
 3606POPC   C3A55203  22.002   9.478  21.898
 3606POPC   C4A55204  21.860   9.482  21.757
 3606POPC   C1B55205  22.387   9.334  22.074
 3606POPC   C2B55206  22.245   9.338  21.933
 3606POPC   C3B55207  22.103   9.342  21.792
 3606POPC   C4B55208  21.962   9.346  21.651
 3607POPC   NC355209   8.704  -4.517  20.644
 3607POPC   PO455210   8.716  -4.357  20.525
 3607POPC   GL155211   8.728  -4.197  20.406
 3607POPC   GL255212   8.822  -4.222  20.382
 3607POPC   C1A55213   8.740  -4.036  20.287
 3607POPC   D2A55214   8.753  -3.876  20.169
 3607POPC   C3A55215   8.765  -3.715  20.050
 3607POPC   C4A55216   8.777  -3.555  19.931
 3607POPC   C1B55217   8.672  -4.145  20.134
 3607POPC   C2B55218   8.684  -3.984  20.015
 3607POPC   C3B55219   8.696  -3.824  19.896
 3607POPC   C4B55220   8.708  -3.663  19.778
 3608POPC   NC355221  24.549  -0.490   9.352
 3608POPC   PO455222  24.386  -0.375   9.362
 3608POPC   GL155223  24.223  -0.260   9.372
 3608POPC   GL255224  24.231  -0.241   9.274
 3608POPC   C1A55225  24.059  -0.145   9.381
 3608POPC   D2A55226  23.896  -0.031   9.391
 3608POPC   C3A55227  23.732   0.084   9.400
 3608POPC   C4A55228  23.569   0.199   9.410
 3608POPC   C1B55229  23.945  -0.304   9.340
 3608POPC   C2B55230  23.782  -0.190   9.350
 3608POPC   C3B55231  23.618  -0.075   9.359
 3608POPC   C4B55232  23.455   0.040   9.369
 3609POPC   NC355233  11.538  13.583  27.534
 3609POPC   PO455234  11.517  13.539  27.340
 3609POPC   GL155235  11.496  13.495  27.146
 3609POPC   GL255236  11.592  13.468  27.142
 3609POPC   C1A55237  11.475  13.451  26.952
 3609POPC   D2A55238  11.454  13.406  26.758
 3609POPC   C3A55239  11.433  13.362  26.564
 3609POPC   C4A55240  11.412  13.318  26.370
 3609POPC   C1B55241  11.425  13.263  27.000
 3609POPC   C2B55242  11.404  13.219  26.806
 3609POPC   C3B55243  11.383  13.175  26.612
 3609POPC   C4B55244  11.362  13.130  26.418
 3610POPC   NC355245   9.457  -5.767  18.779
 3610POPC   PO455246   9.463  -5.593  18.680
 3610POPC   GL155247   9.469  -5.419  18.581
 3610POPC   GL255248   9.543  -5.454  18.524
 3610POPC   C1A55249   9.474  -5.246  18.482
 3610POPC   D2A55250   9.480  -5.072  18.382
 3610POPC   C3A55251   9.485  -4.899  18.283
 3610POPC   C4A55252   9.491  -4.725  18.184
 3610POPC   C1B55253   9.341  -5.317  18.350
 3610POPC   C2B55254   9.347  -5.143  18.251
 3610POPC   C3B55255   9.353  -4.969  18.152
 3610POPC   C4B55256   9.358  -4.796  18.052
 3611POPC   NC355257   2.615  11.573  -6.524
 3611POPC   PO455258   2.699  11.554  -6.343
 3611POPC   GL155259   2.783  11.535  -6.162
 3611POPC   GL255260   2.818  11.629  -6.169
 3611POPC   C1A55261   2.867  11.517  -5.982
 3611POPC   D2A55262   2.951  11.498  -5.801
 3611POPC   C3A55263   3.035  11.480  -5.621
 3611POPC   C4A55264   3.119  11.461  -5.440
 3611POPC   C1B55265   2.699  11.585  -5.897
 3611POPC   C2B55266   2.783  11.566  -5.716
 3611POPC   C3B55267   2.867  11.547  -5.535
 3611POPC   C4B55268   2.951  11.529  -5.355
 3612POPC   NC355269  13.836   7.952  -7.602
 3612POPC   PO455270  13.789   7.976  -7.409
 3612POPC   GL155271  13.742   8.000  -7.216
 3612POPC   GL255272  13.737   8.099  -7.230
 3612POPC   C1A55273  13.695   8.025  -7.023
 3612POPC   D2A55274  13.648   8.049  -6.831
 3612POPC   C3A55275  13.601   8.074  -6.638
 3612POPC   C4A55276  13.554   8.098  -6.445
 3612POPC   C1B55277  13.501   8.009  -7.069
 3612POPC   C2B55278  13.454   8.033  -6.876
 3612POPC   C3B55279  13.407   8.057  -6.683
 3612POPC   C4B55280  13.360   8.082  -6.490
 3613POPC   NC355281   9.300  19.552  -5.386
 3613POPC   PO455282   9.304  19.444  -5.218
 3613POPC   GL155283   9.308  19.336  -5.050
 3613POPC   GL255284   9.408  19.335  -5.053
 3613POPC   C1A55285   9.312  19.228  -4.881
 3613POPC   D2A55286   9.315  19.121  -4.713
 3613POPC   C3A55287   9.319  19.013  -4.544
 3613POPC   C4A55288   9.323  18.905  -4.376
 3613POPC   C1B55289   9.318  19.397  -4.774
 3613POPC   C2B55290   9.321  19.289  -4.605
 3613POPC   C3B55291   9.325  19.181  -4.437
 3613POPC   C4B55292   9.329  19.073  -4.268
 3614POPC   NC355293  -7.242   5.050   6.952
 3614POPC   PO455294  -7.054   5.114   6.980
 3614POPC   GL155295  -6.866   5.178   7.008
 3614POPC   GL255296  -6.894   5.222   7.093
 3614POPC   C1A55297  -6.679   5.241   7.036
 3614POPC   D2A55298  -6.491   5.305   7.063
 3614POPC   C3A55299  -6.304   5.368   7.091
 3614POPC   C4A55300  -6.116   5.432   7.119
 3614POPC   C1B55301  -6.637   5.074   7.137
 3614POPC   C2B55302  -6.450   5.138   7.165
 3614POPC   C3B55303  -6.262   5.201   7.193
 3614POPC   C4B55304  -6.074   5.265   7.221
 3615POPC   NC355305   5.393  14.810  26.739
 3615POPC   PO455306   5.438  14.769  26.548
 3615POPC   GL155307   5.483  14.728  26.357
 3615POPC   GL255308   5.502  14.825  26.341
 3615POPC   C1A55309   5.528  14.688  26.167
 3615POPC   D2A55310   5.573  14.647  25.976
 3615POPC   C3A55311   5.618  14.607  25.786
 3615POPC   C4A55312   5.663  14.566  25.595
 3615POPC   C1B55313   5.719  14.659  26.218
 3615POPC   C2B55314   5.764  14.618  26.028
 3615POPC   C3B55315   5.809  14.577  25.837
 3615POPC   C4B55316   5.854  14.537  25.646
 3616POPC   NC355317  -3.294   6.383  21.778
 3616POPC   PO455318  -3.150   6.425  21.645
 3616POPC   GL155319  -3.006   6.467  21.512
 3616POPC   GL255320  -2.967   6.534  21.576
 3616POPC   C1A55321  -2.862   6.508  21.380
 3616POPC   D2A55322  -2.719   6.550  21.247
 3616POPC   C3A55323  -2.575   6.591  21.115
 3616POPC   C4A55324  -2.431   6.633  20.982
 3616POPC   C1B55325  -2.747   6.366  21.460
 3616POPC   C2B55326  -2.604   6.407  21.327
 3616POPC   C3B55327  -2.460   6.449  21.195
 3616POPC   C4B55328  -2.316   6.490  21.062
 3617POPC   NC355329  27.067   6.414  14.117
 3617POPC   PO455330  26.876   6.455  14.072
 3617POPC   GL155331  26.685   6.496  14.027
 3617POPC   GL255332  26.687   6.426  13.956
 3617POPC   C1A55333  26.495   6.536  13.982
 3617POPC   D2A55334  26.304   6.577  13.938
 3617POPC   C3A55335  26.114   6.617  13.893
 3617POPC   C4A55336  25.923   6.658  13.848
 3617POPC   C1B55337  26.434   6.399  14.115
 3617POPC   C2B55338  26.244   6.439  14.070
 3617POPC   C3B55339  26.053   6.480  14.025
 3617POPC   C4B55340  25.863   6.521  13.980
 3618POPC   NC355341  14.703  15.343  26.466
 3618POPC   PO455342  14.657  15.278  26.283
 3618POPC   GL155343  14.611  15.213  26.100
 3618POPC   GL255344  14.708  15.198  26.080
 3618POPC   C1A55345  14.564  15.148  25.916
 3618POPC   D2A55346  14.518  15.084  25.733
 3618POPC   C3A55347  14.471  15.019  25.549
 3618POPC   C4A55348  14.425  14.954  25.366
 3618POPC   C1B55349  14.550  14.962  25.986
 3618POPC   C2B55350  14.503  14.897  25.803
 3618POPC   C3B55351  14.457  14.832  25.619
 3618POPC   C4B55352  14.411  14.767  25.436
 3619POPC   NC355353  -3.710  21.434   6.406
 3619POPC   PO455354  -3.563  21.305   6.446
 3619POPC   GL155355  -3.416  21.176   6.486
 3619POPC   GL255356  -3.450  21.165   6.579
 3619POPC   C1A55357  -3.268  21.047   6.526
 3619POPC   D2A55358  -3.121  20.917   6.565
 3619POPC   C3A55359  -2.973  20.788   6.605
 3619POPC   C4A55360  -2.826  20.659   6.645
 3619POPC   C1B55361  -3.384  20.895   6.465
 3619POPC   C2B55362  -3.237  20.766   6.504
 3619POPC   C3B55363  -3.089  20.637   6.544
 3619POPC   C4B55364  -2.942  20.508   6.584
 3620POPC   NC355365  -8.177  11.036  10.869
 3620POPC   PO455366  -7.978  11.025  10.858
 3620POPC   GL155367  -7.779  11.014  10.847
 3620POPC   GL255368  -7.771  11.091  10.910
 3620POPC   C1A55369  -7.579  11.003  10.836
 3620POPC   D2A55370  -7.380  10.993  10.826
 3620POPC   C3A55371  -7.180  10.982  10.815
 3620POPC   C4A55372  -6.981  10.971  10.804
 3620POPC   C1B55373  -7.578  10.877  10.991
 3620POPC   C2B55374  -7.378  10.866  10.981
 3620POPC   C3B55375  -7.179  10.855  10.970
 3620POPC   C4B55376  -6.979  10.845  10.959
 3621POPC   NC355377  23.192   8.790  -2.151
 3621POPC   PO455378  23.041   8.798  -2.020
 3621POPC   GL155379  22.890   8.806  -1.889
 3621POPC   GL255380  22.874   8.901  -1.913
 3621POPC   C1A55381  22.739   8.814  -1.758
 3621POPC   D2A55382  22.589   8.821  -1.626
 3621POPC   C3A55383  22.438   8.829  -1.495
 3621POPC   C4A55384  22.287   8.837  -1.364
 3621POPC   C1B55385  22.612   8.755  -1.900
 3621POPC   C2B55386  22.461   8.763  -1.769
 3621POPC   C3B55387  22.310   8.771  -1.638
 3621POPC   C4B55388  22.160   8.779  -1.507
 3622POPC   NC355389  22.542   1.343  19.476
 3622POPC   PO455390  22.406   1.436  19.363
 3622POPC   GL155391  22.270   1.529  19.250
 3622POPC   GL255392  22.331   1.523  19.171
 3622POPC   C1A55393  22.134   1.623  19.137
 3622POPC   D2A55394  21.997   1.716  19.025
 3622POPC   C3A55395  21.861   1.810  18.912
 3622POPC   C4A55396  21.725   1.903  18.799
 3622POPC   C1B55397  22.052   1.447  19.090
 3622POPC   C2B55398  21.916   1.540  18.977
 3622POPC   C3B55399  21.780   1.633  18.864
 3622POPC   C4B55400  21.644   1.727  18.751
 3623POPC   NC355401  19.445   6.206  -4.850
 3623POPC   PO455402  19.342   6.245  -4.683
 3623POPC   GL155403  19.239   6.284  -4.516
 3623POPC   GL255404  19.252   6.382  -4.531
 3623POPC   C1A55405  19.136   6.324  -4.349
 3623POPC   D2A55406  19.034   6.363  -4.182
 3623POPC   C3A55407  18.931   6.403  -4.015
 3623POPC   C4A55408  18.828   6.442  -3.848
 3623POPC   C1B55409  18.967   6.330  -4.455
 3623POPC   C2B55410  18.864   6.369  -4.288
 3623POPC   C3B55411  18.761   6.409  -4.121
 3623POPC   C4B55412  18.658   6.448  -3.954
 3624POPC   NC355413  10.855   3.216  -6.748
 3624POPC   PO455414  10.847   3.288  -6.562
 3624POPC   GL155415  10.839   3.360  -6.376
 3624POPC   GL255416  10.896   3.438  -6.403
 3624POPC   C1A55417  10.831   3.433  -6.190
 3624POPC   D2A55418  10.822   3.505  -6.003
 3624POPC   C3A55419  10.814   3.578  -5.817
 3624POPC   C4A55420  10.806   3.650  -5.631
 3624POPC   C1B55421  10.666   3.536  -6.237
 3624POPC   C2B55422  10.658   3.609  -6.051
 3624POPC   C3B55423  10.650   3.681  -5.865
 3624POPC   C4B55424  10.642   3.754  -5.678
 3625POPC   NC355425  10.967  27.767  12.705
 3625POPC   PO455426  10.954  27.570  12.674
 3625POPC   GL155427  10.941  27.373  12.643
 3625POPC   GL255428  11.025  27.376  12.589
 3625POPC   C1A55429  10.928  27.176  12.613
 3625POPC   D2A55430  10.914  26.978  12.582
 3625POPC   C3A55431  10.901  26.781  12.552
 3625POPC   C4A55432  10.888  26.584  12.521
 3625POPC   C1B55433  11.035  27.143  12.778
 3625POPC   C2B55434  11.022  26.946  12.748
 3625POPC   C3B55435  11.009  26.748  12.717
 3625POPC   C4B55436  10.996  26.551  12.686
 3626POPC   NC355437  20.768  -3.808  13.988
 3626POPC   PO455438  20.649  -3.654  13.942
 3626POPC   GL155439  20.530  -3.500  13.896
 3626POPC   GL255440  20.592  -3.438  13.944
 3626POPC   C1A55441  20.411  -3.346  13.850
 3626POPC   D2A55442  20.291  -3.193  13.805
 3626POPC   C3A55443  20.172  -3.039  13.759
 3626POPC   C4A55444  20.053  -2.885  13.713
 3626POPC   C1B55445  20.512  -3.318  13.680
 3626POPC   C2B55446  20.393  -3.165  13.635
 3626POPC   C3B55447  20.274  -3.011  13.589
 3626POPC   C4B55448  20.154  -2.857  13.543
 3627POPC   NC355449  10.769  15.662  -7.162
 3627POPC   PO455450  10.757  15.598  -6.973
 3627POPC   GL155451  10.745  15.534  -6.784
 3627POPC   GL255452  10.843  15.517  -6.783
 3627POPC   C1A55453  10.733  15.471  -6.595
 3627POPC   D2A55454  10.720  15.407  -6.405
 3627POPC   C3A55455  10.708  15.344  -6.216
 3627POPC   C4A55456  10.696  15.280  -6.027
 3627POPC   C1B55457  10.765  15.657  -6.530
 3627POPC   C2B55458  10.753  15.594  -6.341
 3627POPC   C3B55459  10.740  15.530  -6.151
 3627POPC   C4B55460  10.728  15.466  -5.962
 3628POPC   NC355461  10.547  27.861   7.569
 3628POPC   PO455462  10.540  27.663   7.595
 3628POPC   GL155463  10.533  27.465   7.621
 3628POPC   GL255464  10.622  27.467   7.666
 3628POPC   C1A55465  10.525  27.267   7.647
 3628POPC   D2A55466  10.518  27.068   7.672
 3628POPC   C3A55467  10.510  26.870   7.698
 3628POPC   C4A55468  10.503  26.672   7.724
 3628POPC   C1B55469  10.434  27.293   7.823
 3628POPC   C2B55470  10.427  27.095   7.849
 3628POPC   C3B55471  10.420  26.897   7.874
 3628POPC   C4B55472  10.412  26.698   7.900
 3629POPC   NC355473   4.025  25.380   2.491
 3629POPC   PO455474   4.093  25.212   2.576
 3629POPC   GL155475   4.161  25.044   2.661
 3629POPC   GL255476   4.208  25.099   2.730
 3629POPC   C1A55477   4.229  24.877   2.746
 3629POPC   D2A55478   4.297  24.709   2.832
 3629POPC   C3A55479   4.365  24.542   2.917
 3629POPC   C4A55480   4.433  24.374   3.002
 3629POPC   C1B55481   4.066  24.870   2.863
 3629POPC   C2B55482   4.134  24.702   2.948
 3629POPC   C3B55483   4.202  24.535   3.033
 3629POPC   C4B55484   4.270  24.367   3.118
 3630POPC   NC355485   5.911  15.519  -6.815
 3630POPC   PO455486   5.955  15.456  -6.631
 3630POPC   GL155487   5.999  15.393  -6.447
 3630POPC   GL255488   6.084  15.445  -6.449
 3630POPC   C1A55489   6.044  15.330  -6.262
 3630POPC   D2A55490   6.088  15.266  -6.078
 3630POPC   C3A55491   6.133  15.203  -5.893
 3630POPC   C4A55492   6.177  15.140  -5.709
 3630POPC   C1B55493   5.948  15.487  -6.185
 3630POPC   C2B55494   5.993  15.424  -6.001
 3630POPC   C3B55495   6.037  15.361  -5.816
 3630POPC   C4B55496   6.081  15.298  -5.632
 3631POPC   NC355497   4.747  21.727  -2.830
 3631POPC   PO455498   4.799  21.592  -2.692
 3631POPC   GL155499   4.851  21.457  -2.554
 3631POPC   GL255500   4.929  21.429  -2.610
 3631POPC   C1A55501   4.902  21.321  -2.416
 3631POPC   D2A55502   4.954  21.186  -2.278
 3631POPC   C3A55503   5.005  21.050  -2.140
 3631POPC   C4A55504   5.057  20.915  -2.002
 3631POPC   C1B55505   5.016  21.458  -2.324
 3631POPC   C2B55506   5.067  21.322  -2.186
 3631POPC   C3B55507   5.119  21.187  -2.048
 3631POPC   C4B55508   5.171  21.052  -1.910
 3632POPC   NC355509   8.669  -7.966  10.991
 3632POPC   PO455510   8.681  -7.767  10.980
 3632POPC   GL155511   8.693  -7.568  10.969
 3632POPC   GL255512   8.786  -7.576  10.931
 3632POPC   C1A55513   8.706  -7.368  10.958
 3632POPC   D2A55514   8.718  -7.169  10.946
 3632POPC   C3A55515   8.731  -6.969  10.935
 3632POPC   C4A55516   8.743  -6.770  10.924
 3632POPC   C1B55517   8.629  -7.374  10.773
 3632POPC   C2B55518   8.641  -7.174  10.762
 3632POPC   C3B55519   8.654  -6.975  10.751
 3632POPC   C4B55520   8.666  -6.776  10.739
 3633POPC   NC355521  -4.466   4.356  19.493
 3633POPC   PO455522  -4.311   4.420  19.384
 3633POPC   GL155523  -4.156   4.484  19.275
 3633POPC   GL255524  -4.093   4.451  19.345
 3633POPC   C1A55525  -4.001   4.548  19.165
 3633POPC   D2A55526  -3.847   4.611  19.056
 3633POPC   C3A55527  -3.692   4.675  18.946
 3633POPC   C4A55528  -3.537   4.739  18.837
 3633POPC   C1B55529  -3.992   4.370  19.074
 3633POPC   C2B55530  -3.838   4.434  18.965
 3633POPC   C3B55531  -3.683   4.497  18.855
 3633POPC   C4B55532  -3.528   4.561  18.746
 3634POPC   NC355533  11.156  -7.582  13.891
 3634POPC   PO455534  11.140  -7.387  13.850
 3634POPC   GL155535  11.124  -7.192  13.809
 3634POPC   GL255536  11.197  -7.200  13.741
 3634POPC   C1A55537  11.108  -6.997  13.769
 3634POPC   D2A55538  11.092  -6.801  13.728
 3634POPC   C3A55539  11.076  -6.606  13.688
 3634POPC   C4A55540  11.060  -6.411  13.647
 3634POPC   C1B55541  10.971  -7.037  13.629
 3634POPC   C2B55542  10.955  -6.842  13.588
 3634POPC   C3B55543  10.939  -6.646  13.547
 3634POPC   C4B55544  10.923  -6.451  13.507
 3635POPC   NC355545  23.391   7.963  -1.844
 3635POPC   PO455546  23.239   7.978  -1.715
 3635POPC   GL155547  23.087   7.993  -1.586
 3635POPC   GL255548  23.035   8.047  -1.653
 3635POPC   C1A55549  22.935   8.009  -1.457
 3635POPC   D2A55550  22.782   8.024  -1.329
 3635POPC   C3A55551  22.630   8.040  -1.200
 3635POPC   C4A55552  22.478   8.055  -1.071
 3635POPC   C1B55553  22.856   7.840  -1.531
 3635POPC   C2B55554  22.703   7.856  -1.402
 3635POPC   C3B55555  22.551   7.871  -1.273
 3635POPC   C4B55556  22.399   7.886  -1.144
 3636POPC   NC355557   1.867  25.808  13.290
 3636POPC   PO455558   1.953  25.633  13.247
 3636POPC   GL155559   2.039  25.458  13.204
 3636POPC   GL255560   2.105  25.472  13.278
 3636POPC   C1A55561   2.125  25.283  13.161
 3636POPC   D2A55562   2.212  25.107  13.118
 3636POPC   C3A55563   2.298  24.932  13.075
 3636POPC   C4A55564   2.384  24.757  13.032
 3636POPC   C1B55565   2.002  25.191  13.289
 3636POPC   C2B55566   2.088  25.015  13.246
 3636POPC   C3B55567   2.175  24.840  13.203
 3636POPC   C4B55568   2.261  24.665  13.160
 3637POPC   NC355569  25.154   1.049   6.549
 3637POPC   PO455570  24.984   1.148   6.583
 3637POPC   GL155571  24.814   1.247   6.617
 3637POPC   GL255572  24.835   1.309   6.542
 3637POPC   C1A55573  24.644   1.346   6.651
 3637POPC   D2A55574  24.473   1.446   6.686
 3637POPC   C3A55575  24.303   1.545   6.720
 3637POPC   C4A55576  24.133   1.644   6.754
 3637POPC   C1B55577  24.547   1.225   6.525
 3637POPC   C2B55578  24.377   1.324   6.560
 3637POPC   C3B55579  24.207   1.423   6.594
 3637POPC   C4B55580  24.037   1.522   6.628
 3638POPC   NC355581   7.379  27.626  13.085
 3638POPC   PO455582   7.404  27.430  13.051
 3638POPC   GL155583   7.429  27.234  13.017
 3638POPC   GL255584   7.510  27.235  13.076
 3638POPC   C1A55585   7.454  27.039  12.983
 3638POPC   D2A55586   7.479  26.843  12.950
 3638POPC   C3A55587   7.504  26.648  12.916
 3638POPC   C4A55588   7.529  26.452  12.882
 3638POPC   C1B55589   7.340  26.997  13.142
 3638POPC   C2B55590   7.365  26.801  13.108
 3638POPC   C3B55591   7.390  26.606  13.074
 3638POPC   C4B55592   7.415  26.410  13.041
 3639POPC   NC355593  -0.290  -2.307  18.445
 3639POPC   PO455594  -0.178  -2.170  18.351
 3639POPC   GL155595  -0.066  -2.033  18.257
 3639POPC   GL255596  -0.045  -1.990  18.345
 3639POPC   C1A55597   0.045  -1.896  18.163
 3639POPC   D2A55598   0.157  -1.759  18.070
 3639POPC   C3A55599   0.268  -1.622  17.976
 3639POPC   C4A55600   0.380  -1.485  17.882
 3639POPC   C1B55601   0.206  -2.014  18.182
 3639POPC   C2B55602   0.317  -1.877  18.088
 3639POPC   C3B55603   0.429  -1.740  17.994
 3639POPC   C4B55604   0.540  -1.603  17.900
 3640POPC   NC355605  10.850  26.097  18.070
 3640POPC   PO455606  10.838  25.919  17.979
 3640POPC   GL155607  10.826  25.741  17.888
 3640POPC   GL255608  10.853  25.784  17.802
 3640POPC   C1A55609  10.814  25.563  17.797
 3640POPC   D2A55610  10.803  25.386  17.707
 3640POPC   C3A55611  10.791  25.208  17.616
 3640POPC   C4A55612  10.779  25.030  17.525
 3640POPC   C1B55613  11.007  25.529  17.840
 3640POPC   C2B55614  10.995  25.351  17.749
 3640POPC   C3B55615  10.983  25.173  17.658
 3640POPC   C4B55616  10.971  24.996  17.568
 3641POPC   NC355617  16.221  16.422  -5.699
 3641POPC   PO455618  16.153  16.348  -5.526
 3641POPC   GL155619  16.085  16.274  -5.353
 3641POPC   GL255620  16.134  16.189  -5.370
 3641POPC   C1A55621  16.017  16.200  -5.180
 3641POPC   D2A55622  15.950  16.127  -5.006
 3641POPC   C3A55623  15.882  16.053  -4.833
 3641POPC   C4A55624  15.814  15.979  -4.660
 3641POPC   C1B55625  16.178  16.273  -5.086
 3641POPC   C2B55626  16.111  16.199  -4.912
 3641POPC   C3B55627  16.043  16.125  -4.739
 3641POPC   C4B55628  15.975  16.052  -4.566
 3642POPC   NC355629  25.201   2.166   4.406
 3642POPC   PO455630  25.031   2.254   4.465
 3642POPC   GL155631  24.861   2.342   4.524
 3642POPC   GL255632  24.910   2.428   4.538
 3642POPC   C1A55633  24.691   2.430   4.582
 3642POPC   D2A55634  24.521   2.517   4.641
 3642POPC   C3A55635  24.351   2.605   4.699
 3642POPC   C4A55636  24.181   2.693   4.758
 3642POPC   C1B55637  24.653   2.482   4.393
 3642POPC   C2B55638  24.483   2.570   4.452
 3642POPC   C3B55639  24.313   2.658   4.510
 3642POPC   C4B55640  24.143   2.746   4.569
 3643POPC   NC355641   1.588   5.248  -5.447
 3643POPC   PO455642   1.681   5.300  -5.278
 3643POPC   GL155643   1.774   5.352  -5.109
 3643POPC   GL255644   1.849   5.290  -5.131
 3643POPC   C1A55645   1.866   5.404  -4.939
 3643POPC   D2A55646   1.959   5.457  -4.770
 3643POPC   C3A55647   2.051   5.509  -4.600
 3643POPC   C4A55648   2.144   5.561  -4.431
 3643POPC   C1B55649   1.960   5.552  -5.036
 3643POPC   C2B55650   2.052   5.605  -4.867
 3643POPC   C3B55651   2.145   5.657  -4.697
 3643POPC   C4B55652   2.238   5.709  -4.528
 3644POPC   NC355653  16.006  -6.489   5.970
 3644POPC   PO455654  15.936  -6.307   6.014
 3644POPC   GL155655  15.866  -6.125   6.058
 3644POPC   GL255656  15.953  -6.102   6.102
 3644POPC   C1A55657  15.796  -5.943   6.103
 3644POPC   D2A55658  15.727  -5.761   6.147
 3644POPC   C3A55659  15.657  -5.579   6.192
 3644POPC   C4A55660  15.587  -5.397   6.236
 3644POPC   C1B55661  15.865  -5.874   5.928
 3644POPC   C2B55662  15.796  -5.692   5.973
 3644POPC   C3B55663  15.726  -5.510   6.017
 3644POPC   C4B55664  15.656  -5.328   6.061
 3645POPC   NC355665  27.510  13.789  10.250
 3645POPC   PO455666  27.314  13.751  10.243
 3645POPC   GL155667  27.118  13.713  10.236
 3645POPC   GL255668  27.121  13.713  10.136
 3645POPC   C1A55669  26.922  13.675  10.229
 3645POPC   D2A55670  26.725  13.637  10.223
 3645POPC   C3A55671  26.529  13.599  10.216
 3645POPC   C4A55672  26.333  13.561  10.209
 3645POPC   C1B55673  26.960  13.479  10.231
 3645POPC   C2B55674  26.763  13.441  10.224
 3645POPC   C3B55675  26.567  13.403  10.217
 3645POPC   C4B55676  26.371  13.365  10.211
 3646POPC   NC355677  25.479   0.936  10.524
 3646POPC   PO455678  25.305   1.035  10.520
 3646POPC   GL155679  25.131   1.134  10.516
 3646POPC   GL255680  25.174   1.207  10.463
 3646POPC   C1A55681  24.957   1.233  10.512
 3646POPC   D2A55682  24.784   1.332  10.508
 3646POPC   C3A55683  24.610   1.431  10.504
 3646POPC   C4A55684  24.436   1.530  10.500
 3646POPC   C1B55685  24.908   1.140  10.342
 3646POPC   C2B55686  24.734   1.239  10.338
 3646POPC   C3B55687  24.561   1.338  10.334
 3646POPC   C4B55688  24.387   1.437  10.330
 3647POPC   NC355689   9.188  -3.941  -1.537
 3647POPC   PO455690   9.196  -3.786  -1.411
 3647POPC   GL155691   9.204  -3.631  -1.285
 3647POPC   GL255692   9.217  -3.569  -1.362
 3647POPC   C1A55693   9.212  -3.476  -1.159
 3647POPC   D2A55694   9.221  -3.321  -1.033
 3647POPC   C3A55695   9.229  -3.166  -0.907
 3647POPC   C4A55696   9.237  -3.011  -0.781
 3647POPC   C1B55697   9.014  -3.454  -1.174
 3647POPC   C2B55698   9.022  -3.299  -1.048
 3647POPC   C3B55699   9.031  -3.144  -0.922
 3647POPC   C4B55700   9.039  -2.989  -0.796
 3648POPC   NC355701   6.191  -5.559   1.553
 3648POPC   PO455702   6.229  -5.386   1.646
 3648POPC   GL155703   6.267  -5.213   1.739
 3648POPC   GL255704   6.291  -5.263   1.822
 3648POPC   C1A55705   6.306  -5.040   1.832
 3648POPC   D2A55706   6.344  -4.868   1.925
 3648POPC   C3A55707   6.383  -4.695   2.018
 3648POPC   C4A55708   6.421  -4.522   2.111
 3648POPC   C1B55709   6.496  -5.050   1.772
 3648POPC   C2B55710   6.535  -4.877   1.865
 3648POPC   C3B55711   6.573  -4.705   1.958
 3648POPC   C4B55712   6.611  -4.532   2.051
 3649POPC   NC355713  21.680  19.178  20.021
 3649POPC   PO455714  21.550  19.077  19.908
 3649POPC   GL155715  21.420  18.976  19.795
 3649POPC   GL255716  21.494  18.917  19.762
 3649POPC   C1A55717  21.289  18.875  19.682
 3649POPC   D2A55718  21.159  18.775  19.568
 3649POPC   C3A55719  21.028  18.674  19.455
 3649POPC   C4A55720  20.898  18.573  19.342
 3649POPC   C1B55721  21.256  18.749  19.833
 3649POPC   C2B55722  21.125  18.648  19.720
 3649POPC   C3B55723  20.995  18.547  19.606
 3649POPC   C4B55724  20.864  18.447  19.493
 3650POPC   NC355725   7.357  14.402  -7.415
 3650POPC   PO455726   7.383  14.353  -7.223
 3650POPC   GL155727   7.409  14.304  -7.031
 3650POPC   GL255728   7.418  14.401  -7.007
 3650POPC   C1A55729   7.436  14.255  -6.839
 3650POPC   D2A55730   7.462  14.207  -6.646
 3650POPC   C3A55731   7.489  14.158  -6.454
 3650POPC   C4A55732   7.515  14.109  -6.262
 3650POPC   C1B55733   7.238  14.266  -6.809
 3650POPC   C2B55734   7.265  14.217  -6.617
 3650POPC   C3B55735   7.291  14.169  -6.424
 3650POPC   C4B55736   7.318  14.120  -6.232
 3651POPC   NC355737  -7.110  13.349   4.983
 3651POPC   PO455738  -6.921  13.311   5.038
 3651POPC   GL155739  -6.732  13.273   5.093
 3651POPC   GL255740  -6.752  13.308   5.185
 3651POPC   C1A55741  -6.544  13.235   5.148
 3651POPC   D2A55742  -6.355  13.198   5.203
 3651POPC   C3A55743  -6.167  13.160   5.258
 3651POPC   C4A55744  -5.978  13.122   5.313
 3651POPC   C1B55745  -6.598  13.052   5.206
 3651POPC   C2B55746  -6.409  13.014   5.261
 3651POPC   C3B55747  -6.220  12.976   5.316
 3651POPC   C4B55748  -6.032  12.938   5.371
 3652POPC   NC355749  -7.143   5.782  14.212
 3652POPC   PO455750  -6.954   5.829  14.168
 3652POPC   GL155751  -6.765   5.876  14.124
 3652POPC   GL255752  -6.742   5.876  14.221
 3652POPC   C1A55753  -6.576   5.924  14.079
 3652POPC   D2A55754  -6.386   5.971  14.035
 3652POPC   C3A55755  -6.197   6.019  13.990
 3652POPC   C4A55756  -6.008   6.066  13.946
 3652POPC   C1B55757  -6.530   5.730  14.067
 3652POPC   C2B55758  -6.341   5.777  14.022
 3652POPC   C3B55759  -6.151   5.824  13.978
 3652POPC   C4B55760  -5.962   5.872  13.934
 3653POPC   NC355761  10.787   9.847  27.988
 3653POPC   PO455762  10.776   9.849  27.788
 3653POPC   GL155763  10.765   9.851  27.588
 3653POPC   GL255764  10.793   9.947  27.588
 3653POPC   C1A55765  10.754   9.853  27.388
 3653POPC   D2A55766  10.744   9.856  27.189
 3653POPC   C3A55767  10.733   9.858  26.989
 3653POPC   C4A55768  10.722   9.860  26.789
 3653POPC   C1B55769  10.946   9.798  27.377
 3653POPC   C2B55770  10.935   9.800  27.178
 3653POPC   C3B55771  10.925   9.802  26.978
 3653POPC   C4B55772  10.914   9.804  26.778
 3654POPC   NC355773  12.549  27.626  12.560
 3654POPC   PO455774  12.522  27.430  12.529
 3654POPC   GL155775  12.495  27.234  12.498
 3654POPC   GL255776  12.583  27.229  12.452
 3654POPC   C1A55777  12.467  27.039  12.467
 3654POPC   D2A55778  12.440  26.843  12.436
 3654POPC   C3A55779  12.412  26.648  12.405
 3654POPC   C4A55780  12.385  26.452  12.374
 3654POPC   C1B55781  12.556  26.999  12.642
 3654POPC   C2B55782  12.528  26.803  12.611
 3654POPC   C3B55783  12.501  26.608  12.580
 3654POPC   C4B55784  12.474  26.412  12.549
 3655POPC   NC355785  25.105  15.859   2.207
 3655POPC   PO455786  24.937  15.795   2.295
 3655POPC   GL155787  24.769  15.731   2.383
 3655POPC   GL255788  24.817  15.649   2.414
 3655POPC   C1A55789  24.601  15.667   2.470
 3655POPC   D2A55790  24.433  15.603   2.558
 3655POPC   C3A55791  24.265  15.539   2.645
 3655POPC   C4A55792  24.097  15.475   2.733
 3655POPC   C1B55793  24.653  15.761   2.639
 3655POPC   C2B55794  24.485  15.697   2.726
 3655POPC   C3B55795  24.317  15.633   2.814
 3655POPC   C4B55796  24.149  15.569   2.902
 3656POPC   NC355797   5.572  22.558  22.084
 3656POPC   PO455798   5.617  22.418  21.948
 3656POPC   GL155799   5.662  22.278  21.812
 3656POPC   GL255800   5.704  22.348  21.754
 3656POPC   C1A55801   5.707  22.138  21.676
 3656POPC   D2A55802   5.752  21.999  21.541
 3656POPC   C3A55803   5.797  21.859  21.405
 3656POPC   C4A55804   5.842  21.719  21.269
 3656POPC   C1B55805   5.883  22.107  21.767
 3656POPC   C2B55806   5.928  21.968  21.631
 3656POPC   C3B55807   5.973  21.828  21.495
 3656POPC   C4B55808   6.018  21.688  21.359
 3657POPC   NC355809  16.674  20.419  -3.184
 3657POPC   PO455810  16.597  20.307  -3.038
 3657POPC   GL155811  16.520  20.195  -2.892
 3657POPC   GL255812  16.599  20.134  -2.896
 3657POPC   C1A55813  16.443  20.082  -2.745
 3657POPC   D2A55814  16.365  19.970  -2.599
 3657POPC   C3A55815  16.288  19.857  -2.452
 3657POPC   C4A55816  16.211  19.745  -2.306
 3657POPC   C1B55817  16.537  20.194  -2.609
 3657POPC   C2B55818  16.460  20.082  -2.463
 3657POPC   C3B55819  16.383  19.970  -2.316
 3657POPC   C4B55820  16.305  19.857  -2.170
 3658POPC   NC355821  16.420   6.227  -6.394
 3658POPC   PO455822  16.344   6.268  -6.213
 3658POPC   GL155823  16.268   6.309  -6.032
 3658POPC   GL255824  16.183   6.340  -6.075
 3658POPC   C1A55825  16.192   6.349  -5.852
 3658POPC   D2A55826  16.116   6.390  -5.671
 3658POPC   C3A55827  16.040   6.430  -5.491
 3658POPC   C4A55828  15.964   6.471  -5.310
 3658POPC   C1B55829  16.119   6.163  -5.841
 3658POPC   C2B55830  16.043   6.204  -5.660
 3658POPC   C3B55831  15.967   6.245  -5.480
 3658POPC   C4B55832  15.891   6.285  -5.299
 3659POPC   NC355833  21.721  19.987  19.162
 3659POPC   PO455834  21.590  19.873  19.062
 3659POPC   GL155835  21.459  19.759  18.962
 3659POPC   GL255836  21.535  19.715  18.913
 3659POPC   C1A55837  21.328  19.646  18.862
 3659POPC   D2A55838  21.198  19.532  18.762
 3659POPC   C3A55839  21.067  19.419  18.662
 3659POPC   C4A55840  20.936  19.305  18.562
 3659POPC   C1B55841  21.339  19.507  19.006
 3659POPC   C2B55842  21.208  19.393  18.906
 3659POPC   C3B55843  21.078  19.280  18.806
 3659POPC   C4B55844  20.947  19.166  18.706
 3660POPC   NC355845  16.994  26.484   9.295
 3660POPC   PO455846  16.911  26.302   9.302
 3660POPC   GL155847  16.828  26.120   9.309
 3660POPC   GL255848  16.886  26.091   9.233
 3660POPC   C1A55849  16.745  25.938   9.316
 3660POPC   D2A55850  16.661  25.757   9.324
 3660POPC   C3A55851  16.578  25.575   9.331
 3660POPC   C4A55852  16.495  25.393   9.338
 3660POPC   C1B55853  16.885  25.879   9.446
 3660POPC   C2B55854  16.802  25.698   9.453
 3660POPC   C3B55855  16.718  25.516   9.461
 3660POPC   C4B55856  16.635  25.334   9.468
 3661POPC   NC355857   9.352  -3.161  22.274
 3661POPC   PO455858   9.353  -3.015  22.137
 3661POPC   GL155859   9.354  -2.869  22.000
 3661POPC   GL255860   9.361  -2.801  22.073
 3661POPC   C1A55861   9.354  -2.723  21.863
 3661POPC   D2A55862   9.355  -2.578  21.727
 3661POPC   C3A55863   9.355  -2.432  21.590
 3661POPC   C4A55864   9.356  -2.286  21.453
 3661POPC   C1B55865   9.554  -2.734  21.853
 3661POPC   C2B55866   9.554  -2.588  21.716
 3661POPC   C3B55867   9.555  -2.443  21.579
 3661POPC   C4B55868   9.555  -2.297  21.442
 3662POPC   NC355869   6.051  -5.230   1.015
 3662POPC   PO455870   6.090  -5.060   1.113
 3662POPC   GL155871   6.129  -4.890   1.211
 3662POPC   GL255872   6.227  -4.914   1.213
 3662POPC   C1A55873   6.169  -4.720   1.309
 3662POPC   D2A55874   6.208  -4.551   1.407
 3662POPC   C3A55875   6.248  -4.381   1.505
 3662POPC   C4A55876   6.287  -4.211   1.603
 3662POPC   C1B55877   6.195  -4.626   1.135
 3662POPC   C2B55878   6.235  -4.456   1.233
 3662POPC   C3B55879   6.274  -4.286   1.331
 3662POPC   C4B55880   6.313  -4.117   1.429
 3663POPC   NC355881   0.549  23.154  18.090
 3663POPC   PO455882   0.651  23.006  18.003
 3663POPC   GL155883   0.753  22.858  17.916
 3663POPC   GL255884   0.829  22.874  17.978
 3663POPC   C1A55885   0.855  22.710  17.829
 3663POPC   D2A55886   0.957  22.561  17.741
 3663POPC   C3A55887   1.059  22.413  17.654
 3663POPC   C4A55888   1.161  22.265  17.567
 3663POPC   C1B55889   0.776  22.579  17.958
 3663POPC   C2B55890   0.878  22.431  17.871
 3663POPC   C3B55891   0.980  22.283  17.784
 3663POPC   C4B55892   1.082  22.135  17.697
 3664POPC   NC355893  16.753  19.530  23.637
 3664POPC   PO455894  16.677  19.426  23.484
 3664POPC   GL155895  16.601  19.322  23.331
 3664POPC   GL255896  16.622  19.237  23.379
 3664POPC   C1A55897  16.524  19.218  23.179
 3664POPC   D2A55898  16.448  19.113  23.026
 3664POPC   C3A55899  16.371  19.009  22.874
 3664POPC   C4A55900  16.295  18.905  22.721
 3664POPC   C1B55901  16.345  19.221  23.267
 3664POPC   C2B55902  16.268  19.116  23.114
 3664POPC   C3B55903  16.192  19.012  22.961
 3664POPC   C4B55904  16.115  18.908  22.809
 3665POPC   NC355905  24.524  -0.314   7.890
 3665POPC   PO455906  24.360  -0.201   7.913
 3665POPC   GL155907  24.196  -0.088   7.936
 3665POPC   GL255908  24.152  -0.138   7.862
 3665POPC   C1A55909  24.033   0.024   7.960
 3665POPC   D2A55910  23.869   0.137   7.983
 3665POPC   C3A55911  23.706   0.249   8.007
 3665POPC   C4A55912  23.542   0.362   8.030
 3665POPC   C1B55913  23.961  -0.108   8.092
 3665POPC   C2B55914  23.797   0.005   8.115
 3665POPC   C3B55915  23.634   0.117   8.139
 3665POPC   C4B55916  23.470   0.230   8.162
 3666POPC   NC355917   9.088  -7.839   7.238
 3666POPC   PO455918   9.099  -7.641   7.264
 3666POPC   GL155919   9.110  -7.443   7.290
 3666POPC   GL255920   9.209  -7.447   7.277
 3666POPC   C1A55921   9.121  -7.245   7.316
 3666POPC   D2A55922   9.133  -7.047   7.343
 3666POPC   C3A55923   9.144  -6.849   7.369
 3666POPC   C4A55924   9.155  -6.651   7.395
 3666POPC   C1B55925   9.096  -7.218   7.120
 3666POPC   C2B55926   9.108  -7.020   7.146
 3666POPC   C3B55927   9.119  -6.822   7.172
 3666POPC   C4B55928   9.130  -6.624   7.198
 3667POPC   NC355929   7.953  27.919  10.966
 3667POPC   PO455930   7.969  27.720  10.956
 3667POPC   GL155931   7.985  27.521  10.946
 3667POPC   GL255932   8.032  27.520  11.034
 3667POPC   C1A55933   8.002  27.322  10.936
 3667POPC   D2A55934   8.018  27.123  10.926
 3667POPC   C3A55935   8.035  26.924  10.916
 3667POPC   C4A55936   8.051  26.725  10.906
 3667POPC   C1B55937   7.826  27.303  11.029
 3667POPC   C2B55938   7.842  27.104  11.019
 3667POPC   C3B55939   7.859  26.905  11.009
 3667POPC   C4B55940   7.875  26.706  10.999
 3668POPC   NC355941  26.732   8.473  16.281
 3668POPC   PO455942  26.546   8.492  16.210
 3668POPC   GL155943  26.360   8.511  16.139
 3668POPC   GL255944  26.371   8.427  16.086
 3668POPC   C1A55945  26.174   8.530  16.068
 3668POPC   D2A55946  25.988   8.550  15.996
 3668POPC   C3A55947  25.802   8.569  15.925
 3668POPC   C4A55948  25.616   8.588  15.854
 3668POPC   C1B55949  26.104   8.425  16.222
 3668POPC   C2B55950  25.918   8.444  16.151
 3668POPC   C3B55951  25.732   8.463  16.080
 3668POPC   C4B55952  25.546   8.482  16.009
 3669POPC   NC355953  -1.882  -2.344   3.802
 3669POPC   PO455954  -1.749  -2.209   3.866
 3669POPC   GL155955  -1.616  -2.074   3.930
 3669POPC   GL255956  -1.589  -2.136   4.004
 3669POPC   C1A55957  -1.483  -1.940   3.994
 3669POPC   D2A55958  -1.349  -1.805   4.058
 3669POPC   C3A55959  -1.216  -1.671   4.122
 3669POPC   C4A55960  -1.083  -1.536   4.186
 3669POPC   C1B55961  -1.343  -2.021   3.876
 3669POPC   C2B55962  -1.210  -1.887   3.940
 3669POPC   C3B55963  -1.077  -1.752   4.004
 3669POPC   C4B55964  -0.944  -1.617   4.068
 3670POPC   NC355965  17.590  -6.278  11.029
 3670POPC   PO455966  17.503  -6.098  11.016
 3670POPC   GL155967  17.416  -5.918  11.003
 3670POPC   GL255968  17.440  -5.913  10.907
 3670POPC   C1A55969  17.329  -5.739  10.991
 3670POPC   D2A55970  17.242  -5.559  10.978
 3670POPC   C3A55971  17.155  -5.380  10.966
 3670POPC   C4A55972  17.068  -5.200  10.953
 3670POPC   C1B55973  17.156  -5.826  10.943
 3670POPC   C2B55974  17.069  -5.647  10.930
 3670POPC   C3B55975  16.982  -5.467  10.917
 3670POPC   C4B55976  16.895  -5.287  10.905
 3671POPC   NC355977  -2.120  17.020  -1.655
 3671POPC   PO455978  -1.989  16.942  -1.526
 3671POPC   GL155979  -1.858  16.864  -1.397
 3671POPC   GL255980  -1.792  16.934  -1.421
 3671POPC   C1A55981  -1.727  16.785  -1.268
 3671POPC   D2A55982  -1.596  16.707  -1.138
 3671POPC   C3A55983  -1.465  16.628  -1.009
 3671POPC   C4A55984  -1.334  16.550  -0.880
 3671POPC   C1B55985  -1.799  16.903  -1.123
 3671POPC   C2B55986  -1.668  16.824  -0.994
 3671POPC   C3B55987  -1.537  16.746  -0.864
 3671POPC   C4B55988  -1.406  16.668  -0.735
 3672POPC   NC355989  -7.491   5.088   9.571
 3672POPC   PO455990  -7.299   5.145   9.577
 3672POPC   GL155991  -7.107   5.202   9.583
 3672POPC   GL255992  -7.084   5.118   9.631
 3672POPC   C1A55993  -6.916   5.259   9.589
 3672POPC   D2A55994  -6.724   5.316   9.594
 3672POPC   C3A55995  -6.533   5.373   9.600
 3672POPC   C4A55996  -6.341   5.430   9.606
 3672POPC   C1B55997  -6.883   5.168   9.414
 3672POPC   C2B55998  -6.692   5.225   9.419
 3672POPC   C3B55999  -6.500   5.282   9.425
 3672POPC   C4B56000  -6.308   5.339   9.431
 3673POPC   NC356001  23.613  -1.234   6.668
 3673POPC   PO456002  23.460  -1.111   6.704
 3673POPC   GL156003  23.307  -0.988   6.740
 3673POPC   GL256004  23.304  -0.963   6.643
 3673POPC   C1A56005  23.153  -0.865   6.776
 3673POPC   D2A56006  23.000  -0.741   6.812
 3673POPC   C3A56007  22.846  -0.618   6.848
 3673POPC   C4A56008  22.693  -0.495   6.884
 3673POPC   C1B56009  23.025  -1.014   6.741
 3673POPC   C2B56010  22.872  -0.891   6.777
 3673POPC   C3B56011  22.718  -0.768   6.813
 3673POPC   C4B56012  22.565  -0.644   6.849
 3674POPC   NC356013   4.205  -6.227  15.560
 3674POPC   PO456014   4.269  -6.048  15.499
 3674POPC   GL156015   4.333  -5.869  15.438
 3674POPC   GL256016   4.424  -5.888  15.475
 3674POPC   C1A56017   4.397  -5.690  15.376
 3674POPC   D2A56018   4.461  -5.510  15.315
 3674POPC   C3A56019   4.525  -5.331  15.253
 3674POPC   C4A56020   4.589  -5.152  15.192
 3674POPC   C1B56021   4.453  -5.769  15.201
 3674POPC   C2B56022   4.517  -5.590  15.140
 3674POPC   C3B56023   4.581  -5.411  15.079
 3674POPC   C4B56024   4.645  -5.232  15.017
 3675POPC   NC356025  -2.754  14.235  -2.308
 3675POPC   PO456026  -2.619  14.191  -2.168
 3675POPC   GL156027  -2.484  14.147  -2.028
 3675POPC   GL256028  -2.557  14.120  -1.965
 3675POPC   C1A56029  -2.348  14.103  -1.887
 3675POPC   D2A56030  -2.213  14.058  -1.747
 3675POPC   C3A56031  -2.077  14.014  -1.606
 3675POPC   C4A56032  -1.942  13.970  -1.466
 3675POPC   C1B56033  -2.337  13.915  -1.957
 3675POPC   C2B56034  -2.202  13.871  -1.816
 3675POPC   C3B56035  -2.067  13.827  -1.676
 3675POPC   C4B56036  -1.931  13.783  -1.535
 3676POPC   NC356037   6.813  11.710  -7.783
 3676POPC   PO456038   6.846  11.693  -7.586
 3676POPC   GL156039   6.879  11.676  -7.389
 3676POPC   GL256040   6.781  11.687  -7.372
 3676POPC   C1A56041   6.912  11.659  -7.193
 3676POPC   D2A56042   6.945  11.643  -6.996
 3676POPC   C3A56043   6.978  11.626  -6.800
 3676POPC   C4A56044   7.011  11.609  -6.603
 3676POPC   C1B56045   6.887  11.461  -7.206
 3676POPC   C2B56046   6.920  11.445  -7.009
 3676POPC   C3B56047   6.953  11.428  -6.812
 3676POPC   C4B56048   6.986  11.411  -6.616
 3677POPC   NC356049  21.480   6.644  23.330
 3677POPC   PO456050  21.349   6.686  23.185
 3677POPC   GL156051  21.218   6.728  23.040
 3677POPC   GL256052  21.280   6.797  23.004
 3677POPC   C1A56053  21.087   6.769  22.895
 3677POPC   D2A56054  20.955   6.811  22.750
 3677POPC   C3A56055  20.824   6.852  22.605
 3677POPC   C4A56056  20.693   6.894  22.460
 3677POPC   C1B56057  21.173   6.632  22.778
 3677POPC   C2B56058  21.041   6.673  22.633
 3677POPC   C3B56059  20.910   6.715  22.488
 3677POPC   C4B56060  20.779   6.757  22.343
 3678POPC   NC356061  11.135  15.872  -7.063
 3678POPC   PO456062  11.119  15.806  -6.875
 3678POPC   GL156063  11.103  15.740  -6.687
 3678POPC   GL256064  11.196  15.703  -6.692
 3678POPC   C1A56065  11.087  15.674  -6.499
 3678POPC   D2A56066  11.072  15.608  -6.310
 3678POPC   C3A56067  11.056  15.542  -6.122
 3678POPC   C4A56068  11.040  15.476  -5.934
 3678POPC   C1B56069  11.159  15.848  -6.431
 3678POPC   C2B56070  11.144  15.782  -6.243
 3678POPC   C3B56071  11.128  15.716  -6.055
 3678POPC   C4B56072  11.112  15.650  -5.867
 3679POPC   NC356073  25.105   0.312   9.907
 3679POPC   PO456074  24.935   0.418   9.911
 3679POPC   GL156075  24.765   0.524   9.915
 3679POPC   GL256076  24.763   0.524   9.815
 3679POPC   C1A56077  24.596   0.630   9.919
 3679POPC   D2A56078  24.426   0.736   9.924
 3679POPC   C3A56079  24.257   0.842   9.928
 3679POPC   C4A56080  24.087   0.948   9.932
 3679POPC   C1B56081  24.490   0.460   9.922
 3679POPC   C2B56082  24.320   0.566   9.926
 3679POPC   C3B56083  24.151   0.672   9.931
 3679POPC   C4B56084  23.981   0.778   9.935
 3680POPC   NC356085  -5.656  19.212   8.453
 3680POPC   PO456086  -5.484  19.111   8.469
 3680POPC   GL156087  -5.312  19.010   8.485
 3680POPC   GL256088  -5.353  18.952   8.556
 3680POPC   C1A56089  -5.140  18.910   8.502
 3680POPC   D2A56090  -4.968  18.809   8.518
 3680POPC   C3A56091  -4.796  18.709   8.535
 3680POPC   C4A56092  -4.624  18.608   8.551
 3680POPC   C1B56093  -5.201  18.782   8.360
 3680POPC   C2B56094  -5.029  18.682   8.377
 3680POPC   C3B56095  -4.857  18.581   8.393
 3680POPC   C4B56096  -4.685  18.480   8.410
 3681POPC   NC356097  -1.559  23.926  11.447
 3681POPC   PO456098  -1.432  23.772  11.436
 3681POPC   GL156099  -1.305  23.618  11.425
 3681POPC   GL256100  -1.236  23.671  11.473
 3681POPC   C1A56101  -1.179  23.463  11.414
 3681POPC   D2A56102  -1.052  23.309  11.404
 3681POPC   C3A56103  -0.926  23.154  11.393
 3681POPC   C4A56104  -0.799  23.000  11.382
 3681POPC   C1B56105  -1.247  23.395  11.590
 3681POPC   C2B56106  -1.120  23.241  11.579
 3681POPC   C3B56107  -0.993  23.087  11.568
 3681POPC   C4B56108  -0.867  22.932  11.558
 3682POPC   NC356109   4.043  24.858   1.529
 3682POPC   PO456110   4.108  24.695   1.625
 3682POPC   GL156111   4.173  24.532   1.721
 3682POPC   GL256112   4.225  24.590   1.785
 3682POPC   C1A56113   4.239  24.369   1.817
 3682POPC   D2A56114   4.304  24.207   1.914
 3682POPC   C3A56115   4.370  24.044   2.010
 3682POPC   C4A56116   4.435  23.881   2.106
 3682POPC   C1B56117   4.080  24.377   1.939
 3682POPC   C2B56118   4.145  24.215   2.035
 3682POPC   C3B56119   4.211  24.052   2.131
 3682POPC   C4B56120   4.276  23.889   2.227
 3683POPC   NC356121   4.319   1.965  25.176
 3683POPC   PO456122   4.376   2.050  25.004
 3683POPC   GL156123   4.433   2.135  24.832
 3683POPC   GL256124   4.464   2.047  24.799
 3683POPC   C1A56125   4.490   2.221  24.661
 3683POPC   D2A56126   4.547   2.306  24.489
 3683POPC   C3A56127   4.604   2.392  24.318
 3683POPC   C4A56128   4.661   2.477  24.146
 3683POPC   C1B56129   4.309   2.186  24.583
 3683POPC   C2B56130   4.366   2.271  24.412
 3683POPC   C3B56131   4.423   2.357  24.240
 3683POPC   C4B56132   4.480   2.442  24.069
 3684POPC   NC356133   5.679  11.457  -7.576
 3684POPC   PO456134   5.724  11.443  -7.382
 3684POPC   GL156135   5.769  11.429  -7.188
 3684POPC   GL256136   5.817  11.517  -7.192
 3684POPC   C1A56137   5.814  11.415  -6.993
 3684POPC   D2A56138   5.860  11.401  -6.799
 3684POPC   C3A56139   5.905  11.387  -6.604
 3684POPC   C4A56140   5.950  11.373  -6.410
 3684POPC   C1B56141   5.645  11.510  -6.947
 3684POPC   C2B56142   5.690  11.496  -6.752
 3684POPC   C3B56143   5.735  11.482  -6.558
 3684POPC   C4B56144   5.780  11.468  -6.364
 3685POPC   NC356145  21.312  23.771  12.156
 3685POPC   PO456146  21.184  23.620  12.129
 3685POPC   GL156147  21.056  23.469  12.102
 3685POPC   GL256148  21.121  23.425  12.039
 3685POPC   C1A56149  20.928  23.317  12.075
 3685POPC   D2A56150  20.801  23.166  12.048
 3685POPC   C3A56151  20.673  23.014  12.021
 3685POPC   C4A56152  20.545  22.863  11.994
 3685POPC   C1B56153  21.012  23.219  12.228
 3685POPC   C2B56154  20.885  23.068  12.201
 3685POPC   C3B56155  20.757  22.916  12.174
 3685POPC   C4B56156  20.629  22.765  12.147
 3686POPC   NC356157  -7.248   6.866  14.744
 3686POPC   PO456158  -7.057   6.901  14.695
 3686POPC   GL156159  -6.866   6.936  14.646
 3686POPC   GL256160  -6.841   6.935  14.743
 3686POPC   C1A56161  -6.676   6.971  14.597
 3686POPC   D2A56162  -6.485   7.007  14.548
 3686POPC   C3A56163  -6.295   7.042  14.499
 3686POPC   C4A56164  -6.104   7.077  14.450
 3686POPC   C1B56165  -6.642   6.775  14.586
 3686POPC   C2B56166  -6.452   6.810  14.537
 3686POPC   C3B56167  -6.261   6.845  14.488
 3686POPC   C4B56168  -6.071   6.880  14.439
 3687POPC   NC356169  14.197  27.492   9.030
 3687POPC   PO456170  14.147  27.299   9.041
 3687POPC   GL156171  14.097  27.106   9.052
 3687POPC   GL256172  14.084  27.103   8.953
 3687POPC   C1A56173  14.047  26.912   9.063
 3687POPC   D2A56174  13.997  26.719   9.075
 3687POPC   C3A56175  13.947  26.525   9.086
 3687POPC   C4A56176  13.897  26.332   9.097
 3687POPC   C1B56177  14.239  26.861   9.040
 3687POPC   C2B56178  14.189  26.668   9.052
 3687POPC   C3B56179  14.139  26.474   9.063
 3687POPC   C4B56180  14.089  26.281   9.074
 3688POPC   NC356181  -0.200   5.900  -4.509
 3688POPC   PO456182  -0.087   5.946  -4.351
 3688POPC   GL156183   0.026   5.992  -4.193
 3688POPC   GL256184  -0.056   6.006  -4.138
 3688POPC   C1A56185   0.139   6.039  -4.035
 3688POPC   D2A56186   0.253   6.085  -3.876
 3688POPC   C3A56187   0.366   6.132  -3.718
 3688POPC   C4A56188   0.479   6.178  -3.560
 3688POPC   C1B56189   0.144   5.846  -3.981
 3688POPC   C2B56190   0.257   5.892  -3.823
 3688POPC   C3B56191   0.371   5.939  -3.665
 3688POPC   C4B56192   0.484   5.985  -3.507
 3689POPC   NC356193  -5.459  14.986   1.847
 3689POPC   PO456194  -5.287  14.927   1.930
 3689POPC   GL156195  -5.115  14.868   2.013
 3689POPC   GL256196  -5.147  14.901   2.102
 3689POPC   C1A56197  -4.943  14.809   2.096
 3689POPC   D2A56198  -4.771  14.751   2.180
 3689POPC   C3A56199  -4.599  14.692   2.263
 3689POPC   C4A56200  -4.427  14.633   2.346
 3689POPC   C1B56201  -5.023  14.630   2.135
 3689POPC   C2B56202  -4.851  14.571   2.218
 3689POPC   C3B56203  -4.679  14.513   2.301
 3689POPC   C4B56204  -4.507  14.454   2.384
 3690POPC   NC356205   8.048   1.514  25.723
 3690POPC   PO456206   8.070   1.604  25.546
 3690POPC   GL156207   8.092   1.694  25.369
 3690POPC   GL256208   8.172   1.743  25.404
 3690POPC   C1A56209   8.114   1.783  25.191
 3690POPC   D2A56210   8.137   1.873  25.014
 3690POPC   C3A56211   8.159   1.962  24.836
 3690POPC   C4A56212   8.181   2.052  24.659
 3690POPC   C1B56213   8.234   1.635  25.131
 3690POPC   C2B56214   8.256   1.724  24.954
 3690POPC   C3B56215   8.278   1.814  24.776
 3690POPC   C4B56216   8.301   1.903  24.599
 3691POPC   NC356217  19.201  25.229  12.474
 3691POPC   PO456218  19.100  25.058  12.452
 3691POPC   GL156219  18.999  24.887  12.430
 3691POPC   GL256220  19.068  24.854  12.365
 3691POPC   C1A56221  18.898  24.715  12.409
 3691POPC   D2A56222  18.797  24.544  12.387
 3691POPC   C3A56223  18.696  24.372  12.366
 3691POPC   C4A56224  18.595  24.201  12.344
 3691POPC   C1B56225  19.003  24.634  12.559
 3691POPC   C2B56226  18.902  24.463  12.537
 3691POPC   C3B56227  18.801  24.292  12.515
 3691POPC   C4B56228  18.700  24.120  12.494
 3692POPC   NC356229   7.628  -7.898  10.365
 3692POPC   PO456230   7.651  -7.699  10.361
 3692POPC   GL156231   7.674  -7.500  10.357
 3692POPC   GL256232   7.772  -7.512  10.345
 3692POPC   C1A56233   7.697  -7.302  10.353
 3692POPC   D2A56234   7.719  -7.103  10.349
 3692POPC   C3A56235   7.742  -6.905  10.345
 3692POPC   C4A56236   7.765  -6.706  10.341
 3692POPC   C1B56237   7.673  -7.303  10.154
 3692POPC   C2B56238   7.696  -7.104  10.150
 3692POPC   C3B56239   7.719  -6.906  10.146
 3692POPC   C4B56240   7.741  -6.707  10.142
 3693POPC   NC356241  -6.336   2.119  11.083
 3693POPC   PO456242  -6.156   2.204  11.069
 3693POPC   GL156243  -5.976   2.289  11.055
 3693POPC   GL256244  -5.933   2.199  11.047
 3693POPC   C1A56245  -5.795   2.375  11.041
 3693POPC   D2A56246  -5.615   2.460  11.028
 3693POPC   C3A56247  -5.434   2.546  11.014
 3693POPC   C4A56248  -5.254   2.631  11.000
 3693POPC   C1B56249  -5.814   2.383  10.842
 3693POPC   C2B56250  -5.634   2.469  10.829
 3693POPC   C3B56251  -5.454   2.554  10.815
 3693POPC   C4B56252  -5.273   2.639  10.801
 3694POPC   NC356253  16.068  -4.619  18.569
 3694POPC   PO456254  16.002  -4.456  18.474
 3694POPC   GL156255  15.936  -4.293  18.379
 3694POPC   GL256256  16.030  -4.261  18.368
 3694POPC   C1A56257  15.869  -4.130  18.284
 3694POPC   D2A56258  15.803  -3.968  18.188
 3694POPC   C3A56259  15.736  -3.805  18.093
 3694POPC   C4A56260  15.670  -3.642  17.998
 3694POPC   C1B56261  15.881  -4.228  18.109
 3694POPC   C2B56262  15.815  -4.065  18.014
 3694POPC   C3B56263  15.748  -3.902  17.919
 3694POPC   C4B56264  15.682  -3.739  17.824
 3695POPC   NC356265  11.431  23.230  22.077
 3695POPC   PO456266  11.408  23.083  21.943
 3695POPC   GL156267  11.385  22.936  21.809
 3695POPC   GL256268  11.381  23.004  21.736
 3695POPC   C1A56269  11.362  22.789  21.676
 3695POPC   D2A56270  11.339  22.642  21.542
 3695POPC   C3A56271  11.316  22.495  21.409
 3695POPC   C4A56272  11.293  22.348  21.275
 3695POPC   C1B56273  11.561  22.777  21.654
 3695POPC   C2B56274  11.538  22.630  21.521
 3695POPC   C3B56275  11.515  22.483  21.387
 3695POPC   C4B56276  11.492  22.336  21.254
 3696POPC   NC356277   8.099  26.534   2.822
 3696POPC   PO456278   8.119  26.351   2.900
 3696POPC   GL156279   8.139  26.168   2.978
 3696POPC   GL256280   8.216  26.150   2.917
 3696POPC   C1A56281   8.160  25.985   3.056
 3696POPC   D2A56282   8.180  25.802   3.135
 3696POPC   C3A56283   8.201  25.619   3.213
 3696POPC   C4A56284   8.221  25.436   3.291
 3696POPC   C1B56285   8.286  26.058   3.193
 3696POPC   C2B56286   8.306  25.875   3.272
 3696POPC   C3B56287   8.327  25.692   3.350
 3696POPC   C4B56288   8.347  25.509   3.428
 3697POPC   NC356289  27.627   8.420   7.508
 3697POPC   PO456290  27.429   8.436   7.533
 3697POPC   GL156291  27.231   8.452   7.558
 3697POPC   GL256292  27.221   8.355   7.536
 3697POPC   C1A56293  27.033   8.468   7.583
 3697POPC   D2A56294  26.836   8.484   7.607
 3697POPC   C3A56295  26.638   8.500   7.632
 3697POPC   C4A56296  26.440   8.516   7.657
 3697POPC   C1B56297  27.054   8.422   7.776
 3697POPC   C2B56298  26.856   8.438   7.801
 3697POPC   C3B56299  26.658   8.454   7.826
 3697POPC   C4B56300  26.461   8.470   7.851
 3698POPC   NC356301  -4.308  15.525   0.117
 3698POPC   PO456302  -4.149  15.460   0.219
 3698POPC   GL156303  -3.990  15.395   0.321
 3698POPC   GL256304  -3.950  15.486   0.318
 3698POPC   C1A56305  -3.831  15.330   0.424
 3698POPC   D2A56306  -3.672  15.264   0.526
 3698POPC   C3A56307  -3.513  15.199   0.629
 3698POPC   C4A56308  -3.354  15.134   0.731
 3698POPC   C1B56309  -3.923  15.376   0.595
 3698POPC   C2B56310  -3.764  15.311   0.698
 3698POPC   C3B56311  -3.605  15.245   0.800
 3698POPC   C4B56312  -3.446  15.180   0.903
 3699POPC   NC356313  27.429  10.032   5.954
 3699POPC   PO456314  27.234  10.034   5.996
 3699POPC   GL156315  27.039  10.036   6.038
 3699POPC   GL256316  27.025   9.957   5.977
 3699POPC   C1A56317  26.843  10.037   6.080
 3699POPC   D2A56318  26.648  10.039   6.123
 3699POPC   C3A56319  26.452  10.040   6.165
 3699POPC   C4A56320  26.257  10.042   6.207
 3699POPC   C1B56321  26.875   9.913   6.234
 3699POPC   C2B56322  26.680   9.914   6.276
 3699POPC   C3B56323  26.485   9.916   6.318
 3699POPC   C4B56324  26.289   9.918   6.360
 3700POPC   NC356325   7.825  26.115   2.000
 3700POPC   PO456326   7.849  25.939   2.091
 3700POPC   GL156327   7.873  25.763   2.182
 3700POPC   GL256328   7.972  25.772   2.173
 3700POPC   C1A56329   7.897  25.586   2.273
 3700POPC   D2A56330   7.921  25.410   2.364
 3700POPC   C3A56331   7.945  25.233   2.455
 3700POPC   C4A56332   7.969  25.057   2.546
 3700POPC   C1B56333   7.904  25.679   2.450
 3700POPC   C2B56334   7.928  25.502   2.541
 3700POPC   C3B56335   7.952  25.326   2.632
 3700POPC   C4B56336   7.976  25.149   2.723
 3701POPC   NC356337  15.233  26.879  13.379
 3701POPC   PO456338  15.175  26.692  13.339
 3701POPC   GL156339  15.117  26.505  13.299
 3701POPC   GL256340  15.171  26.471  13.376
 3701POPC   C1A56341  15.058  26.318  13.259
 3701POPC   D2A56342  15.000  26.131  13.218
 3701POPC   C3A56343  14.941  25.944  13.178
 3701POPC   C4A56344  14.883  25.757  13.138
 3701POPC   C1B56345  14.901  26.341  13.380
 3701POPC   C2B56346  14.842  26.154  13.340
 3701POPC   C3B56347  14.784  25.967  13.300
 3701POPC   C4B56348  14.726  25.780  13.259
 3702POPC   NC356349  20.856   0.085  -0.370
 3702POPC   PO456350  20.732   0.192  -0.254
 3702POPC   GL156351  20.608   0.299  -0.138
 3702POPC   GL256352  20.687   0.345  -0.097
 3702POPC   C1A56353  20.485   0.405  -0.022
 3702POPC   D2A56354  20.361   0.512   0.093
 3702POPC   C3A56355  20.238   0.618   0.209
 3702POPC   C4A56356  20.114   0.725   0.325
 3702POPC   C1B56357  20.475   0.547  -0.163
 3702POPC   C2B56358  20.351   0.654  -0.047
 3702POPC   C3B56359  20.228   0.760   0.068
 3702POPC   C4B56360  20.104   0.867   0.184
 3703POPC   NC356361   0.411  23.013   1.885
 3703POPC   PO456362   0.516  22.866   1.971
 3703POPC   GL156363   0.621  22.719   2.057
 3703POPC   GL256364   0.694  22.784   2.080
 3703POPC   C1A56365   0.726  22.572   2.144
 3703POPC   D2A56366   0.831  22.426   2.230
 3703POPC   C3A56367   0.936  22.279   2.317
 3703POPC   C4A56368   1.041  22.132   2.403
 3703POPC   C1B56369   0.637  22.612   2.319
 3703POPC   C2B56370   0.742  22.465   2.405
 3703POPC   C3B56371   0.847  22.318   2.491
 3703POPC   C4B56372   0.952  22.171   2.578
 3704POPC   NC356373  17.748  26.133  10.239
 3704POPC   PO456374  17.658  25.955  10.237
 3704POPC   GL156375  17.568  25.777  10.235
 3704POPC   GL256376  17.657  25.732  10.232
 3704POPC   C1A56377  17.478  25.598  10.232
 3704POPC   D2A56378  17.387  25.420  10.230
 3704POPC   C3A56379  17.297  25.241  10.227
 3704POPC   C4A56380  17.207  25.063  10.225
 3704POPC   C1B56381  17.481  25.594  10.432
 3704POPC   C2B56382  17.391  25.415  10.430
 3704POPC   C3B56383  17.301  25.237  10.427
 3704POPC   C4B56384  17.211  25.059  10.425
 3705POPC   NC356385  24.624  13.758  19.678
 3705POPC   PO456386  24.461  13.715  19.570
 3705POPC   GL156387  24.298  13.672  19.462
 3705POPC   GL256388  24.311  13.575  19.481
 3705POPC   C1A56389  24.135  13.630  19.354
 3705POPC   D2A56390  23.973  13.587  19.246
 3705POPC   C3A56391  23.810  13.545  19.138
 3705POPC   C4A56392  23.647  13.502  19.030
 3705POPC   C1B56393  24.022  13.646  19.518
 3705POPC   C2B56394  23.859  13.603  19.410
 3705POPC   C3B56395  23.697  13.561  19.302
 3705POPC   C4B56396  23.534  13.518  19.194
 3706POPC   NC356397  -4.972   3.516  18.060
 3706POPC   PO456398  -4.809   3.592  17.972
 3706POPC   GL156399  -4.646   3.668  17.884
 3706POPC   GL256400  -4.614   3.576  17.864
 3706POPC   C1A56401  -4.484   3.745  17.796
 3706POPC   D2A56402  -4.321   3.821  17.708
 3706POPC   C3A56403  -4.159   3.898  17.620
 3706POPC   C4A56404  -3.996   3.974  17.532
 3706POPC   C1B56405  -4.581   3.749  17.621
 3706POPC   C2B56406  -4.418   3.826  17.533
 3706POPC   C3B56407  -4.255   3.902  17.445
 3706POPC   C4B56408  -4.093   3.978  17.357
 3707POPC   NC356409   1.874   2.328  -4.315
 3707POPC   PO456410   1.966   2.417  -4.162
 3707POPC   GL156411   2.058   2.506  -4.009
 3707POPC   GL256412   1.979   2.489  -3.951
 3707POPC   C1A56413   2.151   2.595  -3.855
 3707POPC   D2A56414   2.243   2.684  -3.702
 3707POPC   C3A56415   2.336   2.773  -3.548
 3707POPC   C4A56416   2.428   2.862  -3.395
 3707POPC   C1B56417   2.229   2.419  -3.800
 3707POPC   C2B56418   2.321   2.508  -3.647
 3707POPC   C3B56419   2.414   2.597  -3.493
 3707POPC   C4B56420   2.506   2.686  -3.340
 3708POPC   NC356421  17.727  23.552   1.041
 3708POPC   PO456422  17.638  23.403   1.141
 3708POPC   GL156423  17.549  23.254   1.241
 3708POPC   GL256424  17.495  23.232   1.160
 3708POPC   C1A56425  17.460  23.106   1.341
 3708POPC   D2A56426  17.371  22.957   1.441
 3708POPC   C3A56427  17.282  22.809   1.541
 3708POPC   C4A56428  17.193  22.660   1.641
 3708POPC   C1B56429  17.603  22.980   1.281
 3708POPC   C2B56430  17.514  22.831   1.381
 3708POPC   C3B56431  17.425  22.682   1.481
 3708POPC   C4B56432  17.336  22.534   1.581
 3709POPC   NC356433  -0.943   4.020  22.978
 3709POPC   PO456434  -0.824   4.088  22.833
 3709POPC   GL156435  -0.705   4.156  22.688
 3709POPC   GL256436  -0.633   4.093  22.717
 3709POPC   C1A56437  -0.586   4.224  22.542
 3709POPC   D2A56438  -0.467   4.293  22.397
 3709POPC   C3A56439  -0.348   4.361  22.251
 3709POPC   C4A56440  -0.229   4.429  22.106
 3709POPC   C1B56441  -0.659   4.086  22.418
 3709POPC   C2B56442  -0.540   4.154  22.272
 3709POPC   C3B56443  -0.421   4.222  22.127
 3709POPC   C4B56444  -0.302   4.290  21.982
 3710POPC   NC356445  13.468  -6.721  15.727
 3710POPC   PO456446  13.425  -6.536  15.664
 3710POPC   GL156447  13.382  -6.351  15.601
 3710POPC   GL256448  13.417  -6.374  15.510
 3710POPC   C1A56449  13.340  -6.166  15.538
 3710POPC   D2A56450  13.297  -5.981  15.474
 3710POPC   C3A56451  13.255  -5.796  15.411
 3710POPC   C4A56452  13.212  -5.611  15.348
 3710POPC   C1B56453  13.157  -6.227  15.483
 3710POPC   C2B56454  13.115  -6.042  15.420
 3710POPC   C3B56455  13.072  -5.857  15.357
 3710POPC   C4B56456  13.029  -5.672  15.294
 3711POPC   NC356457  18.795  24.981   5.267
 3711POPC   PO456458  18.702  24.810   5.312
 3711POPC   GL156459  18.609  24.639   5.357
 3711POPC   GL256460  18.690  24.608   5.406
 3711POPC   C1A56461  18.516  24.468   5.403
 3711POPC   D2A56462  18.422  24.297   5.448
 3711POPC   C3A56463  18.329  24.126   5.494
 3711POPC   C4A56464  18.236  23.955   5.539
 3711POPC   C1B56465  18.446  24.551   5.571
 3711POPC   C2B56466  18.353  24.380   5.617
 3711POPC   C3B56467  18.260  24.209   5.662
 3711POPC   C4B56468  18.167  24.038   5.707
 3712POPC   NC356469  11.674  -7.831  12.128
 3712POPC   PO456470  11.658  -7.633  12.104
 3712POPC   GL156471  11.642  -7.435  12.080
 3712POPC   GL256472  11.729  -7.434  12.030
 3712POPC   C1A56473  11.626  -7.237  12.055
 3712POPC   D2A56474  11.609  -7.040  12.031
 3712POPC   C3A56475  11.593  -6.842  12.006
 3712POPC   C4A56476  11.577  -6.644  11.982
 3712POPC   C1B56477  11.528  -7.267  11.883
 3712POPC   C2B56478  11.512  -7.069  11.859
 3712POPC   C3B56479  11.495  -6.871  11.834
 3712POPC   C4B56480  11.479  -6.673  11.810
 3713POPC   NC356481   0.534  24.801   5.879
 3713POPC   PO456482   0.640  24.637   5.922
 3713POPC   GL156483   0.746  24.473   5.965
 3713POPC   GL256484   0.830  24.525   5.958
 3713POPC   C1A56485   0.851  24.309   6.009
 3713POPC   D2A56486   0.957  24.144   6.052
 3713POPC   C3A56487   1.062  23.980   6.096
 3713POPC   C4A56488   1.168  23.816   6.139
 3713POPC   C1B56489   0.840  24.353   6.204
 3713POPC   C2B56490   0.946  24.189   6.247
 3713POPC   C3B56491   1.051  24.025   6.290
 3713POPC   C4B56492   1.157  23.860   6.334
 3714POPC   NC356493  -1.103  19.980  -0.417
 3714POPC   PO456494  -0.981  19.868  -0.305
 3714POPC   GL156495  -0.859  19.756  -0.193
 3714POPC   GL256496  -0.936  19.730  -0.135
 3714POPC   C1A56497  -0.737  19.644  -0.081
 3714POPC   D2A56498  -0.615  19.532   0.032
 3714POPC   C3A56499  -0.493  19.420   0.144
 3714POPC   C4A56500  -0.371  19.308   0.256
 3714POPC   C1B56501  -0.772  19.487  -0.199
 3714POPC   C2B56502  -0.650  19.375  -0.087
 3714POPC   C3B56503  -0.528  19.263   0.025
 3714POPC   C4B56504  -0.406  19.151   0.138
 3715POPC   NC356505  14.817  -7.124   6.998
 3715POPC   PO456506  14.755  -6.937   7.032
 3715POPC   GL156507  14.693  -6.750   7.066
 3715POPC   GL256508  14.786  -6.724   7.092
 3715POPC   C1A56509  14.631  -6.563   7.100
 3715POPC   D2A56510  14.570  -6.375   7.133
 3715POPC   C3A56511  14.508  -6.188   7.167
 3715POPC   C4A56512  14.446  -6.001   7.201
 3715POPC   C1B56513  14.671  -6.515   6.909
 3715POPC   C2B56514  14.610  -6.328   6.943
 3715POPC   C3B56515  14.548  -6.141   6.977
 3715POPC   C4B56516  14.486  -5.954   7.011
 3716POPC   NC356517  13.607  27.634  10.807
 3716POPC   PO456518  13.568  27.438  10.798
 3716POPC   GL156519  13.529  27.242  10.789
 3716POPC   GL256520  13.554  27.233  10.885
 3716POPC   C1A56521  13.490  27.046  10.780
 3716POPC   D2A56522  13.452  26.850  10.770
 3716POPC   C3A56523  13.413  26.654  10.761
 3716POPC   C4A56524  13.374  26.458  10.752
 3716POPC   C1B56525  13.301  27.081  10.833
 3716POPC   C2B56526  13.262  26.885  10.823
 3716POPC   C3B56527  13.223  26.689  10.814
 3716POPC   C4B56528  13.184  26.493  10.805
 3717POPC   NC356529  -2.430   8.430  23.078
 3717POPC   PO456530  -2.294   8.446  22.933
 3717POPC   GL156531  -2.158   8.462  22.788
 3717POPC   GL256532  -2.100   8.518  22.848
 3717POPC   C1A56533  -2.021   8.479  22.642
 3717POPC   D2A56534  -1.885   8.495  22.497
 3717POPC   C3A56535  -1.748   8.512  22.351
 3717POPC   C4A56536  -1.612   8.528  22.206
 3717POPC   C1B56537  -1.931   8.313  22.708
 3717POPC   C2B56538  -1.794   8.330  22.563
 3717POPC   C3B56539  -1.658   8.346  22.418
 3717POPC   C4B56540  -1.521   8.362  22.272
 3718POPC   NC356541  12.350  -4.196  20.718
 3718POPC   PO456542  12.321  -4.043  20.592
 3718POPC   GL156543  12.292  -3.890  20.466
 3718POPC   GL256544  12.391  -3.881  20.455
 3718POPC   C1A56545  12.263  -3.737  20.341
 3718POPC   D2A56546  12.233  -3.585  20.215
 3718POPC   C3A56547  12.204  -3.432  20.090
 3718POPC   C4A56548  12.175  -3.279  19.964
 3718POPC   C1B56549  12.257  -3.865  20.187
 3718POPC   C2B56550  12.228  -3.712  20.061
 3718POPC   C3B56551  12.199  -3.559  19.936
 3718POPC   C4B56552  12.170  -3.407  19.810
 3719POPC   NC356553  11.572   1.051  25.544
 3719POPC   PO456554  11.557   1.152  25.372
 3719POPC   GL156555  11.542   1.253  25.200
 3719POPC   GL256556  11.612   1.317  25.232
 3719POPC   C1A56557  11.527   1.355  25.029
 3719POPC   D2A56558  11.512   1.456  24.857
 3719POPC   C3A56559  11.497   1.558  24.686
 3719POPC   C4A56560  11.482   1.659  24.514
 3719POPC   C1B56561  11.668   1.239  24.948
 3719POPC   C2B56562  11.653   1.340  24.776
 3719POPC   C3B56563  11.638   1.442  24.605
 3719POPC   C4B56564  11.623   1.543  24.433
 3720POPC   NC356565  16.366  -5.311   2.964
 3720POPC   PO456566  16.291  -5.141   3.038
 3720POPC   GL156567  16.216  -4.971   3.112
 3720POPC   GL256568  16.308  -4.942   3.137
 3720POPC   C1A56569  16.140  -4.801   3.185
 3720POPC   D2A56570  16.065  -4.631   3.259
 3720POPC   C3A56571  15.989  -4.461   3.332
 3720POPC   C4A56572  15.914  -4.291   3.406
 3720POPC   C1B56573  16.163  -4.714   3.007
 3720POPC   C2B56574  16.087  -4.544   3.080
 3720POPC   C3B56575  16.012  -4.374   3.154
 3720POPC   C4B56576  15.936  -4.204   3.227
 3721POPC   NC356577  23.217  20.420  16.022
 3721POPC   PO456578  23.073  20.298  15.954
 3721POPC   GL156579  22.929  20.176  15.886
 3721POPC   GL256580  22.913  20.238  15.809
 3721POPC   C1A56581  22.786  20.054  15.818
 3721POPC   D2A56582  22.642  19.933  15.751
 3721POPC   C3A56583  22.499  19.811  15.683
 3721POPC   C4A56584  22.355  19.689  15.615
 3721POPC   C1B56585  22.921  19.955  15.710
 3721POPC   C2B56586  22.778  19.833  15.642
 3721POPC   C3B56587  22.634  19.711  15.575
 3721POPC   C4B56588  22.491  19.589  15.507
 3722POPC   NC356589  24.136   0.529  15.707
 3722POPC   PO456590  23.978   0.636  15.647
 3722POPC   GL156591  23.820   0.743  15.587
 3722POPC   GL256592  23.863   0.755  15.497
 3722POPC   C1A56593  23.663   0.851  15.527
 3722POPC   D2A56594  23.505   0.958  15.466
 3722POPC   C3A56595  23.348   1.066  15.406
 3722POPC   C4A56596  23.190   1.173  15.346
 3722POPC   C1B56597  23.573   0.684  15.464
 3722POPC   C2B56598  23.415   0.791  15.403
 3722POPC   C3B56599  23.258   0.898  15.343
 3722POPC   C4B56600  23.100   1.006  15.283
 3723POPC   NC356601   2.653   9.790  26.505
 3723POPC   PO456602   2.727   9.786  26.319
 3723POPC   GL156603   2.801   9.782  26.133
 3723POPC   GL256604   2.867   9.712  26.161
 3723POPC   C1A56605   2.875   9.778  25.947
 3723POPC   D2A56606   2.948   9.775  25.762
 3723POPC   C3A56607   3.022   9.771  25.576
 3723POPC   C4A56608   3.096   9.767  25.390
 3723POPC   C1B56609   2.743   9.636  25.898
 3723POPC   C2B56610   2.817   9.632  25.712
 3723POPC   C3B56611   2.891   9.628  25.526
 3723POPC   C4B56612   2.965   9.625  25.341
 3724POPC   NC356613  21.771  18.557  20.438
 3724POPC   PO456614  21.640  18.464  20.318
 3724POPC   GL156615  21.509  18.371  20.198
 3724POPC   GL256616  21.583  18.315  20.161
 3724POPC   C1A56617  21.379  18.278  20.079
 3724POPC   D2A56618  21.248  18.185  19.959
 3724POPC   C3A56619  21.118  18.092  19.840
 3724POPC   C4A56620  20.987  17.999  19.720
 3724POPC   C1B56621  21.346  18.141  20.221
 3724POPC   C2B56622  21.215  18.048  20.101
 3724POPC   C3B56623  21.085  17.955  19.982
 3724POPC   C4B56624  20.954  17.862  19.862
 3725POPC   NC356625  10.769  23.494  21.869
 3725POPC   PO456626  10.757  23.344  21.737
 3725POPC   GL156627  10.745  23.194  21.605
 3725POPC   GL256628  10.752  23.128  21.680
 3725POPC   C1A56629  10.733  23.044  21.473
 3725POPC   D2A56630  10.722  22.895  21.341
 3725POPC   C3A56631  10.710  22.745  21.209
 3725POPC   C4A56632  10.698  22.595  21.077
 3725POPC   C1B56633  10.534  23.044  21.491
 3725POPC   C2B56634  10.522  22.895  21.359
 3725POPC   C3B56635  10.511  22.745  21.227
 3725POPC   C4B56636  10.499  22.595  21.095
 3726POPC   NC356637  12.536  23.142  21.949
 3726POPC   PO456638  12.506  22.995  21.817
 3726POPC   GL156639  12.476  22.848  21.685
 3726POPC   GL256640  12.570  22.816  21.699
 3726POPC   C1A56641  12.446  22.700  21.553
 3726POPC   D2A56642  12.417  22.553  21.422
 3726POPC   C3A56643  12.387  22.405  21.290
 3726POPC   C4A56644  12.357  22.258  21.158
 3726POPC   C1B56645  12.385  22.580  21.701
 3726POPC   C2B56646  12.355  22.433  21.570
 3726POPC   C3B56647  12.326  22.285  21.438
 3726POPC   C4B56648  12.296  22.138  21.306
 3727POPC   NC356649  -0.807  -2.280  17.831
 3727POPC   PO456650  -0.690  -2.144  17.743
 3727POPC   GL156651  -0.573  -2.008  17.655
 3727POPC   GL256652  -0.561  -1.961  17.743
 3727POPC   C1A56653  -0.455  -1.872  17.567
 3727POPC   D2A56654  -0.338  -1.736  17.479
 3727POPC   C3A56655  -0.220  -1.600  17.391
 3727POPC   C4A56656  -0.103  -1.464  17.303
 3727POPC   C1B56657  -0.295  -1.985  17.606
 3727POPC   C2B56658  -0.178  -1.849  17.518
 3727POPC   C3B56659  -0.060  -1.713  17.430
 3727POPC   C4B56660   0.057  -1.577  17.342
 3728POPC   NC356661  25.666   8.935  18.565
 3728POPC   PO456662  25.493   8.951  18.466
 3728POPC   GL156663  25.320   8.967  18.367
 3728POPC   GL256664  25.370   8.973  18.281
 3728POPC   C1A56665  25.147   8.983  18.268
 3728POPC   D2A56666  24.974   8.998  18.169
 3728POPC   C3A56667  24.801   9.014  18.070
 3728POPC   C4A56668  24.628   9.030  17.971
 3728POPC   C1B56669  25.140   8.784  18.249
 3728POPC   C2B56670  24.967   8.799  18.150
 3728POPC   C3B56671  24.794   8.815  18.051
 3728POPC   C4B56672  24.621   8.831  17.952
 3729POPC   NC356673   2.216  23.592  19.041
 3729POPC   PO456674   2.299  23.440  18.942
 3729POPC   GL156675   2.382  23.288  18.843
 3729POPC   GL256676   2.465  23.341  18.830
 3729POPC   C1A56677   2.465  23.135  18.743
 3729POPC   D2A56678   2.548  22.983  18.644
 3729POPC   C3A56679   2.631  22.830  18.544
 3729POPC   C4A56680   2.714  22.678  18.445
 3729POPC   C1B56681   2.537  23.062  18.915
 3729POPC   C2B56682   2.620  22.910  18.816
 3729POPC   C3B56683   2.703  22.758  18.716
 3729POPC   C4B56684   2.786  22.605  18.617
 3730POPC   NC356685  23.076  16.336  20.468
 3730POPC   PO456686  22.935  16.266  20.344
 3730POPC   GL156687  22.794  16.196  20.220
 3730POPC   GL256688  22.864  16.147  20.168
 3730POPC   C1A56689  22.654  16.126  20.096
 3730POPC   D2A56690  22.513  16.057  19.972
 3730POPC   C3A56691  22.373  15.987  19.848
 3730POPC   C4A56692  22.232  15.917  19.724
 3730POPC   C1B56693  22.628  15.967  20.214
 3730POPC   C2B56694  22.488  15.897  20.090
 3730POPC   C3B56695  22.347  15.828  19.966
 3730POPC   C4B56696  22.207  15.758  19.842
 3731POPC   NC356697  -6.971  11.947   3.837
 3731POPC   PO456698  -6.783  11.925   3.902
 3731POPC   GL156699  -6.595  11.903   3.967
 3731POPC   GL256700  -6.627  11.909   4.061
 3731POPC   C1A56701  -6.407  11.881   4.031
 3731POPC   D2A56702  -6.219  11.858   4.096
 3731POPC   C3A56703  -6.031  11.836   4.160
 3731POPC   C4A56704  -5.843  11.814   4.225
 3731POPC   C1B56705  -6.432  11.682   4.036
 3731POPC   C2B56706  -6.244  11.660   4.101
 3731POPC   C3B56707  -6.056  11.638   4.165
 3731POPC   C4B56708  -5.868  11.616   4.230
 3732POPC   NC356709  11.479  27.631   6.559
 3732POPC   PO456710  11.460  27.436   6.598
 3732POPC   GL156711  11.441  27.241   6.637
 3732POPC   GL256712  11.495  27.253   6.721
 3732POPC   C1A56713  11.423  27.046   6.676
 3732POPC   D2A56714  11.404  26.850   6.715
 3732POPC   C3A56715  11.386  26.655   6.754
 3732POPC   C4A56716  11.367  26.460   6.793
 3732POPC   C1B56717  11.254  27.082   6.778
 3732POPC   C2B56718  11.236  26.887   6.817
 3732POPC   C3B56719  11.217  26.691   6.856
 3732POPC   C4B56720  11.199  26.496   6.895
 3733POPC   NC356721   0.247  25.228  10.318
 3733POPC   PO456722   0.353  25.059  10.322
 3733POPC   GL156723   0.459  24.890  10.326
 3733POPC   GL256724   0.531  24.933  10.271
 3733POPC   C1A56725   0.565  24.720  10.329
 3733POPC   D2A56726   0.672  24.551  10.333
 3733POPC   C3A56727   0.778  24.381  10.336
 3733POPC   C4A56728   0.884  24.212  10.340
 3733POPC   C1B56729   0.656  24.780  10.497
 3733POPC   C2B56730   0.762  24.611  10.501
 3733POPC   C3B56731   0.868  24.442  10.504
 3733POPC   C4B56732   0.974  24.272  10.508
 3734POPC   NC356733  21.051   6.729  -3.858
 3734POPC   PO456734  20.929   6.766  -3.704
 3734POPC   GL156735  20.807   6.803  -3.550
 3734POPC   GL256736  20.756   6.720  -3.571
 3734POPC   C1A56737  20.685   6.840  -3.396
 3734POPC   D2A56738  20.564   6.876  -3.241
 3734POPC   C3A56739  20.442   6.913  -3.087
 3734POPC   C4A56740  20.320   6.950  -2.933
 3734POPC   C1B56741  20.806   6.735  -3.275
 3734POPC   C2B56742  20.684   6.772  -3.121
 3734POPC   C3B56743  20.563   6.809  -2.967
 3734POPC   C4B56744  20.441   6.845  -2.813
 3735POPC   NC356745  15.755   8.478  -7.037
 3735POPC   PO456746  15.683   8.498  -6.851
 3735POPC   GL156747  15.611   8.518  -6.665
 3735POPC   GL256748  15.520   8.494  -6.698
 3735POPC   C1A56749  15.540   8.537  -6.480
 3735POPC   D2A56750  15.468   8.557  -6.294
 3735POPC   C3A56751  15.397   8.576  -6.109
 3735POPC   C4A56752  15.325   8.596  -5.923
 3735POPC   C1B56753  15.576   8.344  -6.445
 3735POPC   C2B56754  15.505   8.363  -6.260
 3735POPC   C3B56755  15.433   8.383  -6.074
 3735POPC   C4B56756  15.361   8.402  -5.888
 3736POPC   NC356757  -5.039   5.705   0.613
 3736POPC   PO456758  -4.873   5.744   0.717
 3736POPC   GL156759  -4.707   5.783   0.821
 3736POPC   GL256760  -4.762   5.821   0.895
 3736POPC   C1A56761  -4.541   5.823   0.925
 3736POPC   D2A56762  -4.375   5.862   1.030
 3736POPC   C3A56763  -4.209   5.902   1.134
 3736POPC   C4A56764  -4.043   5.941   1.238
 3736POPC   C1B56765  -4.551   5.642   1.009
 3736POPC   C2B56766  -4.385   5.681   1.114
 3736POPC   C3B56767  -4.219   5.720   1.218
 3736POPC   C4B56768  -4.053   5.760   1.322
 3737POPC   NC356769  24.805   0.598   6.197
 3737POPC   PO456770  24.639   0.703   6.236
 3737POPC   GL156771  24.473   0.808   6.275
 3737POPC   GL256772  24.489   0.863   6.193
 3737POPC   C1A56773  24.307   0.912   6.314
 3737POPC   D2A56774  24.141   1.017   6.352
 3737POPC   C3A56775  23.975   1.121   6.391
 3737POPC   C4A56776  23.809   1.226   6.430
 3737POPC   C1B56777  24.200   0.782   6.206
 3737POPC   C2B56778  24.034   0.887   6.244
 3737POPC   C3B56779  23.868   0.992   6.283
 3737POPC   C4B56780  23.702   1.096   6.322
 3738POPC   NC356781  26.301  14.281   3.726
 3738POPC   PO456782  26.120  14.233   3.797
 3738POPC   GL156783  25.939  14.185   3.868
 3738POPC   GL256784  25.899  14.259   3.814
 3738POPC   C1A56785  25.758  14.137   3.938
 3738POPC   D2A56786  25.578  14.089   4.009
 3738POPC   C3A56787  25.397  14.041   4.079
 3738POPC   C4A56788  25.216  13.993   4.150
 3738POPC   C1B56789  25.732  14.012   3.785
 3738POPC   C2B56790  25.551  13.964   3.855
 3738POPC   C3B56791  25.370  13.916   3.926
 3738POPC   C4B56792  25.189  13.868   3.997
 3739POPC   NC356793  27.362   8.618  14.201
 3739POPC   PO456794  27.167   8.632  14.158
 3739POPC   GL156795  26.972   8.646  14.115
 3739POPC   GL256796  26.984   8.581  14.040
 3739POPC   C1A56797  26.777   8.660  14.072
 3739POPC   D2A56798  26.583   8.675  14.030
 3739POPC   C3A56799  26.388   8.689  13.987
 3739POPC   C4A56800  26.193   8.703  13.944
 3739POPC   C1B56801  26.739   8.510  14.198
 3739POPC   C2B56802  26.544   8.524  14.155
 3739POPC   C3B56803  26.349   8.538  14.112
 3739POPC   C4B56804  26.154   8.552  14.070
 3740POPC   NC356805  24.050  -0.256   5.519
 3740POPC   PO456806  23.892  -0.142   5.565
 3740POPC   GL156807  23.734  -0.028   5.611
 3740POPC   GL256808  23.763   0.040   5.544
 3740POPC   C1A56809  23.576   0.085   5.658
 3740POPC   D2A56810  23.418   0.199   5.704
 3740POPC   C3A56811  23.260   0.312   5.751
 3740POPC   C4A56812  23.102   0.426   5.797
 3740POPC   C1B56813  23.468  -0.007   5.517
 3740POPC   C2B56814  23.310   0.107   5.563
 3740POPC   C3B56815  23.152   0.220   5.610
 3740POPC   C4B56816  22.994   0.334   5.656
 3741POPC   NC356817  22.109   1.012  19.709
 3741POPC   PO456818  21.977   1.110  19.595
 3741POPC   GL156819  21.845   1.208  19.481
 3741POPC   GL256820  21.913   1.215  19.408
 3741POPC   C1A56821  21.713   1.306  19.367
 3741POPC   D2A56822  21.581   1.403  19.252
 3741POPC   C3A56823  21.449   1.501  19.138
 3741POPC   C4A56824  21.317   1.599  19.024
 3741POPC   C1B56825  21.650   1.132  19.290
 3741POPC   C2B56826  21.518   1.230  19.176
 3741POPC   C3B56827  21.386   1.327  19.062
 3741POPC   C4B56828  21.254   1.425  18.947
 3742POPC   NC356829  -2.917  15.471  -1.665
 3742POPC   PO456830  -2.779  15.410  -1.534
 3742POPC   GL156831  -2.641  15.349  -1.403
 3742POPC   GL256832  -2.710  15.292  -1.357
 3742POPC   C1A56833  -2.503  15.288  -1.271
 3742POPC   D2A56834  -2.366  15.226  -1.140
 3742POPC   C3A56835  -2.228  15.165  -1.008
 3742POPC   C4A56836  -2.090  15.104  -0.877
 3742POPC   C1B56837  -2.457  15.135  -1.391
 3742POPC   C2B56838  -2.319  15.073  -1.260
 3742POPC   C3B56839  -2.181  15.012  -1.128
 3742POPC   C4B56840  -2.044  14.951  -0.997
 3743POPC   NC356841   0.687  21.627  -0.402
 3743POPC   PO456842   0.789  21.494  -0.293
 3743POPC   GL156843   0.891  21.361  -0.184
 3743POPC   GL256844   0.974  21.382  -0.235
 3743POPC   C1A56845   0.993  21.228  -0.075
 3743POPC   D2A56846   1.094  21.094   0.035
 3743POPC   C3A56847   1.196  20.961   0.144
 3743POPC   C4A56848   1.298  20.828   0.253
 3743POPC   C1B56849   1.037  21.370   0.058
 3743POPC   C2B56850   1.139  21.237   0.167
 3743POPC   C3B56851   1.241  21.104   0.276
 3743POPC   C4B56852   1.343  20.971   0.386
 3744POPC   NC356853  -5.408   7.780   0.563
 3744POPC   PO456854  -5.239   7.804   0.667
 3744POPC   GL156855  -5.070   7.828   0.771
 3744POPC   GL256856  -5.093   7.924   0.787
 3744POPC   C1A56857  -4.900   7.852   0.874
 3744POPC   D2A56858  -4.731   7.877   0.978
 3744POPC   C3A56859  -4.561   7.901   1.081
 3744POPC   C4A56860  -4.392   7.925   1.185
 3744POPC   C1B56861  -4.995   7.800   1.042
 3744POPC   C2B56862  -4.826   7.824   1.146
 3744POPC   C3B56863  -4.656   7.848   1.249
 3744POPC   C4B56864  -4.487   7.872   1.353
 3745POPC   NC356865  -5.449   7.970  19.315
 3745POPC   PO456866  -5.280   7.988  19.210
 3745POPC   GL156867  -5.111   8.006  19.105
 3745POPC   GL256868  -5.113   8.105  19.118
 3745POPC   C1A56869  -4.941   8.024  19.001
 3745POPC   D2A56870  -4.772   8.042  18.896
 3745POPC   C3A56871  -4.602   8.060  18.792
 3745POPC   C4A56872  -4.433   8.078  18.687
 3745POPC   C1B56873  -4.835   8.005  19.169
 3745POPC   C2B56874  -4.666   8.023  19.065
 3745POPC   C3B56875  -4.496   8.041  18.960
 3745POPC   C4B56876  -4.327   8.059  18.855
 3746POPC   NC356877  -5.770  10.448   0.889
 3746POPC   PO456878  -5.596  10.445   0.988
 3746POPC   GL156879  -5.422  10.442   1.087
 3746POPC   GL256880  -5.428  10.342   1.093
 3746POPC   C1A56881  -5.248  10.439   1.186
 3746POPC   D2A56882  -5.075  10.436   1.284
 3746POPC   C3A56883  -4.901  10.433   1.383
 3746POPC   C4A56884  -4.727  10.430   1.482
 3746POPC   C1B56885  -5.150  10.422   1.012
 3746POPC   C2B56886  -4.976  10.419   1.111
 3746POPC   C3B56887  -4.803  10.416   1.210
 3746POPC   C4B56888  -4.629  10.413   1.309
 3747POPC   NC356889  20.542   0.309  -0.890
 3747POPC   PO456890  20.421   0.412  -0.769
 3747POPC   GL156891  20.300   0.515  -0.648
 3747POPC   GL256892  20.379   0.548  -0.597
 3747POPC   C1A56893  20.179   0.619  -0.527
 3747POPC   D2A56894  20.058   0.722  -0.405
 3747POPC   C3A56895  19.937   0.826  -0.284
 3747POPC   C4A56896  19.816   0.929  -0.163
 3747POPC   C1B56897  20.193   0.777  -0.648
 3747POPC   C2B56898  20.072   0.880  -0.527
 3747POPC   C3B56899  19.951   0.984  -0.406
 3747POPC   C4B56900  19.830   1.087  -0.285
 3748POPC   NC356901   0.177  20.118  21.311
 3748POPC   PO456902   0.286  20.010  21.183
 3748POPC   GL156903   0.395  19.902  21.055
 3748POPC   GL256904   0.459  19.880  21.128
 3748POPC   C1A56905   0.504  19.794  20.927
 3748POPC   D2A56906   0.613  19.686  20.798
 3748POPC   C3A56907   0.722  19.578  20.670
 3748POPC   C4A56908   0.831  19.470  20.542
 3748POPC   C1B56909   0.397  19.631  20.972
 3748POPC   C2B56910   0.506  19.523  20.844
 3748POPC   C3B56911   0.615  19.415  20.716
 3748POPC   C4B56912   0.724  19.307  20.588
 3749POPC   NC356913  20.551  19.262  -1.285
 3749POPC   PO456914  20.433  19.156  -1.163
 3749POPC   GL156915  20.315  19.050  -1.041
 3749POPC   GL256916  20.394  18.995  -1.012
 3749POPC   C1A56917  20.197  18.945  -0.918
 3749POPC   D2A56918  20.080  18.839  -0.796
 3749POPC   C3A56919  19.962  18.734  -0.673
 3749POPC   C4A56920  19.844  18.628  -0.551
 3749POPC   C1B56921  20.235  19.074  -0.770
 3749POPC   C2B56922  20.117  18.969  -0.648
 3749POPC   C3B56923  19.999  18.863  -0.526
 3749POPC   C4B56924  19.882  18.757  -0.403
 3750POPC   NC356925  27.338  14.585   9.909
 3750POPC   PO456926  27.145  14.534   9.908
 3750POPC   GL156927  26.952  14.483   9.907
 3750POPC   GL256928  26.967  14.425   9.827
 3750POPC   C1A56929  26.758  14.432   9.906
 3750POPC   D2A56930  26.565  14.382   9.905
 3750POPC   C3A56931  26.371  14.331   9.904
 3750POPC   C4A56932  26.178  14.280   9.903
 3750POPC   C1B56933  26.798  14.278  10.027
 3750POPC   C2B56934  26.605  14.227  10.026
 3750POPC   C3B56935  26.411  14.176  10.025
 3750POPC   C4B56936  26.218  14.126  10.024
 3751POPC   NC356937  12.365  -7.900  10.536
 3751POPC   PO456938  12.342  -7.701  10.527
 3751POPC   GL156939  12.319  -7.502  10.518
 3751POPC   GL256940  12.331  -7.505  10.419
 3751POPC   C1A56941  12.296  -7.304  10.509
 3751POPC   D2A56942  12.274  -7.105  10.501
 3751POPC   C3A56943  12.251  -6.907  10.492
 3751POPC   C4A56944  12.228  -6.708  10.483
 3751POPC   C1B56945  12.099  -7.327  10.486
 3751POPC   C2B56946  12.076  -7.129  10.477
 3751POPC   C3B56947  12.054  -6.930  10.468
 3751POPC   C4B56948  12.031  -6.732  10.459
 3752POPC   NC356949  10.495  19.695  -5.274
 3752POPC   PO456950  10.486  19.586  -5.107
 3752POPC   GL156951  10.477  19.477  -4.940
 3752POPC   GL256952  10.573  19.496  -4.922
 3752POPC   C1A56953  10.468  19.367  -4.773
 3752POPC   D2A56954  10.459  19.258  -4.605
 3752POPC   C3A56955  10.450  19.148  -4.438
 3752POPC   C4A56956  10.441  19.039  -4.271
 3752POPC   C1B56957  10.415  19.530  -4.669
 3752POPC   C2B56958  10.406  19.420  -4.502
 3752POPC   C3B56959  10.397  19.311  -4.335
 3752POPC   C4B56960  10.388  19.202  -4.167
 3753POPC   NC356961  16.094  26.437  14.022
 3753POPC   PO456962  16.027  26.254  13.978
 3753POPC   GL156963  15.960  26.071  13.934
 3753POPC   GL256964  16.054  26.035  13.939
 3753POPC   C1A56965  15.894  25.887  13.890
 3753POPC   D2A56966  15.827  25.704  13.846
 3753POPC   C3A56967  15.761  25.520  13.802
 3753POPC   C4A56968  15.694  25.337  13.758
 3753POPC   C1B56969  15.869  25.849  14.085
 3753POPC   C2B56970  15.802  25.666  14.041
 3753POPC   C3B56971  15.736  25.483  13.997
 3753POPC   C4B56972  15.669  25.299  13.953
 3754POPC   NC356973   6.980  -7.375   5.886
 3754POPC   PO456974   7.011  -7.183   5.930
 3754POPC   GL156975   7.042  -6.991   5.974
 3754POPC   GL256976   7.118  -6.988   5.909
 3754POPC   C1A56977   7.074  -6.798   6.019
 3754POPC   D2A56978   7.105  -6.606   6.063
 3754POPC   C3A56979   7.137  -6.413   6.108
 3754POPC   C4A56980   7.168  -6.221   6.152
 3754POPC   C1B56981   6.947  -6.744   5.874
 3754POPC   C2B56982   6.978  -6.552   5.918
 3754POPC   C3B56983   7.010  -6.359   5.963
 3754POPC   C4B56984   7.041  -6.167   6.007
 3755POPC   NC356985  23.797  20.917   6.705
 3755POPC   PO456986  23.640  20.800   6.744
 3755POPC   GL156987  23.483  20.683   6.783
 3755POPC   GL256988  23.526  20.608   6.732
 3755POPC   C1A56989  23.325  20.566   6.822
 3755POPC   D2A56990  23.168  20.449   6.860
 3755POPC   C3A56991  23.010  20.332   6.899
 3755POPC   C4A56992  22.853  20.215   6.938
 3755POPC   C1B56993  23.414  20.502   6.989
 3755POPC   C2B56994  23.256  20.385   7.028
 3755POPC   C3B56995  23.099  20.268   7.067
 3755POPC   C4B56996  22.942  20.151   7.106
 3756POPC   NC356997   8.412  -7.393   5.243
 3756POPC   PO456998   8.429  -7.201   5.295
 3756POPC   GL156999   8.446  -7.009   5.347
 3756POPC   GL257000   8.546  -7.018   5.348
 3756POPC   C1A57001   8.464  -6.816   5.399
 3756POPC   D2A57002   8.481  -6.624   5.451
 3756POPC   C3A57003   8.499  -6.431   5.503
 3756POPC   C4A57004   8.516  -6.239   5.555
 3756POPC   C1B57005   8.471  -6.765   5.206
 3756POPC   C2B57006   8.489  -6.572   5.258
 3756POPC   C3B57007   8.506  -6.380   5.310
 3756POPC   C4B57008   8.524  -6.188   5.362
 3757POPC   NC357009  14.648  -5.676   2.305
 3757POPC   PO457010  14.591  -5.504   2.389
 3757POPC   GL157011  14.534  -5.332   2.473
 3757POPC   GL257012  14.617  -5.288   2.440
 3757POPC   C1A57013  14.476  -5.160   2.557
 3757POPC   D2A57014  14.419  -4.987   2.640
 3757POPC   C3A57015  14.361  -4.815   2.724
 3757POPC   C4A57016  14.304  -4.643   2.808
 3757POPC   C1B57017  14.384  -5.108   2.387
 3757POPC   C2B57018  14.326  -4.936   2.471
 3757POPC   C3B57019  14.269  -4.764   2.555
 3757POPC   C4B57020  14.211  -4.591   2.638
 3758POPC   NC357021   4.644  17.676  25.493
 3758POPC   PO457022   4.702  17.588  25.323
 3758POPC   GL157023   4.760  17.500  25.153
 3758POPC   GL257024   4.819  17.438  25.205
 3758POPC   C1A57025   4.818  17.412  24.983
 3758POPC   D2A57026   4.875  17.323  24.813
 3758POPC   C3A57027   4.933  17.235  24.643
 3758POPC   C4A57028   4.991  17.147  24.473
 3758POPC   C1B57029   4.667  17.281  25.000
 3758POPC   C2B57030   4.725  17.193  24.830
 3758POPC   C3B57031   4.783  17.104  24.660
 3758POPC   C4B57032   4.841  17.016  24.490
 3759POPC   NC357033  21.156   7.092  -3.856
 3759POPC   PO457034  21.033   7.124  -3.701
 3759POPC   GL157035  20.910   7.156  -3.546
 3759POPC   GL257036  20.862   7.072  -3.568
 3759POPC   C1A57037  20.788   7.188  -3.392
 3759POPC   D2A57038  20.665   7.221  -3.237
 3759POPC   C3A57039  20.543   7.253  -3.083
 3759POPC   C4A57040  20.420   7.285  -2.928
 3759POPC   C1B57041  20.912   7.087  -3.272
 3759POPC   C2B57042  20.789   7.119  -3.118
 3759POPC   C3B57043  20.667   7.151  -2.963
 3759POPC   C4B57044  20.544   7.183  -2.808
 3760POPC   NC357045  18.693  -4.812   4.639
 3760POPC   PO457046  18.599  -4.646   4.699
 3760POPC   GL157047  18.505  -4.480   4.759
 3760POPC   GL257048  18.593  -4.433   4.769
 3760POPC   C1A57049  18.411  -4.314   4.819
 3760POPC   D2A57050  18.316  -4.148   4.878
 3760POPC   C3A57051  18.222  -3.982   4.938
 3760POPC   C4A57052  18.128  -3.816   4.998
 3760POPC   C1B57053  18.399  -4.252   4.629
 3760POPC   C2B57054  18.305  -4.086   4.689
 3760POPC   C3B57055  18.211  -3.920   4.748
 3760POPC   C4B57056  18.116  -3.754   4.808
 3761POPC   NC357057   5.846  -1.461  -3.439
 3761POPC   PO457058   5.891  -1.333  -3.292
 3761POPC   GL157059   5.936  -1.205  -3.145
 3761POPC   GL257060   6.008  -1.165  -3.201
 3761POPC   C1A57061   5.980  -1.077  -2.998
 3761POPC   D2A57062   6.025  -0.949  -2.850
 3761POPC   C3A57063   6.069  -0.821  -2.703
 3761POPC   C4A57064   6.114  -0.693  -2.556
 3761POPC   C1B57065   5.849  -0.946  -3.072
 3761POPC   C2B57066   5.893  -0.818  -2.925
 3761POPC   C3B57067   5.938  -0.690  -2.777
 3761POPC   C4B57068   5.983  -0.562  -2.630
 3762POPC   NC357069  18.663  18.970  -3.017
 3762POPC   PO457070  18.565  18.873  -2.872
 3762POPC   GL157071  18.467  18.776  -2.727
 3762POPC   GL257072  18.413  18.727  -2.796
 3762POPC   C1A57073  18.368  18.679  -2.583
 3762POPC   D2A57074  18.270  18.583  -2.438
 3762POPC   C3A57075  18.171  18.486  -2.294
 3762POPC   C4A57076  18.073  18.389  -2.149
 3762POPC   C1B57077  18.506  18.534  -2.587
 3762POPC   C2B57078  18.407  18.437  -2.442
 3762POPC   C3B57079  18.309  18.340  -2.297
 3762POPC   C4B57080  18.210  18.244  -2.153
 3763POPC   NC357081   8.334  27.842   7.822
 3763POPC   PO457082   8.349  27.644   7.843
 3763POPC   GL157083   8.364  27.446   7.864
 3763POPC   GL257084   8.462  27.455   7.880
 3763POPC   C1A57085   8.379  27.248   7.885
 3763POPC   D2A57086   8.395  27.049   7.906
 3763POPC   C3A57087   8.410  26.851   7.927
 3763POPC   C4A57088   8.425  26.653   7.948
 3763POPC   C1B57089   8.345  27.266   8.081
 3763POPC   C2B57090   8.360  27.068   8.102
 3763POPC   C3B57091   8.376  26.869   8.123
 3763POPC   C4B57092   8.391  26.671   8.144
 3764POPC   NC357093  19.935  -2.516   1.645
 3764POPC   PO457094  19.825  -2.378   1.738
 3764POPC   GL157095  19.715  -2.240   1.831
 3764POPC   GL257096  19.651  -2.238   1.754
 3764POPC   C1A57097  19.604  -2.101   1.924
 3764POPC   D2A57098  19.494  -1.963   2.018
 3764POPC   C3A57099  19.383  -1.824   2.111
 3764POPC   C4A57100  19.273  -1.686   2.204
 3764POPC   C1B57101  19.496  -2.246   2.010
 3764POPC   C2B57102  19.385  -2.107   2.103
 3764POPC   C3B57103  19.275  -1.969   2.197
 3764POPC   C4B57104  19.164  -1.830   2.290
 3765POPC   NC357105   5.196   0.813  24.813
 3765POPC   PO457106   5.242   0.913  24.646
 3765POPC   GL157107   5.288   1.013  24.479
 3765POPC   GL257108   5.355   0.943  24.455
 3765POPC   C1A57109   5.334   1.113  24.312
 3765POPC   D2A57110   5.381   1.213  24.145
 3765POPC   C3A57111   5.427   1.313  23.978
 3765POPC   C4A57112   5.473   1.413  23.811
 3765POPC   C1B57113   5.193   1.012  24.213
 3765POPC   C2B57114   5.239   1.112  24.046
 3765POPC   C3B57115   5.286   1.212  23.879
 3765POPC   C4B57116   5.332   1.312  23.712
 3766POPC   NC357117   7.939  -7.299  14.924
 3766POPC   PO457118   7.962  -7.108  14.868
 3766POPC   GL157119   7.985  -6.917  14.812
 3766POPC   GL257120   8.078  -6.918  14.850
 3766POPC   C1A57121   8.009  -6.727  14.756
 3766POPC   D2A57122   8.032  -6.536  14.701
 3766POPC   C3A57123   8.056  -6.346  14.645
 3766POPC   C4A57124   8.079  -6.155  14.589
 3766POPC   C1B57125   8.080  -6.787  14.580
 3766POPC   C2B57126   8.103  -6.597  14.524
 3766POPC   C3B57127   8.127  -6.406  14.468
 3766POPC   C4B57128   8.150  -6.216  14.412
 3767POPC   NC357129   9.187  27.574  14.006
 3767POPC   PO457130   9.191  27.379  13.963
 3767POPC   GL157131   9.195  27.184  13.920
 3767POPC   GL257132   9.255  27.168  13.999
 3767POPC   C1A57133   9.200  26.988  13.878
 3767POPC   D2A57134   9.204  26.793  13.835
 3767POPC   C3A57135   9.209  26.597  13.793
 3767POPC   C4A57136   9.213  26.402  13.750
 3767POPC   C1B57137   9.039  26.959  13.994
 3767POPC   C2B57138   9.044  26.764  13.951
 3767POPC   C3B57139   9.048  26.569  13.908
 3767POPC   C4B57140   9.052  26.373  13.866
 3768POPC   NC357141  11.248  27.699   6.809
 3768POPC   PO457142  11.232  27.503   6.845
 3768POPC   GL157143  11.216  27.307   6.881
 3768POPC   GL257144  11.302  27.310   6.933
 3768POPC   C1A57145  11.200  27.111   6.917
 3768POPC   D2A57146  11.185  26.915   6.954
 3768POPC   C3A57147  11.169  26.719   6.990
 3768POPC   C4A57148  11.153  26.523   7.026
 3768POPC   C1B57149  11.099  27.150   7.085
 3768POPC   C2B57150  11.083  26.954   7.121
 3768POPC   C3B57151  11.067  26.758   7.157
 3768POPC   C4B57152  11.051  26.562   7.194
 3769POPC   NC357153  -4.835   7.531  20.150
 3769POPC   PO457154  -4.673   7.555  20.035
 3769POPC   GL157155  -4.511   7.579  19.920
 3769POPC   GL257156  -4.473   7.643  19.987
 3769POPC   C1A57157  -4.349   7.603  19.805
 3769POPC   D2A57158  -4.188   7.627  19.690
 3769POPC   C3A57159  -4.026   7.651  19.575
 3769POPC   C4A57160  -3.864   7.675  19.460
 3769POPC   C1B57161  -4.260   7.451  19.899
 3769POPC   C2B57162  -4.098   7.475  19.784
 3769POPC   C3B57163  -3.937   7.499  19.669
 3769POPC   C4B57164  -3.775   7.523  19.554
 3770POPC   NC357165  24.692   9.578  -0.258
 3770POPC   PO457166  24.530   9.580  -0.141
 3770POPC   GL157167  24.368   9.582  -0.024
 3770POPC   GL257168  24.318   9.528  -0.092
 3770POPC   C1A57169  24.205   9.585   0.092
 3770POPC   D2A57170  24.043   9.587   0.209
 3770POPC   C3A57171  23.880   9.590   0.325
 3770POPC   C4A57172  23.718   9.592   0.442
 3770POPC   C1B57173  24.267   9.417   0.182
 3770POPC   C2B57174  24.104   9.419   0.298
 3770POPC   C3B57175  23.942   9.422   0.415
 3770POPC   C4B57176  23.780   9.424   0.531
 3771POPC   NC357177  -6.340   8.559  17.753
 3771POPC   PO457178  -6.160   8.573  17.668
 3771POPC   GL157179  -5.980   8.587  17.583
 3771POPC   GL257180  -5.984   8.686  17.591
 3771POPC   C1A57181  -5.799   8.601  17.498
 3771POPC   D2A57182  -5.619   8.614  17.412
 3771POPC   C3A57183  -5.438   8.628  17.327
 3771POPC   C4A57184  -5.258   8.642  17.242
 3771POPC   C1B57185  -5.713   8.590  17.678
 3771POPC   C2B57186  -5.533   8.604  17.593
 3771POPC   C3B57187  -5.352   8.617  17.507
 3771POPC   C4B57188  -5.172   8.631  17.422
 3772POPC   NC357189   2.230  21.594  -1.671
 3772POPC   PO457190   2.314  21.462  -1.546
 3772POPC   GL157191   2.398  21.330  -1.421
 3772POPC   GL257192   2.479  21.326  -1.480
 3772POPC   C1A57193   2.482  21.198  -1.296
 3772POPC   D2A57194   2.565  21.067  -1.172
 3772POPC   C3A57195   2.649  20.935  -1.047
 3772POPC   C4A57196   2.733  20.803  -0.922
 3772POPC   C1B57197   2.564  21.349  -1.193
 3772POPC   C2B57198   2.648  21.217  -1.068
 3772POPC   C3B57199   2.732  21.085  -0.944
 3772POPC   C4B57200   2.816  20.953  -0.819
 3773POPC   NC357201   2.058  26.241  10.938
 3773POPC   PO457202   2.146  26.062  10.929
 3773POPC   GL157203   2.234  25.883  10.920
 3773POPC   GL257204   2.293  25.915  10.846
 3773POPC   C1A57205   2.322  25.703  10.910
 3773POPC   D2A57206   2.410  25.524  10.901
 3773POPC   C3A57207   2.498  25.344  10.891
 3773POPC   C4A57208   2.586  25.165  10.882
 3773POPC   C1B57209   2.458  25.763  11.044
 3773POPC   C2B57210   2.546  25.583  11.035
 3773POPC   C3B57211   2.634  25.404  11.026
 3773POPC   C4B57212   2.722  25.225  11.016
 3774POPC   NC357213   3.710  26.584   6.199
 3774POPC   PO457214   3.783  26.402   6.240
 3774POPC   GL157215   3.856  26.220   6.281
 3774POPC   GL257216   3.824  26.229   6.375
 3774POPC   C1A57217   3.928  26.038   6.321
 3774POPC   D2A57218   4.001  25.857   6.362
 3774POPC   C3A57219   4.073  25.675   6.402
 3774POPC   C4A57220   4.146  25.493   6.443
 3774POPC   C1B57221   3.753  25.957   6.271
 3774POPC   C2B57222   3.825  25.775   6.311
 3774POPC   C3B57223   3.898  25.593   6.352
 3774POPC   C4B57224   3.970  25.412   6.393
 3775POPC   NC357225  19.196  -0.146  21.571
 3775POPC   PO457226  19.091  -0.033  21.444
 3775POPC   GL157227  18.986   0.080  21.317
 3775POPC   GL257228  19.071   0.117  21.280
 3775POPC   C1A57229  18.881   0.192  21.189
 3775POPC   D2A57230  18.775   0.305  21.062
 3775POPC   C3A57231  18.670   0.417  20.934
 3775POPC   C4A57232  18.565   0.530  20.807
 3775POPC   C1B57233  18.887   0.045  21.054
 3775POPC   C2B57234  18.782   0.158  20.926
 3775POPC   C3B57235  18.677   0.270  20.799
 3775POPC   C4B57236  18.572   0.383  20.672
 3776POPC   NC357237  10.084   3.248  26.657
 3776POPC   PO457238  10.089   3.320  26.471
 3776POPC   GL157239  10.094   3.392  26.285
 3776POPC   GL257240  10.103   3.299  26.249
 3776POPC   C1A57241  10.099   3.465  26.098
 3776POPC   D2A57242  10.103   3.537  25.912
 3776POPC   C3A57243  10.108   3.610  25.725
 3776POPC   C4A57244  10.113   3.682  25.539
 3776POPC   C1B57245   9.900   3.449  26.087
 3776POPC   C2B57246   9.904   3.521  25.901
 3776POPC   C3B57247   9.909   3.594  25.714
 3776POPC   C4B57248   9.914   3.666  25.528
 3777POPC   NC357249  -4.103  14.039  20.668
 3777POPC   PO457250  -3.949  14.000  20.547
 3777POPC   GL157251  -3.795  13.961  20.426
 3777POPC   GL257252  -3.746  13.919  20.502
 3777POPC   C1A57253  -3.641  13.921  20.305
 3777POPC   D2A57254  -3.487  13.882  20.183
 3777POPC   C3A57255  -3.333  13.842  20.062
 3777POPC   C4A57256  -3.179  13.803  19.941
 3777POPC   C1B57257  -3.722  13.744  20.260
 3777POPC   C2B57258  -3.568  13.704  20.139
 3777POPC   C3B57259  -3.414  13.665  20.018
 3777POPC   C4B57260  -3.260  13.625  19.896
 3778POPC   NC357261   3.159  -2.673  20.943
 3778POPC   PO457262   3.232  -2.532  20.821
 3778POPC   GL157263   3.305  -2.391  20.699
 3778POPC   GL257264   3.351  -2.348  20.777
 3778POPC   C1A57265   3.378  -2.251  20.577
 3778POPC   D2A57266   3.451  -2.110  20.455
 3778POPC   C3A57267   3.524  -1.970  20.333
 3778POPC   C4A57268   3.597  -1.829  20.211
 3778POPC   C1B57269   3.540  -2.363  20.545
 3778POPC   C2B57270   3.613  -2.223  20.423
 3778POPC   C3B57271   3.686  -2.082  20.301
 3778POPC   C4B57272   3.759  -1.941  20.179
 3779POPC   NC357273  12.448  20.817  24.151
 3779POPC   PO457274  12.420  20.697  23.993
 3779POPC   GL157275  12.392  20.577  23.835
 3779POPC   GL257276  12.486  20.595  23.805
 3779POPC   C1A57277  12.364  20.457  23.677
 3779POPC   D2A57278  12.337  20.338  23.520
 3779POPC   C3A57279  12.309  20.218  23.362
 3779POPC   C4A57280  12.281  20.098  23.204
 3779POPC   C1B57281  12.428  20.301  23.785
 3779POPC   C2B57282  12.401  20.181  23.627
 3779POPC   C3B57283  12.373  20.062  23.469
 3779POPC   C4B57284  12.345  19.942  23.311
 3780POPC   NC357285   7.370   2.662  -6.394
 3780POPC   PO457286   7.392   2.740  -6.211
 3780POPC   GL157287   7.414   2.818  -6.028
 3780POPC   GL257288   7.447   2.730  -5.995
 3780POPC   C1A57289   7.436   2.896  -5.845
 3780POPC   D2A57290   7.458   2.973  -5.663
 3780POPC   C3A57291   7.480   3.051  -5.480
 3780POPC   C4A57292   7.502   3.129  -5.297
 3780POPC   C1B57293   7.623   2.949  -5.891
 3780POPC   C2B57294   7.645   3.027  -5.708
 3780POPC   C3B57295   7.667   3.105  -5.525
 3780POPC   C4B57296   7.689   3.182  -5.342
 3781POPC   NC357297   7.937  -7.781   7.537
 3781POPC   PO457298   7.958  -7.584   7.560
 3781POPC   GL157299   7.979  -7.387   7.583
 3781POPC   GL257300   8.076  -7.394   7.561
 3781POPC   C1A57301   8.000  -7.189   7.607
 3781POPC   D2A57302   8.022  -6.992   7.630
 3781POPC   C3A57303   8.043  -6.794   7.654
 3781POPC   C4A57304   8.064  -6.597   7.677
 3781POPC   C1B57305   7.958  -7.162   7.413
 3781POPC   C2B57306   7.979  -6.964   7.437
 3781POPC   C3B57307   8.000  -6.767   7.460
 3781POPC   C4B57308   8.021  -6.569   7.484
 3782POPC   NC357309  -4.318  13.323  -0.860
 3782POPC   PO457310  -4.162  13.290  -0.739
 3782POPC   GL157311  -4.006  13.257  -0.618
 3782POPC   GL257312  -4.065  13.202  -0.558
 3782POPC   C1A57313  -3.851  13.225  -0.496
 3782POPC   D2A57314  -3.695  13.192  -0.375
 3782POPC   C3A57315  -3.540  13.160  -0.253
 3782POPC   C4A57316  -3.384  13.127  -0.132
 3782POPC   C1B57317  -3.803  13.061  -0.601
 3782POPC   C2B57318  -3.648  13.029  -0.480
 3782POPC   C3B57319  -3.492  12.996  -0.358
 3782POPC   C4B57320  -3.336  12.964  -0.237
 3783POPC   NC357321  -2.812  22.757  11.769
 3783POPC   PO457322  -2.671  22.617  11.752
 3783POPC   GL157323  -2.530  22.477  11.735
 3783POPC   GL257324  -2.472  22.527  11.799
 3783POPC   C1A57325  -2.388  22.337  11.717
 3783POPC   D2A57326  -2.247  22.196  11.700
 3783POPC   C3A57327  -2.105  22.056  11.682
 3783POPC   C4A57328  -1.964  21.916  11.665
 3783POPC   C1B57329  -2.469  22.236  11.870
 3783POPC   C2B57330  -2.328  22.096  11.852
 3783POPC   C3B57331  -2.187  21.955  11.835
 3783POPC   C4B57332  -2.045  21.815  11.817
 3784POPC   NC357333  25.073  14.742   1.456
 3784POPC   PO457334  24.905  14.691   1.552
 3784POPC   GL157335  24.737  14.640   1.648
 3784POPC   GL257336  24.692  14.625   1.560
 3784POPC   C1A57337  24.569  14.588   1.744
 3784POPC   D2A57338  24.402  14.537   1.839
 3784POPC   C3A57339  24.234  14.485   1.935
 3784POPC   C4A57340  24.066  14.434   2.031
 3784POPC   C1B57341  24.629  14.397   1.745
 3784POPC   C2B57342  24.461  14.346   1.841
 3784POPC   C3B57343  24.293  14.294   1.936
 3784POPC   C4B57344  24.125  14.243   2.032
 3785POPC   NC357345   0.333  23.537   2.949
 3785POPC   PO457346   0.439  23.385   3.025
 3785POPC   GL157347   0.545  23.233   3.101
 3785POPC   GL257348   0.628  23.290   3.097
 3785POPC   C1A57349   0.651  23.082   3.177
 3785POPC   D2A57350   0.757  22.930   3.252
 3785POPC   C3A57351   0.863  22.779   3.328
 3785POPC   C4A57352   0.969  22.627   3.404
 3785POPC   C1B57353   0.614  23.148   3.362
 3785POPC   C2B57354   0.720  22.996   3.437
 3785POPC   C3B57355   0.826  22.845   3.513
 3785POPC   C4B57356   0.932  22.693   3.589
 3786POPC   NC357357  21.221  -3.861   7.545
 3786POPC   PO457358  21.095  -3.708   7.572
 3786POPC   GL157359  20.969  -3.555   7.599
 3786POPC   GL257360  21.035  -3.511   7.660
 3786POPC   C1A57361  20.843  -3.402   7.627
 3786POPC   D2A57362  20.716  -3.250   7.654
 3786POPC   C3A57363  20.590  -3.097   7.682
 3786POPC   C4A57364  20.464  -2.944   7.709
 3786POPC   C1B57365  20.922  -3.308   7.470
 3786POPC   C2B57366  20.796  -3.155   7.497
 3786POPC   C3B57367  20.670  -3.003   7.524
 3786POPC   C4B57368  20.544  -2.850   7.552
 3787POPC   NC357369   6.484  12.862  -7.588
 3787POPC   PO457370   6.520  12.833  -7.394
 3787POPC   GL157371   6.556  12.804  -7.200
 3787POPC   GL257372   6.458  12.799  -7.182
 3787POPC   C1A57373   6.593  12.774  -7.005
 3787POPC   D2A57374   6.629  12.745  -6.811
 3787POPC   C3A57375   6.666  12.715  -6.616
 3787POPC   C4A57376   6.702  12.686  -6.422
 3787POPC   C1B57377   6.596  12.577  -7.036
 3787POPC   C2B57378   6.633  12.547  -6.841
 3787POPC   C3B57379   6.669  12.518  -6.647
 3787POPC   C4B57380   6.706  12.488  -6.453
 3788POPC   NC357381  18.306  21.315  -1.301
 3788POPC   PO457382  18.209  21.187  -1.182
 3788POPC   GL157383  18.112  21.059  -1.063
 3788POPC   GL257384  18.199  21.013  -1.042
 3788POPC   C1A57385  18.015  20.931  -0.944
 3788POPC   D2A57386  17.919  20.803  -0.824
 3788POPC   C3A57387  17.822  20.675  -0.705
 3788POPC   C4A57388  17.725  20.547  -0.586
 3788POPC   C1B57389  18.045  21.053  -0.788
 3788POPC   C2B57390  17.948  20.925  -0.669
 3788POPC   C3B57391  17.851  20.797  -0.550
 3788POPC   C4B57392  17.754  20.669  -0.431
 3789POPC   NC357393  23.527  10.071  -1.774
 3789POPC   PO457394  23.373  10.068  -1.647
 3789POPC   GL157395  23.219  10.065  -1.520
 3789POPC   GL257396  23.199   9.970  -1.547
 3789POPC   C1A57397  23.064  10.062  -1.393
 3789POPC   D2A57398  22.910  10.058  -1.266
 3789POPC   C3A57399  22.755  10.055  -1.139
 3789POPC   C4A57400  22.601  10.052  -1.012
 3789POPC   C1B57401  23.185   9.995  -1.248
 3789POPC   C2B57402  23.031   9.992  -1.121
 3789POPC   C3B57403  22.876   9.989  -0.994
 3789POPC   C4B57404  22.722   9.986  -0.867
 3790POPC   NC357405   6.690  25.178   0.753
 3790POPC   PO457406   6.725  25.012   0.859
 3790POPC   GL157407   6.760  24.846   0.965
 3790POPC   GL257408   6.819  24.898   1.027
 3790POPC   C1A57409   6.795  24.680   1.072
 3790POPC   D2A57410   6.830  24.515   1.178
 3790POPC   C3A57411   6.865  24.349   1.285
 3790POPC   C4A57412   6.900  24.183   1.391
 3790POPC   C1B57413   6.638  24.722   1.188
 3790POPC   C2B57414   6.673  24.556   1.294
 3790POPC   C3B57415   6.708  24.390   1.401
 3790POPC   C4B57416   6.743  24.224   1.507
 3791POPC   NC357417  23.499  21.698   8.151
 3791POPC   PO457418  23.343  21.575   8.175
 3791POPC   GL157419  23.187  21.452   8.199
 3791POPC   GL257420  23.150  21.481   8.111
 3791POPC   C1A57421  23.031  21.329   8.223
 3791POPC   D2A57422  22.875  21.206   8.248
 3791POPC   C3A57423  22.719  21.083   8.272
 3791POPC   C4A57424  22.563  20.960   8.296
 3791POPC   C1B57425  23.132  21.183   8.132
 3791POPC   C2B57426  22.976  21.060   8.157
 3791POPC   C3B57427  22.820  20.937   8.181
 3791POPC   C4B57428  22.664  20.814   8.205
 3792POPC   NC357429  12.131  -7.165   4.540
 3792POPC   PO457430  12.105  -6.976   4.600
 3792POPC   GL157431  12.079  -6.787   4.660
 3792POPC   GL257432  12.104  -6.755   4.569
 3792POPC   C1A57433  12.052  -6.598   4.721
 3792POPC   D2A57434  12.026  -6.410   4.781
 3792POPC   C3A57435  11.999  -6.221   4.842
 3792POPC   C4A57436  11.973  -6.032   4.902
 3792POPC   C1B57437  11.861  -6.607   4.664
 3792POPC   C2B57438  11.834  -6.418   4.725
 3792POPC   C3B57439  11.808  -6.230   4.785
 3792POPC   C4B57440  11.781  -6.041   4.845
 3793POPC   NC357441  -3.469  19.393   2.182
 3793POPC   PO457442  -3.320  19.291   2.268
 3793POPC   GL157443  -3.171  19.189   2.354
 3793POPC   GL257444  -3.198  19.225   2.443
 3793POPC   C1A57445  -3.021  19.087   2.439
 3793POPC   D2A57446  -2.872  18.986   2.525
 3793POPC   C3A57447  -2.722  18.884   2.610
 3793POPC   C4A57448  -2.573  18.782   2.696
 3793POPC   C1B57449  -3.143  18.931   2.465
 3793POPC   C2B57450  -2.993  18.829   2.550
 3793POPC   C3B57451  -2.844  18.727   2.636
 3793POPC   C4B57452  -2.695  18.625   2.722
 3794POPC   NC357453   6.538  25.484  18.615
 3794POPC   PO457454   6.574  25.312  18.520
 3794POPC   GL157455   6.610  25.140  18.425
 3794POPC   GL257456   6.709  25.153  18.439
 3794POPC   C1A57457   6.647  24.968  18.330
 3794POPC   D2A57458   6.683  24.795  18.234
 3794POPC   C3A57459   6.720  24.623  18.139
 3794POPC   C4A57460   6.756  24.451  18.044
 3794POPC   C1B57461   6.636  24.869  18.503
 3794POPC   C2B57462   6.672  24.697  18.408
 3794POPC   C3B57463   6.708  24.525  18.313
 3794POPC   C4B57464   6.745  24.353  18.218
 3795POPC   NC357465  25.856   7.962  18.012
 3795POPC   PO457466  25.681   7.988  17.918
 3795POPC   GL157467  25.506   8.014  17.824
 3795POPC   GL257468  25.554   8.060  17.749
 3795POPC   C1A57469  25.332   8.040  17.730
 3795POPC   D2A57470  25.157   8.065  17.637
 3795POPC   C3A57471  24.983   8.091  17.543
 3795POPC   C4A57472  24.808   8.117  17.449
 3795POPC   C1B57473  25.355   7.864  17.638
 3795POPC   C2B57474  25.181   7.890  17.544
 3795POPC   C3B57475  25.006   7.915  17.451
 3795POPC   C4B57476  24.832   7.941  17.357
 3796POPC   NC357477   3.207  26.396   6.309
 3796POPC   PO457478   3.287  26.217   6.349
 3796POPC   GL157479   3.367  26.038   6.389
 3796POPC   GL257480   3.351  26.053   6.487
 3796POPC   C1A57481   3.447  25.859   6.429
 3796POPC   D2A57482   3.528  25.681   6.469
 3796POPC   C3A57483   3.608  25.502   6.509
 3796POPC   C4A57484   3.688  25.323   6.549
 3796POPC   C1B57485   3.267  25.775   6.411
 3796POPC   C2B57486   3.347  25.596   6.451
 3796POPC   C3B57487   3.428  25.417   6.491
 3796POPC   C4B57488   3.508  25.238   6.531
 3797POPC   NC357489  -6.487  14.253   3.731
 3797POPC   PO457490  -6.305  14.204   3.798
 3797POPC   GL157491  -6.123  14.155   3.865
 3797POPC   GL257492  -6.144  14.197   3.953
 3797POPC   C1A57493  -5.941  14.105   3.931
 3797POPC   D2A57494  -5.759  14.056   3.998
 3797POPC   C3A57495  -5.577  14.006   4.064
 3797POPC   C4A57496  -5.395  13.957   4.131
 3797POPC   C1B57497  -6.013  13.931   3.997
 3797POPC   C2B57498  -5.831  13.881   4.064
 3797POPC   C3B57499  -5.649  13.832   4.130
 3797POPC   C4B57500  -5.467  13.782   4.197
 3798POPC   NC357501   6.643  26.741   3.922
 3798POPC   PO457502   6.677  26.556   3.989
 3798POPC   GL157503   6.711  26.371   4.056
 3798POPC   GL257504   6.807  26.379   4.031
 3798POPC   C1A57505   6.745  26.185   4.123
 3798POPC   D2A57506   6.778  26.000   4.189
 3798POPC   C3A57507   6.812  25.814   4.256
 3798POPC   C4A57508   6.846  25.629   4.323
 3798POPC   C1B57509   6.786  26.258   4.304
 3798POPC   C2B57510   6.819  26.073   4.371
 3798POPC   C3B57511   6.853  25.887   4.438
 3798POPC   C4B57512   6.887  25.702   4.505
 3799POPC   NC357513  15.426  21.659  22.565
 3799POPC   PO457514  15.366  21.528  22.426
 3799POPC   GL157515  15.306  21.397  22.287
 3799POPC   GL257516  15.390  21.414  22.235
 3799POPC   C1A57517  15.246  21.266  22.148
 3799POPC   D2A57518  15.186  21.136  22.009
 3799POPC   C3A57519  15.126  21.005  21.870
 3799POPC   C4A57520  15.066  20.874  21.731
 3799POPC   C1B57521  15.337  21.119  22.248
 3799POPC   C2B57522  15.277  20.988  22.109
 3799POPC   C3B57523  15.217  20.857  21.970
 3799POPC   C4B57524  15.157  20.726  21.831
 3800POPC   NC357525  -4.517  16.395   1.111
 3800POPC   PO457526  -4.355  16.321   1.201
 3800POPC   GL157527  -4.193  16.247   1.291
 3800POPC   GL257528  -4.209  16.307   1.370
 3800POPC   C1A57529  -4.030  16.173   1.382
 3800POPC   D2A57530  -3.868  16.099   1.472
 3800POPC   C3A57531  -3.705  16.025   1.563
 3800POPC   C4A57532  -3.543  15.951   1.653
 3800POPC   C1B57533  -4.142  16.031   1.466
 3800POPC   C2B57534  -3.980  15.957   1.557
 3800POPC   C3B57535  -3.817  15.883   1.647
 3800POPC   C4B57536  -3.655  15.809   1.738
 3801POPC   NC357537  -4.430  11.690  -0.997
 3801POPC   PO457538  -4.274  11.678  -0.872
 3801POPC   GL157539  -4.118  11.666  -0.747
 3801POPC   GL257540  -4.133  11.568  -0.738
 3801POPC   C1A57541  -3.962  11.654  -0.622
 3801POPC   D2A57542  -3.807  11.642  -0.498
 3801POPC   C3A57543  -3.651  11.630  -0.373
 3801POPC   C4A57544  -3.495  11.618  -0.248
 3801POPC   C1B57545  -3.841  11.620  -0.778
 3801POPC   C2B57546  -3.685  11.608  -0.653
 3801POPC   C3B57547  -3.529  11.596  -0.528
 3801POPC   C4B57548  -3.373  11.584  -0.403
 3802POPC   NC357549   6.232   7.553  27.435
 3802POPC   PO457550   6.271   7.580  27.241
 3802POPC   GL157551   6.310   7.607  27.047
 3802POPC   GL257552   6.406   7.587  27.063
 3802POPC   C1A57553   6.348   7.634  26.852
 3802POPC   D2A57554   6.387   7.660  26.658
 3802POPC   C3A57555   6.425   7.687  26.463
 3802POPC   C4A57556   6.464   7.714  26.269
 3802POPC   C1B57557   6.313   7.440  26.819
 3802POPC   C2B57558   6.352   7.466  26.624
 3802POPC   C3B57559   6.390   7.493  26.430
 3802POPC   C4B57560   6.429   7.520  26.235
 3803POPC   NC357561  20.053  21.864   1.080
 3803POPC   PO457562  19.939  21.733   1.179
 3803POPC   GL157563  19.825  21.602   1.278
 3803POPC   GL257564  19.819  21.545   1.196
 3803POPC   C1A57565  19.711  21.470   1.377
 3803POPC   D2A57566  19.598  21.339   1.476
 3803POPC   C3A57567  19.484  21.207   1.575
 3803POPC   C4A57568  19.370  21.076   1.674
 3803POPC   C1B57569  19.875  21.371   1.434
 3803POPC   C2B57570  19.762  21.239   1.533
 3803POPC   C3B57571  19.648  21.108   1.632
 3803POPC   C4B57572  19.534  20.977   1.731
 3804POPC   NC357573  20.831  14.055  23.533
 3804POPC   PO457574  20.709  14.007  23.382
 3804POPC   GL157575  20.587  13.959  23.231
 3804POPC   GL257576  20.644  14.013  23.168
 3804POPC   C1A57577  20.465  13.911  23.080
 3804POPC   D2A57578  20.344  13.862  22.928
 3804POPC   C3A57579  20.222  13.814  22.777
 3804POPC   C4A57580  20.100  13.766  22.626
 3804POPC   C1B57581  20.577  13.749  23.041
 3804POPC   C2B57582  20.455  13.701  22.890
 3804POPC   C3B57583  20.333  13.653  22.739
 3804POPC   C4B57584  20.211  13.604  22.588
 3805POPC   NC357585  16.492  17.627  24.884
 3805POPC   PO457586  16.421  17.541  24.718
 3805POPC   GL157587  16.350  17.455  24.552
 3805POPC   GL257588  16.366  17.365  24.592
 3805POPC   C1A57589  16.280  17.369  24.386
 3805POPC   D2A57590  16.209  17.283  24.219
 3805POPC   C3A57591  16.139  17.197  24.053
 3805POPC   C4A57592  16.068  17.111  23.887
 3805POPC   C1B57593  16.095  17.371  24.463
 3805POPC   C2B57594  16.025  17.285  24.297
 3805POPC   C3B57595  15.954  17.199  24.130
 3805POPC   C4B57596  15.884  17.113  23.964
 3806POPC   NC357597  16.361  -1.865  -2.032
 3806POPC   PO457598  16.292  -1.731  -1.900
 3806POPC   GL157599  16.223  -1.597  -1.768
 3806POPC   GL257600  16.245  -1.523  -1.832
 3806POPC   C1A57601  16.155  -1.463  -1.636
 3806POPC   D2A57602  16.086  -1.330  -1.505
 3806POPC   C3A57603  16.018  -1.196  -1.373
 3806POPC   C4A57604  15.949  -1.062  -1.241
 3806POPC   C1B57605  15.972  -1.479  -1.716
 3806POPC   C2B57606  15.903  -1.346  -1.584
 3806POPC   C3B57607  15.835  -1.212  -1.452
 3806POPC   C4B57608  15.766  -1.078  -1.320
 3807POPC   NC357609  16.293   4.707  -6.049
 3807POPC   PO457610  16.220   4.760  -5.871
 3807POPC   GL157611  16.147   4.813  -5.693
 3807POPC   GL257612  16.088   4.881  -5.737
 3807POPC   C1A57613  16.074   4.867  -5.514
 3807POPC   D2A57614  16.001   4.920  -5.336
 3807POPC   C3A57615  15.928   4.974  -5.157
 3807POPC   C4A57616  15.855   5.027  -4.979
 3807POPC   C1B57617  15.930   4.729  -5.532
 3807POPC   C2B57618  15.857   4.783  -5.354
 3807POPC   C3B57619  15.784   4.836  -5.175
 3807POPC   C4B57620  15.711   4.889  -4.997
 3808POPC   NC357621   8.044   0.946  -5.624
 3808POPC   PO457622   8.059   1.044  -5.450
 3808POPC   GL157623   8.074   1.142  -5.276
 3808POPC   GL257624   8.164   1.102  -5.261
 3808POPC   C1A57625   8.089   1.240  -5.103
 3808POPC   D2A57626   8.105   1.339  -4.929
 3808POPC   C3A57627   8.120   1.437  -4.756
 3808POPC   C4A57628   8.135   1.535  -4.582
 3808POPC   C1B57629   8.174   1.395  -5.197
 3808POPC   C2B57630   8.190   1.493  -5.024
 3808POPC   C3B57631   8.205   1.591  -4.850
 3808POPC   C4B57632   8.220   1.689  -4.677
 3809POPC   NC357633  13.477  -7.738  10.246
 3809POPC   PO457634  13.439  -7.542  10.240
 3809POPC   GL157635  13.401  -7.346  10.234
 3809POPC   GL257636  13.393  -7.350  10.135
 3809POPC   C1A57637  13.362  -7.150  10.228
 3809POPC   D2A57638  13.324  -6.953  10.223
 3809POPC   C3A57639  13.285  -6.757  10.217
 3809POPC   C4A57640  13.247  -6.561  10.211
 3809POPC   C1B57641  13.167  -7.187  10.245
 3809POPC   C2B57642  13.128  -6.991  10.239
 3809POPC   C3B57643  13.090  -6.795  10.233
 3809POPC   C4B57644  13.051  -6.599  10.228
 3810POPC   NC357645  27.496   6.240  10.601
 3810POPC   PO457646  27.299   6.276  10.595
 3810POPC   GL157647  27.102   6.312  10.589
 3810POPC   GL257648  27.093   6.250  10.511
 3810POPC   C1A57649  26.905   6.347  10.583
 3810POPC   D2A57650  26.709   6.383  10.578
 3810POPC   C3A57651  26.512   6.418  10.572
 3810POPC   C4A57652  26.315   6.454  10.566
 3810POPC   C1B57653  26.874   6.194  10.708
 3810POPC   C2B57654  26.677   6.229  10.702
 3810POPC   C3B57655  26.480   6.265  10.696
 3810POPC   C4B57656  26.284   6.300  10.690
 3811POPC   NC357657  -3.223   7.983  -2.287
 3811POPC   PO457658  -3.076   8.001  -2.152
 3811POPC   GL157659  -2.929   8.019  -2.017
 3811POPC   GL257660  -2.933   7.921  -2.000
 3811POPC   C1A57661  -2.783   8.037  -1.882
 3811POPC   D2A57662  -2.636   8.055  -1.748
 3811POPC   C3A57663  -2.490   8.073  -1.613
 3811POPC   C4A57664  -2.343   8.091  -1.478
 3811POPC   C1B57665  -2.647   8.006  -2.026
 3811POPC   C2B57666  -2.500   8.024  -1.891
 3811POPC   C3B57667  -2.354   8.042  -1.756
 3811POPC   C4B57668  -2.207   8.060  -1.622
 3812POPC   NC357669  -0.636  18.486  -2.104
 3812POPC   PO457670  -0.519  18.394  -1.970
 3812POPC   GL157671  -0.402  18.302  -1.836
 3812POPC   GL257672  -0.327  18.364  -1.859
 3812POPC   C1A57673  -0.286  18.210  -1.702
 3812POPC   D2A57674  -0.169  18.119  -1.567
 3812POPC   C3A57675  -0.053  18.027  -1.433
 3812POPC   C4A57676   0.064  17.935  -1.299
 3812POPC   C1B57677  -0.347  18.338  -1.561
 3812POPC   C2B57678  -0.231  18.247  -1.427
 3812POPC   C3B57679  -0.114  18.155  -1.292
 3812POPC   C4B57680   0.003  18.063  -1.158
 3813POPC   NC357681   4.145  25.108   1.893
 3813POPC   PO457682   4.210  24.943   1.985
 3813POPC   GL157683   4.275  24.778   2.077
 3813POPC   GL257684   4.329  24.834   2.140
 3813POPC   C1A57685   4.340  24.613   2.170
 3813POPC   D2A57686   4.405  24.448   2.262
 3813POPC   C3A57687   4.470  24.283   2.355
 3813POPC   C4A57688   4.535  24.118   2.447
 3813POPC   C1B57689   4.184  24.622   2.295
 3813POPC   C2B57690   4.249  24.457   2.387
 3813POPC   C3B57691   4.314  24.292   2.480
 3813POPC   C4B57692   4.379  24.127   2.572
 3814POPC   NC357693  17.607  -4.098  18.243
 3814POPC   PO457694  17.522  -3.941  18.152
 3814POPC   GL157695  17.437  -3.784  18.061
 3814POPC   GL257696  17.476  -3.814  17.974
 3814POPC   C1A57697  17.352  -3.628  17.970
 3814POPC   D2A57698  17.268  -3.471  17.878
 3814POPC   C3A57699  17.183  -3.315  17.787
 3814POPC   C4A57700  17.098  -3.158  17.696
 3814POPC   C1B57701  17.188  -3.737  17.935
 3814POPC   C2B57702  17.104  -3.580  17.844
 3814POPC   C3B57703  17.019  -3.424  17.752
 3814POPC   C4B57704  16.934  -3.267  17.661
 3815POPC   NC357705   3.938  25.698  16.559
 3815POPC   PO457706   4.003  25.523  16.486
 3815POPC   GL157707   4.068  25.348  16.413
 3815POPC   GL257708   4.071  25.311  16.506
 3815POPC   C1A57709   4.133  25.174  16.341
 3815POPC   D2A57710   4.197  24.999  16.268
 3815POPC   C3A57711   4.262  24.825  16.196
 3815POPC   C4A57712   4.327  24.650  16.123
 3815POPC   C1B57713   3.944  25.112  16.322
 3815POPC   C2B57714   4.008  24.937  16.249
 3815POPC   C3B57715   4.073  24.762  16.176
 3815POPC   C4B57716   4.138  24.588  16.104
 3816POPC   NC357717  -4.277  18.442  17.342
 3816POPC   PO457718  -4.121  18.348  17.260
 3816POPC   GL157719  -3.965  18.254  17.178
 3816POPC   GL257720  -3.932  18.341  17.141
 3816POPC   C1A57721  -3.809  18.160  17.096
 3816POPC   D2A57722  -3.652  18.065  17.014
 3816POPC   C3A57723  -3.496  17.971  16.932
 3816POPC   C4A57724  -3.340  17.877  16.850
 3816POPC   C1B57725  -3.703  18.190  17.263
 3816POPC   C2B57726  -3.547  18.096  17.181
 3816POPC   C3B57727  -3.390  18.002  17.099
 3816POPC   C4B57728  -3.234  17.907  17.017
 3817POPC   NC357729  -4.071  -1.416  11.542
 3817POPC   PO457730  -3.918  -1.289  11.524
 3817POPC   GL157731  -3.765  -1.162  11.506
 3817POPC   GL257732  -3.754  -1.161  11.606
 3817POPC   C1A57733  -3.612  -1.034  11.488
 3817POPC   D2A57734  -3.458  -0.907  11.471
 3817POPC   C3A57735  -3.305  -0.779  11.453
 3817POPC   C4A57736  -3.152  -0.652  11.435
 3817POPC   C1B57737  -3.485  -1.188  11.476
 3817POPC   C2B57738  -3.332  -1.061  11.458
 3817POPC   C3B57739  -3.178  -0.934  11.440
 3817POPC   C4B57740  -3.025  -0.806  11.423
 3818POPC   NC357741  -6.286   1.942  10.370
 3818POPC   PO457742  -6.106   2.029  10.367
 3818POPC   GL157743  -5.926   2.116  10.364
 3818POPC   GL257744  -5.882   2.026  10.367
 3818POPC   C1A57745  -5.746   2.204  10.361
 3818POPC   D2A57746  -5.567   2.291  10.358
 3818POPC   C3A57747  -5.387   2.379  10.355
 3818POPC   C4A57748  -5.207   2.466  10.352
 3818POPC   C1B57749  -5.746   2.196  10.161
 3818POPC   C2B57750  -5.566   2.284  10.158
 3818POPC   C3B57751  -5.386   2.371  10.155
 3818POPC   C4B57752  -5.207   2.459  10.152
 3819POPC   NC357753  19.663  -1.453  -0.033
 3819POPC   PO457754  19.552  -1.328   0.077
 3819POPC   GL157755  19.441  -1.203   0.187
 3819POPC   GL257756  19.367  -1.210   0.119
 3819POPC   C1A57757  19.330  -1.078   0.296
 3819POPC   D2A57758  19.219  -0.953   0.406
 3819POPC   C3A57759  19.108  -0.828   0.515
 3819POPC   C4A57760  18.997  -0.703   0.625
 3819POPC   C1B57761  19.253  -1.233   0.396
 3819POPC   C2B57762  19.142  -1.108   0.506
 3819POPC   C3B57763  19.031  -0.983   0.615
 3819POPC   C4B57764  18.920  -0.858   0.725
 3820POPC   NC357765   1.273  22.344  19.965
 3820POPC   PO457766   1.366  22.207  19.852
 3820POPC   GL157767   1.459  22.070  19.739
 3820POPC   GL257768   1.508  22.143  19.692
 3820POPC   C1A57769   1.552  21.934  19.627
 3820POPC   D2A57770   1.646  21.797  19.514
 3820POPC   C3A57771   1.739  21.661  19.402
 3820POPC   C4A57772   1.832  21.524  19.289
 3820POPC   C1B57773   1.700  21.923  19.762
 3820POPC   C2B57774   1.793  21.786  19.649
 3820POPC   C3B57775   1.886  21.650  19.537
 3820POPC   C4B57776   1.979  21.513  19.424
 3821POPC   NC357777  10.801  27.484  14.233
 3821POPC   PO457778  10.788  27.289  14.188
 3821POPC   GL157779  10.775  27.094  14.143
 3821POPC   GL257780  10.856  27.102  14.085
 3821POPC   C1A57781  10.762  26.900  14.099
 3821POPC   D2A57782  10.748  26.705  14.054
 3821POPC   C3A57783  10.735  26.511  14.010
 3821POPC   C4A57784  10.722  26.316  13.965
 3821POPC   C1B57785  10.879  26.856  14.255
 3821POPC   C2B57786  10.865  26.661  14.210
 3821POPC   C3B57787  10.852  26.467  14.166
 3821POPC   C4B57788  10.839  26.272  14.121
 3822POPC   NC357789  14.677  18.070  -5.457
 3822POPC   PO457790  14.626  17.981  -5.285
 3822POPC   GL157791  14.575  17.892  -5.113
 3822POPC   GL257792  14.611  17.805  -5.148
 3822POPC   C1A57793  14.525  17.803  -4.941
 3822POPC   D2A57794  14.474  17.713  -4.770
 3822POPC   C3A57795  14.424  17.624  -4.598
 3822POPC   C4A57796  14.373  17.535  -4.426
 3822POPC   C1B57797  14.705  17.845  -4.866
 3822POPC   C2B57798  14.655  17.756  -4.694
 3822POPC   C3B57799  14.604  17.667  -4.523
 3822POPC   C4B57800  14.553  17.578  -4.351
 3823POPC   NC357801   8.030  13.751  27.457
 3823POPC   PO457802   8.057  13.712  27.263
 3823POPC   GL157803   8.084  13.673  27.069
 3823POPC   GL257804   8.174  13.635  27.089
 3823POPC   C1A57805   8.111  13.634  26.874
 3823POPC   D2A57806   8.139  13.596  26.680
 3823POPC   C3A57807   8.166  13.557  26.485
 3823POPC   C4A57808   8.193  13.518  26.291
 3823POPC   C1B57809   8.029  13.454  26.899
 3823POPC   C2B57810   8.056  13.415  26.704
 3823POPC   C3B57811   8.083  13.376  26.510
 3823POPC   C4B57812   8.111  13.337  26.315
 3824POPC   NC357813  22.660  22.077   5.950
 3824POPC   PO457814  22.513  21.950   5.998
 3824POPC   GL157815  22.366  21.823   6.046
 3824POPC   GL257816  22.338  21.819   5.950
 3824POPC   C1A57817  22.219  21.696   6.094
 3824POPC   D2A57818  22.072  21.569   6.142
 3824POPC   C3A57819  21.925  21.442   6.190
 3824POPC   C4A57820  21.778  21.315   6.238
 3824POPC   C1B57821  22.343  21.542   6.065
 3824POPC   C2B57822  22.196  21.415   6.113
 3824POPC   C3B57823  22.049  21.288   6.161
 3824POPC   C4B57824  21.902  21.161   6.209
 3825POPC   NC357825  -3.139  20.616   3.258
 3825POPC   PO457826  -2.997  20.497   3.333
 3825POPC   GL157827  -2.855  20.378   3.408
 3825POPC   GL257828  -2.873  20.414   3.500
 3825POPC   C1A57829  -2.712  20.260   3.483
 3825POPC   D2A57830  -2.570  20.141   3.559
 3825POPC   C3A57831  -2.427  20.023   3.634
 3825POPC   C4A57832  -2.285  19.904   3.709
 3825POPC   C1B57833  -2.848  20.116   3.512
 3825POPC   C2B57834  -2.705  19.997   3.588
 3825POPC   C3B57835  -2.563  19.878   3.663
 3825POPC   C4B57836  -2.420  19.760   3.738
 3826POPC   NC357837  -5.230  19.608  12.379
 3826POPC   PO457838  -5.064  19.500  12.350
 3826POPC   GL157839  -4.898  19.392  12.321
 3826POPC   GL257840  -4.907  19.354  12.413
 3826POPC   C1A57841  -4.732  19.284  12.292
 3826POPC   D2A57842  -4.566  19.177  12.264
 3826POPC   C3A57843  -4.400  19.069  12.235
 3826POPC   C4A57844  -4.234  18.961  12.206
 3826POPC   C1B57845  -4.842  19.135  12.219
 3826POPC   C2B57846  -4.676  19.027  12.190
 3826POPC   C3B57847  -4.510  18.919  12.161
 3826POPC   C4B57848  -4.344  18.811  12.132
 3827POPC   NC357849   4.682  23.872  20.230
 3827POPC   PO457850   4.740  23.721  20.112
 3827POPC   GL157851   4.798  23.570  19.994
 3827POPC   GL257852   4.853  23.634  19.940
 3827POPC   C1A57853   4.855  23.420  19.876
 3827POPC   D2A57854   4.913  23.269  19.757
 3827POPC   C3A57855   4.970  23.119  19.639
 3827POPC   C4A57856   5.028  22.968  19.521
 3827POPC   C1B57857   5.011  23.385  19.996
 3827POPC   C2B57858   5.068  23.234  19.878
 3827POPC   C3B57859   5.126  23.083  19.760
 3827POPC   C4B57860   5.184  22.933  19.642
 3828POPC   NC357861   7.631  15.017  -7.283
 3828POPC   PO457862   7.654  14.961  -7.092
 3828POPC   GL157863   7.677  14.905  -6.901
 3828POPC   GL257864   7.740  14.981  -6.887
 3828POPC   C1A57865   7.700  14.849  -6.711
 3828POPC   D2A57866   7.724  14.793  -6.520
 3828POPC   C3A57867   7.747  14.737  -6.330
 3828POPC   C4A57868   7.770  14.681  -6.139
 3828POPC   C1B57869   7.547  14.966  -6.658
 3828POPC   C2B57870   7.570  14.910  -6.467
 3828POPC   C3B57871   7.593  14.854  -6.277
 3828POPC   C4B57872   7.617  14.798  -6.086
 3829POPC   NC357873  25.672   8.434   1.372
 3829POPC   PO457874  25.497   8.449   1.467
 3829POPC   GL157875  25.322   8.464   1.562
 3829POPC   GL257876  25.305   8.367   1.548
 3829POPC   C1A57877  25.147   8.480   1.658
 3829POPC   D2A57878  24.971   8.495   1.753
 3829POPC   C3A57879  24.796   8.511   1.849
 3829POPC   C4A57880  24.621   8.526   1.944
 3829POPC   C1B57881  25.237   8.438   1.831
 3829POPC   C2B57882  25.062   8.454   1.927
 3829POPC   C3B57883  24.887   8.469   2.022
 3829POPC   C4B57884  24.712   8.485   2.117
 3830POPC   NC357885   8.606  25.817  18.567
 3830POPC   PO457886   8.621  25.641  18.473
 3830POPC   GL157887   8.636  25.465  18.379
 3830POPC   GL257888   8.714  25.441  18.437
 3830POPC   C1A57889   8.652  25.289  18.285
 3830POPC   D2A57890   8.667  25.114  18.191
 3830POPC   C3A57891   8.683  24.938  18.097
 3830POPC   C4A57892   8.698  24.762  18.003
 3830POPC   C1B57893   8.526  25.208  18.417
 3830POPC   C2B57894   8.542  25.032  18.323
 3830POPC   C3B57895   8.557  24.856  18.229
 3830POPC   C4B57896   8.572  24.680  18.135
 3831POPC   NC357897  25.689  16.483  15.735
 3831POPC   PO457898  25.512  16.414  15.672
 3831POPC   GL157899  25.335  16.345  15.609
 3831POPC   GL257900  25.377  16.316  15.522
 3831POPC   C1A57901  25.159  16.276  15.545
 3831POPC   D2A57902  24.982  16.206  15.482
 3831POPC   C3A57903  24.806  16.137  15.418
 3831POPC   C4A57904  24.629  16.068  15.355
 3831POPC   C1B57905  25.201  16.097  15.624
 3831POPC   C2B57906  25.024  16.028  15.561
 3831POPC   C3B57907  24.847  15.958  15.498
 3831POPC   C4B57908  24.671  15.889  15.434
 3832POPC   NC357909  25.097   1.408  14.492
 3832POPC   PO457910  24.929   1.504  14.442
 3832POPC   GL157911  24.761   1.600  14.392
 3832POPC   GL257912  24.771   1.568  14.298
 3832POPC   C1A57913  24.593   1.696  14.342
 3832POPC   D2A57914  24.425   1.793  14.291
 3832POPC   C3A57915  24.257   1.889  14.241
 3832POPC   C4A57916  24.089   1.985  14.191
 3832POPC   C1B57917  24.486   1.533  14.385
 3832POPC   C2B57918  24.318   1.629  14.335
 3832POPC   C3B57919  24.150   1.725  14.285
 3832POPC   C4B57920  23.982   1.822  14.235
 3833POPC   NC357921   2.421  -3.431   0.408
 3833POPC   PO457922   2.505  -3.289   0.521
 3833POPC   GL157923   2.589  -3.147   0.634
 3833POPC   GL257924   2.677  -3.163   0.588
 3833POPC   C1A57925   2.673  -3.004   0.746
 3833POPC   D2A57926   2.758  -2.862   0.859
 3833POPC   C3A57927   2.842  -2.719   0.971
 3833POPC   C4A57928   2.926  -2.577   1.084
 3833POPC   C1B57929   2.627  -2.867   0.608
 3833POPC   C2B57930   2.712  -2.725   0.720
 3833POPC   C3B57931   2.796  -2.583   0.833
 3833POPC   C4B57932   2.880  -2.440   0.946
 3834POPC   NC357933  22.680   8.035  22.489
 3834POPC   PO457934  22.536   8.059  22.352
 3834POPC   GL157935  22.392   8.083  22.215
 3834POPC   GL257936  22.459   8.123  22.152
 3834POPC   C1A57937  22.248   8.107  22.078
 3834POPC   D2A57938  22.105   8.132  21.941
 3834POPC   C3A57939  21.961   8.156  21.804
 3834POPC   C4A57940  21.817   8.180  21.667
 3834POPC   C1B57941  22.288   7.926  22.004
 3834POPC   C2B57942  22.144   7.950  21.867
 3834POPC   C3B57943  22.001   7.974  21.730
 3834POPC   C4B57944  21.857   7.998  21.593
 3835POPC   NC357945  22.621  -1.092   3.523
 3835POPC   PO457946  22.479  -0.969   3.593
 3835POPC   GL157947  22.337  -0.846   3.663
 3835POPC   GL257948  22.397  -0.768   3.646
 3835POPC   C1A57949  22.196  -0.724   3.733
 3835POPC   D2A57950  22.054  -0.601   3.803
 3835POPC   C3A57951  21.913  -0.479   3.873
 3835POPC   C4A57952  21.771  -0.356   3.943
 3835POPC   C1B57953  22.120  -0.707   3.549
 3835POPC   C2B57954  21.978  -0.584   3.619
 3835POPC   C3B57955  21.836  -0.461   3.689
 3835POPC   C4B57956  21.695  -0.339   3.759
 3836POPC   NC357957   8.399  25.415   0.689
 3836POPC   PO457958   8.418  25.249   0.798
 3836POPC   GL157959   8.437  25.083   0.907
 3836POPC   GL257960   8.466  25.137   0.986
 3836POPC   C1A57961   8.457  24.916   1.016
 3836POPC   D2A57962   8.476  24.750   1.126
 3836POPC   C3A57963   8.496  24.583   1.235
 3836POPC   C4A57964   8.515  24.417   1.344
 3836POPC   C1B57965   8.266  24.932   1.075
 3836POPC   C2B57966   8.286  24.766   1.184
 3836POPC   C3B57967   8.305  24.599   1.293
 3836POPC   C4B57968   8.324  24.433   1.402
 3837POPC   NC357969  -0.231   3.971  23.519
 3837POPC   PO457970  -0.117   4.039  23.370
 3837POPC   GL157971  -0.003   4.107  23.221
 3837POPC   GL257972   0.064   4.035  23.239
 3837POPC   C1A57973   0.112   4.175  23.072
 3837POPC   D2A57974   0.226   4.243  22.922
 3837POPC   C3A57975   0.341   4.311  22.773
 3837POPC   C4A57976   0.455   4.379  22.624
 3837POPC   C1B57977   0.016   4.055  22.943
 3837POPC   C2B57978   0.130   4.123  22.794
 3837POPC   C3B57979   0.245   4.191  22.645
 3837POPC   C4B57980   0.359   4.259  22.496
 3838POPC   NC357981  -0.856  13.745  23.889
 3838POPC   PO457982  -0.737  13.701  23.734
 3838POPC   GL157983  -0.618  13.657  23.579
 3838POPC   GL257984  -0.565  13.595  23.638
 3838POPC   C1A57985  -0.500  13.612  23.424
 3838POPC   D2A57986  -0.381  13.568  23.270
 3838POPC   C3A57987  -0.263  13.523  23.115
 3838POPC   C4A57988  -0.144  13.479  22.960
 3838POPC   C1B57989  -0.621  13.461  23.375
 3838POPC   C2B57990  -0.502  13.416  23.220
 3838POPC   C3B57991  -0.384  13.372  23.066
 3838POPC   C4B57992  -0.265  13.328  22.911
 3839POPC   NC357993  27.506   7.901  13.094
 3839POPC   PO457994  27.310   7.922  13.063
 3839POPC   GL157995  27.114   7.943  13.032
 3839POPC   GL257996  27.119   7.881  12.954
 3839POPC   C1A57997  26.917   7.965  13.001
 3839POPC   D2A57998  26.721   7.986  12.970
 3839POPC   C3A57999  26.524   8.008  12.939
 3839POPC   C4A58000  26.328   8.029  12.908
 3839POPC   C1B58001  26.881   7.811  13.123
 3839POPC   C2B58002  26.685   7.832  13.092
 3839POPC   C3B58003  26.488   7.853  13.061
 3839POPC   C4B58004  26.292   7.875  13.030
 3840POPC   NC358005   6.827   7.094  27.477
 3840POPC   PO458006   6.860   7.126  27.282
 3840POPC   GL158007   6.893   7.158  27.087
 3840POPC   GL258008   6.991   7.144  27.102
 3840POPC   C1A58009   6.927   7.190  26.893
 3840POPC   D2A58010   6.960   7.222  26.698
 3840POPC   C3A58011   6.994   7.254  26.504
 3840POPC   C4A58012   7.027   7.286  26.309
 3840POPC   C1B58013   6.904   6.995  26.857
 3840POPC   C2B58014   6.937   7.027  26.662
 3840POPC   C3B58015   6.970   7.059  26.467
 3840POPC   C4B58016   7.004   7.091  26.273
 3841POPC   NC358017  -1.215  13.606  -3.807
 3841POPC   PO458018  -1.094  13.571  -3.652
 3841POPC   GL158019  -0.973  13.536  -3.497
 3841POPC   GL258020  -1.049  13.549  -3.434
 3841POPC   C1A58021  -0.851  13.500  -3.342
 3841POPC   D2A58022  -0.730  13.465  -3.187
 3841POPC   C3A58023  -0.608  13.429  -3.032
 3841POPC   C4A58024  -0.487  13.394  -2.877
 3841POPC   C1B58025  -0.895  13.305  -3.352
 3841POPC   C2B58026  -0.774  13.270  -3.197
 3841POPC   C3B58027  -0.652  13.235  -3.042
 3841POPC   C4B58028  -0.531  13.199  -2.887
 3842POPC   NC358029  25.821   2.016  12.800
 3842POPC   PO458030  25.643   2.102  12.770
 3842POPC   GL158031  25.465   2.188  12.740
 3842POPC   GL258032  25.444   2.121  12.669
 3842POPC   C1A58033  25.287   2.274  12.709
 3842POPC   D2A58034  25.109   2.361  12.679
 3842POPC   C3A58035  24.931   2.447  12.648
 3842POPC   C4A58036  24.753   2.533  12.618
 3842POPC   C1B58037  25.206   2.155  12.848
 3842POPC   C2B58038  25.028   2.241  12.817
 3842POPC   C3B58039  24.850   2.328  12.787
 3842POPC   C4B58040  24.672   2.414  12.756
 3843POPC   NC358041  17.669  10.236  -6.304
 3843POPC   PO458042  17.581  10.234  -6.124
 3843POPC   GL158043  17.493  10.232  -5.944
 3843POPC   GL258044  17.433  10.307  -5.973
 3843POPC   C1A58045  17.405  10.230  -5.765
 3843POPC   D2A58046  17.317  10.229  -5.585
 3843POPC   C3A58047  17.229  10.227  -5.406
 3843POPC   C4A58048  17.141  10.225  -5.226
 3843POPC   C1B58049  17.270  10.099  -5.832
 3843POPC   C2B58050  17.182  10.097  -5.652
 3843POPC   C3B58051  17.094  10.095  -5.473
 3843POPC   C4B58052  17.006  10.093  -5.293
 3844POPC   NC358053  -2.395  22.446   5.471
 3844POPC   PO458054  -2.265  22.302   5.521
 3844POPC   GL158055  -2.135  22.158   5.571
 3844POPC   GL258056  -2.060  22.213   5.534
 3844POPC   C1A58057  -2.005  22.014   5.621
 3844POPC   D2A58058  -1.876  21.871   5.670
 3844POPC   C3A58059  -1.746  21.727   5.720
 3844POPC   C4A58060  -1.616  21.583   5.770
 3844POPC   C1B58061  -1.980  22.099   5.800
 3844POPC   C2B58062  -1.850  21.955   5.850
 3844POPC   C3B58063  -1.721  21.812   5.900
 3844POPC   C4B58064  -1.591  21.668   5.949
 3845POPC   NC358065   5.542  -4.011  -0.634
 3845POPC   PO458066   5.587  -3.856  -0.515
 3845POPC   GL158067   5.632  -3.701  -0.396
 3845POPC   GL258068   5.717  -3.687  -0.447
 3845POPC   C1A58069   5.677  -3.547  -0.278
 3845POPC   D2A58070   5.722  -3.392  -0.159
 3845POPC   C3A58071   5.767  -3.238  -0.041
 3845POPC   C4A58072   5.812  -3.083   0.078
 3845POPC   C1B58073   5.582  -3.423  -0.403
 3845POPC   C2B58074   5.627  -3.269  -0.285
 3845POPC   C3B58075   5.672  -3.114  -0.166
 3845POPC   C4B58076   5.717  -2.959  -0.047
 3846POPC   NC358077   9.623  12.575  27.799
 3846POPC   PO458078   9.629  12.546  27.601
 3846POPC   GL158079   9.635  12.517  27.403
 3846POPC   GL258080   9.647  12.615  27.389
 3846POPC   C1A58081   9.641  12.488  27.205
 3846POPC   D2A58082   9.646  12.459  27.008
 3846POPC   C3A58083   9.652  12.430  26.810
 3846POPC   C4A58084   9.658  12.401  26.612
 3846POPC   C1B58085   9.839  12.464  27.215
 3846POPC   C2B58086   9.845  12.435  27.017
 3846POPC   C3B58087   9.851  12.406  26.819
 3846POPC   C4B58088   9.856  12.377  26.621
 3847POPC   NC358089  27.291  14.045   7.402
 3847POPC   PO458090  27.098  13.999   7.429
 3847POPC   GL158091  26.905  13.953   7.456
 3847POPC   GL258092  26.893  13.945   7.357
 3847POPC   C1A58093  26.712  13.907   7.483
 3847POPC   D2A58094  26.520  13.862   7.511
 3847POPC   C3A58095  26.327  13.816   7.538
 3847POPC   C4A58096  26.134  13.770   7.565
 3847POPC   C1B58097  26.760  13.713   7.494
 3847POPC   C2B58098  26.567  13.668   7.521
 3847POPC   C3B58099  26.374  13.622   7.548
 3847POPC   C4B58100  26.182  13.576   7.575
 3848POPC   NC358101  -7.779  10.738   6.428
 3848POPC   PO458102  -7.584  10.728   6.470
 3848POPC   GL158103  -7.389  10.718   6.512
 3848POPC   GL258104  -7.410  10.672   6.599
 3848POPC   C1A58105  -7.194  10.709   6.555
 3848POPC   D2A58106  -6.998  10.699   6.597
 3848POPC   C3A58107  -6.803  10.690   6.640
 3848POPC   C4A58108  -6.608  10.680   6.682
 3848POPC   C1B58109  -7.182  10.532   6.463
 3848POPC   C2B58110  -6.987  10.522   6.505
 3848POPC   C3B58111  -6.792  10.512   6.547
 3848POPC   C4B58112  -6.597  10.503   6.590
 3849POPC   NC358113  19.359  -0.981  -0.833
 3849POPC   PO458114  19.250  -0.862  -0.715
 3849POPC   GL158115  19.141  -0.743  -0.597
 3849POPC   GL258116  19.102  -0.698  -0.677
 3849POPC   C1A58117  19.032  -0.624  -0.479
 3849POPC   D2A58118  18.923  -0.505  -0.360
 3849POPC   C3A58119  18.814  -0.386  -0.242
 3849POPC   C4A58120  18.705  -0.267  -0.124
 3849POPC   C1B58121  18.883  -0.758  -0.481
 3849POPC   C2B58122  18.774  -0.639  -0.363
 3849POPC   C3B58123  18.665  -0.520  -0.245
 3849POPC   C4B58124  18.556  -0.401  -0.127
 3850POPC   NC358125  24.745   9.807  20.145
 3850POPC   PO458126  24.580   9.813  20.032
 3850POPC   GL158127  24.415   9.819  19.919
 3850POPC   GL258128  24.466   9.868  19.848
 3850POPC   C1A58129  24.250   9.825  19.806
 3850POPC   D2A58130  24.085   9.832  19.694
 3850POPC   C3A58131  23.920   9.838  19.581
 3850POPC   C4A58132  23.755   9.844  19.468
 3850POPC   C1B58133  24.300   9.650  19.723
 3850POPC   C2B58134  24.135   9.657  19.611
 3850POPC   C3B58135  23.970   9.663  19.498
 3850POPC   C4B58136  23.805   9.669  19.385
 3851POPC   NC358137  -6.992  15.372   6.520
 3851POPC   PO458138  -6.806  15.314   6.563
 3851POPC   GL158139  -6.620  15.256   6.606
 3851POPC   GL258140  -6.629  15.293   6.698
 3851POPC   C1A58141  -6.433  15.198   6.649
 3851POPC   D2A58142  -6.247  15.139   6.692
 3851POPC   C3A58143  -6.060  15.081   6.735
 3851POPC   C4A58144  -5.874  15.023   6.778
 3851POPC   C1B58145  -6.503  15.021   6.712
 3851POPC   C2B58146  -6.317  14.963   6.755
 3851POPC   C3B58147  -6.130  14.905   6.798
 3851POPC   C4B58148  -5.944  14.847   6.841
 3852POPC   NC358149  15.898  19.747  23.883
 3852POPC   PO458150  15.832  19.641  23.727
 3852POPC   GL158151  15.766  19.535  23.571
 3852POPC   GL258152  15.825  19.459  23.597
 3852POPC   C1A58153  15.700  19.429  23.415
 3852POPC   D2A58154  15.633  19.322  23.259
 3852POPC   C3A58155  15.567  19.216  23.103
 3852POPC   C4A58156  15.501  19.110  22.947
 3852POPC   C1B58157  15.553  19.353  23.528
 3852POPC   C2B58158  15.487  19.247  23.372
 3852POPC   C3B58159  15.421  19.141  23.216
 3852POPC   C4B58160  15.355  19.035  23.060
 3853POPC   NC358161  -4.004  20.124   4.300
 3853POPC   PO458162  -3.850  20.014   4.365
 3853POPC   GL158163  -3.696  19.904   4.430
 3853POPC   GL258164  -3.728  19.914   4.524
 3853POPC   C1A58165  -3.542  19.794   4.494
 3853POPC   D2A58166  -3.387  19.685   4.559
 3853POPC   C3A58167  -3.233  19.575   4.623
 3853POPC   C4A58168  -3.079  19.465   4.688
 3853POPC   C1B58169  -3.651  19.628   4.474
 3853POPC   C2B58170  -3.497  19.519   4.538
 3853POPC   C3B58171  -3.343  19.409   4.603
 3853POPC   C4B58172  -3.189  19.299   4.667
 3854POPC   NC358173  -5.303  11.884   0.248
 3854POPC   PO458174  -5.135  11.868   0.355
 3854POPC   GL158175  -4.967  11.852   0.462
 3854POPC   GL258176  -4.992  11.759   0.487
 3854POPC   C1A58177  -4.798  11.836   0.568
 3854POPC   D2A58178  -4.630  11.819   0.675
 3854POPC   C3A58179  -4.461  11.803   0.781
 3854POPC   C4A58180  -4.293  11.787   0.888
 3854POPC   C1B58181  -4.703  11.765   0.407
 3854POPC   C2B58182  -4.535  11.749   0.514
 3854POPC   C3B58183  -4.366  11.733   0.620
 3854POPC   C4B58184  -4.198  11.716   0.727
 3855POPC   NC358185   6.753  18.811  -5.546
 3855POPC   PO458186   6.788  18.716  -5.373
 3855POPC   GL158187   6.823  18.621  -5.200
 3855POPC   GL258188   6.914  18.597  -5.232
 3855POPC   C1A58189   6.857  18.526  -5.028
 3855POPC   D2A58190   6.892  18.432  -4.855
 3855POPC   C3A58191   6.926  18.337  -4.683
 3855POPC   C4A58192   6.961  18.242  -4.510
 3855POPC   C1B58193   6.929  18.696  -4.949
 3855POPC   C2B58194   6.964  18.601  -4.777
 3855POPC   C3B58195   6.999  18.506  -4.604
 3855POPC   C4B58196   7.033  18.411  -4.432
 3856POPC   NC358197  23.875   7.266  -1.141
 3856POPC   PO458198  23.719   7.291  -1.019
 3856POPC   GL158199  23.563   7.316  -0.897
 3856POPC   GL258200  23.502   7.326  -0.976
 3856POPC   C1A58201  23.406   7.341  -0.775
 3856POPC   D2A58202  23.250   7.367  -0.653
 3856POPC   C3A58203  23.093   7.392  -0.531
 3856POPC   C4A58204  22.937   7.417  -0.409
 3856POPC   C1B58205  23.375   7.144  -0.775
 3856POPC   C2B58206  23.218   7.169  -0.653
 3856POPC   C3B58207  23.062   7.194  -0.531
 3856POPC   C4B58208  22.905   7.220  -0.409
 3857POPC   NC358209  -7.982   7.185   8.796
 3857POPC   PO458210  -7.785   7.219   8.806
 3857POPC   GL158211  -7.588   7.253   8.816
 3857POPC   GL258212  -7.603   7.315   8.894
 3857POPC   C1A58213  -7.391   7.286   8.827
 3857POPC   D2A58214  -7.195   7.320   8.837
 3857POPC   C3A58215  -6.998   7.353   8.848
 3857POPC   C4A58216  -6.801   7.387   8.858
 3857POPC   C1B58217  -7.372   7.133   8.954
 3857POPC   C2B58218  -7.175   7.166   8.964
 3857POPC   C3B58219  -6.978   7.200   8.975
 3857POPC   C4B58220  -6.782   7.234   8.985
 3858POPC   NC358221  10.276   4.269  27.029
 3858POPC   PO458222  10.276   4.333  26.840
 3858POPC   GL158223  10.276   4.397  26.651
 3858POPC   GL258224  10.330   4.317  26.623
 3858POPC   C1A58225  10.277   4.462  26.461
 3858POPC   D2A58226  10.277   4.526  26.272
 3858POPC   C3A58227  10.278   4.591  26.082
 3858POPC   C4A58228  10.278   4.655  25.893
 3858POPC   C1B58229  10.108   4.361  26.426
 3858POPC   C2B58230  10.108   4.425  26.237
 3858POPC   C3B58231  10.109   4.489  26.048
 3858POPC   C4B58232  10.109   4.554  25.858
 3859POPC   NC358233  17.287  -4.783  17.232
 3859POPC   PO458234  17.208  -4.617  17.154
 3859POPC   GL158235  17.129  -4.451  17.076
 3859POPC   GL258236  17.181  -4.395  17.141
 3859POPC   C1A58237  17.051  -4.284  16.997
 3859POPC   D2A58238  16.972  -4.118  16.919
 3859POPC   C3A58239  16.894  -3.951  16.840
 3859POPC   C4A58240  16.815  -3.785  16.762
 3859POPC   C1B58241  17.203  -4.273  16.868
 3859POPC   C2B58242  17.124  -4.107  16.790
 3859POPC   C3B58243  17.046  -3.940  16.711
 3859POPC   C4B58244  16.967  -3.774  16.633
 3860POPC   NC358245  17.157   0.574  -3.705
 3860POPC   PO458246  17.075   0.681  -3.557
 3860POPC   GL158247  16.993   0.788  -3.409
 3860POPC   GL258248  16.930   0.830  -3.475
 3860POPC   C1A58249  16.910   0.895  -3.262
 3860POPC   D2A58250  16.828   1.001  -3.114
 3860POPC   C3A58251  16.745   1.108  -2.967
 3860POPC   C4A58252  16.663   1.215  -2.819
 3860POPC   C1B58253  16.779   0.748  -3.229
 3860POPC   C2B58254  16.696   0.854  -3.081
 3860POPC   C3B58255  16.614   0.961  -2.934
 3860POPC   C4B58256  16.531   1.068  -2.786
 3861POPC   NC358257  22.755   4.396  -1.382
 3861POPC   PO458258  22.615   4.463  -1.255
 3861POPC   GL158259  22.475   4.530  -1.128
 3861POPC   GL258260  22.405   4.481  -1.180
 3861POPC   C1A58261  22.336   4.597  -1.002
 3861POPC   D2A58262  22.196   4.665  -0.875
 3861POPC   C3A58263  22.057   4.732  -0.749
 3861POPC   C4A58264  21.917   4.799  -0.622
 3861POPC   C1B58265  22.363   4.436  -0.886
 3861POPC   C2B58266  22.224   4.504  -0.760
 3861POPC   C3B58267  22.084   4.571  -0.633
 3861POPC   C4B58268  21.944   4.638  -0.507
 3862POPC   NC358269  27.544  13.580   8.966
 3862POPC   PO458270  27.348  13.544   8.975
 3862POPC   GL158271  27.152  13.508   8.984
 3862POPC   GL258272  27.158  13.454   8.900
 3862POPC   C1A58273  26.955  13.471   8.993
 3862POPC   D2A58274  26.759  13.435   9.002
 3862POPC   C3A58275  26.562  13.398   9.011
 3862POPC   C4A58276  26.366  13.362   9.020
 3862POPC   C1B58277  26.991  13.307   9.101
 3862POPC   C2B58278  26.794  13.270   9.110
 3862POPC   C3B58279  26.598  13.234   9.119
 3862POPC   C4B58280  26.401  13.198   9.128
 3863POPC   NC358281  14.904  21.535  -3.075
 3863POPC   PO458282  14.850  21.409  -2.929
 3863POPC   GL158283  14.796  21.283  -2.783
 3863POPC   GL258284  14.870  21.221  -2.810
 3863POPC   C1A58285  14.742  21.157  -2.637
 3863POPC   D2A58286  14.688  21.032  -2.492
 3863POPC   C3A58287  14.634  20.906  -2.346
 3863POPC   C4A58288  14.580  20.780  -2.200
 3863POPC   C1B58289  14.866  21.250  -2.511
 3863POPC   C2B58290  14.812  21.125  -2.365
 3863POPC   C3B58291  14.758  20.999  -2.220
 3863POPC   C4B58292  14.704  20.873  -2.074
 3864POPC   NC358293  -4.050  19.959  15.661
 3864POPC   PO458294  -3.895  19.849  15.600
 3864POPC   GL158295  -3.740  19.739  15.539
 3864POPC   GL258296  -3.727  19.705  15.632
 3864POPC   C1A58297  -3.584  19.629  15.478
 3864POPC   D2A58298  -3.429  19.519  15.416
 3864POPC   C3A58299  -3.273  19.409  15.355
 3864POPC   C4A58300  -3.118  19.299  15.294
 3864POPC   C1B58301  -3.708  19.476  15.439
 3864POPC   C2B58302  -3.552  19.366  15.378
 3864POPC   C3B58303  -3.397  19.256  15.316
 3864POPC   C4B58304  -3.241  19.146  15.255
 3865POPC   NC358305  15.754  19.057  24.388
 3865POPC   PO458306  15.690  18.959  24.226
 3865POPC   GL158307  15.626  18.861  24.064
 3865POPC   GL258308  15.713  18.812  24.059
 3865POPC   C1A58309  15.562  18.762  23.902
 3865POPC   D2A58310  15.498  18.664  23.741
 3865POPC   C3A58311  15.434  18.565  23.579
 3865POPC   C4A58312  15.370  18.467  23.417
 3865POPC   C1B58313  15.489  18.617  24.019
 3865POPC   C2B58314  15.425  18.519  23.858
 3865POPC   C3B58315  15.361  18.420  23.696
 3865POPC   C4B58316  15.297  18.322  23.534
 3866POPC   NC358317  17.905  21.110  -1.821
 3866POPC   PO458318  17.812  20.986  -1.694
 3866POPC   GL158319  17.719  20.862  -1.567
 3866POPC   GL258320  17.807  20.821  -1.543
 3866POPC   C1A58321  17.626  20.739  -1.440
 3866POPC   D2A58322  17.533  20.615  -1.314
 3866POPC   C3A58323  17.440  20.492  -1.187
 3866POPC   C4A58324  17.347  20.368  -1.060
 3866POPC   C1B58325  17.648  20.873  -1.294
 3866POPC   C2B58326  17.555  20.749  -1.167
 3866POPC   C3B58327  17.462  20.626  -1.040
 3866POPC   C4B58328  17.369  20.502  -0.913
 3867POPC   NC358329  -1.577  -1.791   2.283
 3867POPC   PO458330  -1.451  -1.661   2.368
 3867POPC   GL158331  -1.325  -1.531   2.453
 3867POPC   GL258332  -1.296  -1.601   2.518
 3867POPC   C1A58333  -1.199  -1.401   2.538
 3867POPC   D2A58334  -1.073  -1.271   2.624
 3867POPC   C3A58335  -0.947  -1.141   2.709
 3867POPC   C4A58336  -0.821  -1.011   2.794
 3867POPC   C1B58337  -1.055  -1.458   2.412
 3867POPC   C2B58338  -0.929  -1.328   2.497
 3867POPC   C3B58339  -0.803  -1.198   2.583
 3867POPC   C4B58340  -0.677  -1.068   2.668
 3868POPC   NC358341  22.253  -0.248   1.696
 3868POPC   PO458342  22.117  -0.136   1.790
 3868POPC   GL158343  21.981  -0.024   1.884
 3868POPC   GL258344  22.050   0.046   1.900
 3868POPC   C1A58345  21.844   0.088   1.978
 3868POPC   D2A58346  21.708   0.200   2.072
 3868POPC   C3A58347  21.571   0.312   2.166
 3868POPC   C4A58348  21.435   0.424   2.260
 3868POPC   C1B58349  21.796   0.175   1.804
 3868POPC   C2B58350  21.660   0.287   1.898
 3868POPC   C3B58351  21.523   0.399   1.992
 3868POPC   C4B58352  21.387   0.511   2.086
 3869POPC   NC358353   3.617  -5.384   2.730
 3869POPC   PO458354   3.682  -5.212   2.808
 3869POPC   GL158355   3.747  -5.040   2.886
 3869POPC   GL258356   3.733  -5.075   2.978
 3869POPC   C1A58357   3.813  -4.867   2.963
 3869POPC   D2A58358   3.878  -4.695   3.041
 3869POPC   C3A58359   3.944  -4.522   3.118
 3869POPC   C4A58360   4.009  -4.350   3.196
 3869POPC   C1B58361   4.000  -4.939   2.965
 3869POPC   C2B58362   4.065  -4.766   3.043
 3869POPC   C3B58363   4.130  -4.594   3.120
 3869POPC   C4B58364   4.196  -4.422   3.198
 3870POPC   NC358365  18.929  20.131  -1.945
 3870POPC   PO458366  18.827  20.018  -1.815
 3870POPC   GL158367  18.725  19.905  -1.685
 3870POPC   GL258368  18.810  19.862  -1.656
 3870POPC   C1A58369  18.623  19.793  -1.555
 3870POPC   D2A58370  18.520  19.680  -1.426
 3870POPC   C3A58371  18.418  19.568  -1.296
 3870POPC   C4A58372  18.316  19.455  -1.166
 3870POPC   C1B58373  18.647  19.933  -1.415
 3870POPC   C2B58374  18.545  19.820  -1.285
 3870POPC   C3B58375  18.443  19.708  -1.155
 3870POPC   C4B58376  18.341  19.595  -1.025
 3871POPC   NC358377   1.026  22.094  -0.127
 3871POPC   PO458378   1.124  21.955  -0.021
 3871POPC   GL158379   1.222  21.816   0.085
 3871POPC   GL258380   1.295  21.882   0.103
 3871POPC   C1A58381   1.320  21.678   0.191
 3871POPC   D2A58382   1.418  21.539   0.296
 3871POPC   C3A58383   1.516  21.401   0.402
 3871POPC   C4A58384   1.614  21.262   0.508
 3871POPC   C1B58385   1.225  21.737   0.356
 3871POPC   C2B58386   1.323  21.598   0.462
 3871POPC   C3B58387   1.421  21.460   0.568
 3871POPC   C4B58388   1.519  21.321   0.674
 3872POPC   NC358389   3.097  20.074  23.299
 3872POPC   PO458390   3.171  19.960  23.152
 3872POPC   GL158391   3.245  19.846  23.005
 3872POPC   GL258392   3.273  19.778  23.072
 3872POPC   C1A58393   3.319  19.733  22.858
 3872POPC   D2A58394   3.392  19.619  22.710
 3872POPC   C3A58395   3.466  19.506  22.563
 3872POPC   C4A58396   3.540  19.392  22.416
 3872POPC   C1B58397   3.141  19.642  22.839
 3872POPC   C2B58398   3.215  19.529  22.691
 3872POPC   C3B58399   3.289  19.415  22.544
 3872POPC   C4B58400   3.363  19.301  22.397
 3873POPC   NC358401   2.371  10.973  26.331
 3873POPC   PO458402   2.443  10.957  26.145
 3873POPC   GL158403   2.515  10.941  25.959
 3873POPC   GL258404   2.520  11.041  25.953
 3873POPC   C1A58405   2.587  10.926  25.773
 3873POPC   D2A58406   2.659  10.910  25.587
 3873POPC   C3A58407   2.731  10.895  25.401
 3873POPC   C4A58408   2.803  10.879  25.215
 3873POPC   C1B58409   2.773  10.920  25.846
 3873POPC   C2B58410   2.845  10.905  25.660
 3873POPC   C3B58411   2.917  10.889  25.474
 3873POPC   C4B58412   2.989  10.874  25.288
 3874POPC   NC358413  16.918  18.545  -4.315
 3874POPC   PO458414  16.839  18.451  -4.157
 3874POPC   GL158415  16.760  18.357  -3.999
 3874POPC   GL258416  16.782  18.269  -4.040
 3874POPC   C1A58417  16.682  18.264  -3.841
 3874POPC   D2A58418  16.603  18.170  -3.682
 3874POPC   C3A58419  16.525  18.077  -3.524
 3874POPC   C4A58420  16.446  17.983  -3.366
 3874POPC   C1B58421  16.860  18.266  -3.751
 3874POPC   C2B58422  16.782  18.172  -3.593
 3874POPC   C3B58423  16.703  18.078  -3.434
 3874POPC   C4B58424  16.625  17.985  -3.276
 3875POPC   NC358425  25.693  15.732   3.361
 3875POPC   PO458426  25.518  15.668   3.435
 3875POPC   GL158427  25.343  15.604   3.509
 3875POPC   GL258428  25.296  15.678   3.462
 3875POPC   C1A58429  25.169  15.540   3.582
 3875POPC   D2A58430  24.994  15.475   3.656
 3875POPC   C3A58431  24.820  15.411   3.729
 3875POPC   C4A58432  24.645  15.347   3.803
 3875POPC   C1B58433  25.144  15.423   3.421
 3875POPC   C2B58434  24.969  15.359   3.495
 3875POPC   C3B58435  24.795  15.295   3.569
 3875POPC   C4B58436  24.620  15.231   3.642
 3876POPC   NC358437   8.271  -4.927  -0.091
 3876POPC   PO458438   8.291  -4.761   0.019
 3876POPC   GL158439   8.311  -4.595   0.129
 3876POPC   GL258440   8.342  -4.651   0.207
 3876POPC   C1A58441   8.331  -4.430   0.239
 3876POPC   D2A58442   8.352  -4.264   0.350
 3876POPC   C3A58443   8.372  -4.099   0.460
 3876POPC   C4A58444   8.392  -3.933   0.570
 3876POPC   C1B58445   8.521  -4.411   0.177
 3876POPC   C2B58446   8.541  -4.246   0.287
 3876POPC   C3B58447   8.561  -4.080   0.398
 3876POPC   C4B58448   8.581  -3.915   0.508
 3877POPC   NC358449  10.106  20.367  24.728
 3877POPC   PO458450  10.103  20.249  24.566
 3877POPC   GL158451  10.100  20.131  24.404
 3877POPC   GL258452  10.103  20.212  24.345
 3877POPC   C1A58453  10.097  20.013  24.243
 3877POPC   D2A58454  10.095  19.896  24.081
 3877POPC   C3A58455  10.092  19.778  23.920
 3877POPC   C4A58456  10.089  19.660  23.758
 3877POPC   C1B58457  10.297  20.008  24.243
 3877POPC   C2B58458  10.295  19.890  24.082
 3877POPC   C3B58459  10.292  19.772  23.920
 3877POPC   C4B58460  10.289  19.655  23.758
 3878POPC   NC358461  -6.341  15.945  15.369
 3878POPC   PO458462  -6.162  15.878  15.312
 3878POPC   GL158463  -5.983  15.811  15.255
 3878POPC   GL258464  -5.943  15.901  15.271
 3878POPC   C1A58465  -5.803  15.743  15.198
 3878POPC   D2A58466  -5.624  15.676  15.140
 3878POPC   C3A58467  -5.444  15.608  15.083
 3878POPC   C4A58468  -5.265  15.541  15.026
 3878POPC   C1B58469  -5.763  15.691  15.386
 3878POPC   C2B58470  -5.583  15.624  15.329
 3878POPC   C3B58471  -5.404  15.556  15.272
 3878POPC   C4B58472  -5.224  15.489  15.215
 3879POPC   NC358473  -4.574  13.587  -0.437
 3879POPC   PO458474  -4.414  13.548  -0.323
 3879POPC   GL158475  -4.254  13.509  -0.209
 3879POPC   GL258476  -4.307  13.442  -0.158
 3879POPC   C1A58477  -4.094  13.471  -0.096
 3879POPC   D2A58478  -3.934  13.432   0.018
 3879POPC   C3A58479  -3.774  13.394   0.131
 3879POPC   C4A58480  -3.614  13.355   0.245
 3879POPC   C1B58481  -4.037  13.328  -0.224
 3879POPC   C2B58482  -3.877  13.290  -0.111
 3879POPC   C3B58483  -3.717  13.251   0.003
 3879POPC   C4B58484  -3.557  13.213   0.117
 3880POPC   NC358485   2.432  23.791  18.912
 3880POPC   PO458486   2.513  23.636  18.814
 3880POPC   GL158487   2.594  23.481  18.716
 3880POPC   GL258488   2.679  23.533  18.705
 3880POPC   C1A58489   2.675  23.327  18.619
 3880POPC   D2A58490   2.756  23.172  18.521
 3880POPC   C3A58491   2.837  23.018  18.424
 3880POPC   C4A58492   2.918  22.863  18.326
 3880POPC   C1B58493   2.744  23.254  18.792
 3880POPC   C2B58494   2.825  23.099  18.694
 3880POPC   C3B58495   2.906  22.944  18.597
 3880POPC   C4B58496   2.987  22.790  18.499
 3881POPC   NC358497   2.436  -6.113  13.351
 3881POPC   PO458498   2.519  -5.934  13.315
 3881POPC   GL158499   2.602  -5.755  13.279
 3881POPC   GL258500   2.639  -5.790  13.193
 3881POPC   C1A58501   2.684  -5.577  13.244
 3881POPC   D2A58502   2.767  -5.398  13.208
 3881POPC   C3A58503   2.849  -5.220  13.173
 3881POPC   C4A58504   2.932  -5.041  13.137
 3881POPC   C1B58505   2.518  -5.519  13.149
 3881POPC   C2B58506   2.600  -5.340  13.114
 3881POPC   C3B58507   2.683  -5.162  13.078
 3881POPC   C4B58508   2.766  -4.983  13.042
 3882POPC   NC358509   0.137   9.849  25.231
 3882POPC   PO458510   0.245   9.847  25.063
 3882POPC   GL158511   0.353   9.845  24.895
 3882POPC   GL258512   0.423   9.902  24.939
 3882POPC   C1A58513   0.462   9.843  24.727
 3882POPC   D2A58514   0.570   9.841  24.559
 3882POPC   C3A58515   0.679   9.839  24.391
 3882POPC   C4A58516   0.787   9.837  24.223
 3882POPC   C1B58517   0.557   9.679  24.790
 3882POPC   C2B58518   0.665   9.677  24.622
 3882POPC   C3B58519   0.773   9.675  24.454
 3882POPC   C4B58520   0.882   9.673  24.286
 3883POPC   NC358521   3.405  25.861   4.188
 3883POPC   PO458522   3.484  25.689   4.253
 3883POPC   GL158523   3.563  25.517   4.318
 3883POPC   GL258524   3.592  25.562   4.402
 3883POPC   C1A58525   3.642  25.345   4.382
 3883POPC   D2A58526   3.721  25.173   4.447
 3883POPC   C3A58527   3.800  25.001   4.511
 3883POPC   C4A58528   3.879  24.829   4.576
 3883POPC   C1B58529   3.468  25.297   4.467
 3883POPC   C2B58530   3.547  25.125   4.532
 3883POPC   C3B58531   3.626  24.953   4.597
 3883POPC   C4B58532   3.705  24.781   4.661
 3884POPC   NC358533  11.984  13.386  -7.666
 3884POPC   PO458534  11.960  13.345  -7.472
 3884POPC   GL158535  11.936  13.304  -7.278
 3884POPC   GL258536  11.932  13.207  -7.299
 3884POPC   C1A58537  11.912  13.263  -7.083
 3884POPC   D2A58538  11.889  13.223  -6.889
 3884POPC   C3A58539  11.865  13.182  -6.694
 3884POPC   C4A58540  11.841  13.141  -6.500
 3884POPC   C1B58541  12.111  13.250  -7.062
 3884POPC   C2B58542  12.087  13.209  -6.867
 3884POPC   C3B58543  12.063  13.168  -6.673
 3884POPC   C4B58544  12.039  13.127  -6.479
 3885POPC   NC358545  10.195  12.765  27.776
 3885POPC   PO458546  10.193  12.734  27.578
 3885POPC   GL158547  10.191  12.703  27.380
 3885POPC   GL258548  10.233  12.613  27.394
 3885POPC   C1A58549  10.189  12.671  27.183
 3885POPC   D2A58550  10.186  12.640  26.985
 3885POPC   C3A58551  10.184  12.608  26.788
 3885POPC   C4A58552  10.182  12.577  26.590
 3885POPC   C1B58553  10.007  12.588  27.198
 3885POPC   C2B58554  10.005  12.557  27.000
 3885POPC   C3B58555  10.003  12.525  26.803
 3885POPC   C4B58556  10.001  12.494  26.605
 3886POPC   NC358557  -5.832  14.180  17.860
 3886POPC   PO458558  -5.658  14.134  17.772
 3886POPC   GL158559  -5.484  14.088  17.684
 3886POPC   GL258560  -5.438  14.096  17.772
 3886POPC   C1A58561  -5.310  14.043  17.596
 3886POPC   D2A58562  -5.137  13.997  17.509
 3886POPC   C3A58563  -4.963  13.952  17.421
 3886POPC   C4A58564  -4.789  13.906  17.333
 3886POPC   C1B58565  -5.344  13.849  17.631
 3886POPC   C2B58566  -5.170  13.803  17.543
 3886POPC   C3B58567  -4.996  13.757  17.455
 3886POPC   C4B58568  -4.823  13.712  17.368
 3887POPC   NC358569  27.646   7.420  11.230
 3887POPC   PO458570  27.448   7.444  11.219
 3887POPC   GL158571  27.250   7.468  11.208
 3887POPC   GL258572  27.254   7.459  11.108
 3887POPC   C1A58573  27.051   7.491  11.197
 3887POPC   D2A58574  26.853   7.515  11.186
 3887POPC   C3A58575  26.654   7.538  11.175
 3887POPC   C4A58576  26.456   7.562  11.164
 3887POPC   C1B58577  27.027   7.293  11.212
 3887POPC   C2B58578  26.828   7.317  11.201
 3887POPC   C3B58579  26.630   7.340  11.190
 3887POPC   C4B58580  26.432   7.364  11.179
 3888POPC   NC358581  25.138   1.733   4.929
 3888POPC   PO458582  24.969   1.826   4.980
 3888POPC   GL158583  24.800   1.919   5.031
 3888POPC   GL258584  24.843   2.008   5.012
 3888POPC   C1A58585  24.630   2.013   5.081
 3888POPC   D2A58586  24.461   2.106   5.132
 3888POPC   C3A58587  24.291   2.200   5.182
 3888POPC   C4A58588  24.122   2.293   5.233
 3888POPC   C1B58589  24.569   2.004   4.891
 3888POPC   C2B58590  24.399   2.097   4.942
 3888POPC   C3B58591  24.230   2.191   4.992
 3888POPC   C4B58592  24.060   2.284   5.043
 3889POPC   NC358593  -4.107  15.578  -0.153
 3889POPC   PO458594  -3.951  15.513  -0.046
 3889POPC   GL158595  -3.795  15.448   0.061
 3889POPC   GL258596  -3.754  15.539   0.057
 3889POPC   C1A58597  -3.639  15.382   0.168
 3889POPC   D2A58598  -3.483  15.317   0.274
 3889POPC   C3A58599  -3.327  15.251   0.381
 3889POPC   C4A58600  -3.171  15.186   0.488
 3889POPC   C1B58601  -3.734  15.432   0.336
 3889POPC   C2B58602  -3.578  15.366   0.443
 3889POPC   C3B58603  -3.422  15.301   0.550
 3889POPC   C4B58604  -3.266  15.236   0.657
 3890POPC   NC358605  -2.111  23.425  11.750
 3890POPC   PO458606  -1.978  23.277  11.734
 3890POPC   GL158607  -1.845  23.129  11.718
 3890POPC   GL258608  -1.770  23.194  11.731
 3890POPC   C1A58609  -1.712  22.981  11.702
 3890POPC   D2A58610  -1.578  22.832  11.687
 3890POPC   C3A58611  -1.445  22.684  11.671
 3890POPC   C4A58612  -1.312  22.536  11.655
 3890POPC   C1B58613  -1.721  22.951  11.900
 3890POPC   C2B58614  -1.587  22.803  11.884
 3890POPC   C3B58615  -1.454  22.655  11.868
 3890POPC   C4B58616  -1.321  22.507  11.853
 3891POPC   NC358617  -3.262  16.644  -0.614
 3891POPC   PO458618  -3.118  16.567  -0.498
 3891POPC   GL158619  -2.974  16.490  -0.382
 3891POPC   GL258620  -2.934  16.581  -0.372
 3891POPC   C1A58621  -2.830  16.413  -0.267
 3891POPC   D2A58622  -2.687  16.336  -0.151
 3891POPC   C3A58623  -2.543  16.259  -0.036
 3891POPC   C4A58624  -2.399  16.182   0.080
 3891POPC   C1B58625  -2.943  16.445  -0.105
 3891POPC   C2B58626  -2.800  16.368   0.011
 3891POPC   C3B58627  -2.656  16.291   0.126
 3891POPC   C4B58628  -2.512  16.214   0.242
 3892POPC   NC358629  15.898  -4.654   1.260
 3892POPC   PO458630  15.830  -4.491   1.355
 3892POPC   GL158631  15.762  -4.328   1.450
 3892POPC   GL258632  15.856  -4.305   1.477
 3892POPC   C1A58633  15.695  -4.165   1.544
 3892POPC   D2A58634  15.627  -4.003   1.639
 3892POPC   C3A58635  15.560  -3.840   1.733
 3892POPC   C4A58636  15.492  -3.677   1.828
 3892POPC   C1B58637  15.717  -4.059   1.377
 3892POPC   C2B58638  15.650  -3.896   1.471
 3892POPC   C3B58639  15.582  -3.733   1.566
 3892POPC   C4B58640  15.515  -3.570   1.660
 3893POPC   NC358641  13.919  27.579  10.528
 3893POPC   PO458642  13.876  27.384  10.522
 3893POPC   GL158643  13.833  27.189  10.516
 3893POPC   GL258644  13.854  27.181  10.614
 3893POPC   C1A58645  13.790  26.994  10.510
 3893POPC   D2A58646  13.746  26.798  10.505
 3893POPC   C3A58647  13.703  26.603  10.499
 3893POPC   C4A58648  13.660  26.408  10.493
 3893POPC   C1B58649  13.599  27.035  10.554
 3893POPC   C2B58650  13.556  26.839  10.549
 3893POPC   C3B58651  13.512  26.644  10.543
 3893POPC   C4B58652  13.469  26.449  10.537
 3894POPC   NC358653  12.727  -0.433  24.364
 3894POPC   PO458654  12.696  -0.311  24.208
 3894POPC   GL158655  12.665  -0.189  24.052
 3894POPC   GL258656  12.763  -0.194  24.029
 3894POPC   C1A58657  12.635  -0.067  23.897
 3894POPC   D2A58658  12.604   0.055  23.741
 3894POPC   C3A58659  12.574   0.177  23.586
 3894POPC   C4A58660  12.543   0.299  23.430
 3894POPC   C1B58661  12.599  -0.225  23.780
 3894POPC   C2B58662  12.568  -0.103  23.624
 3894POPC   C3B58663  12.538   0.019  23.469
 3894POPC   C4B58664  12.507   0.141  23.313
 3895POPC   NC358665   5.451  -4.539  19.744
 3895POPC   PO458666   5.500  -4.379  19.634
 3895POPC   GL158667   5.549  -4.219  19.524
 3895POPC   GL258668   5.606  -4.185  19.599
 3895POPC   C1A58669   5.598  -4.059  19.415
 3895POPC   D2A58670   5.648  -3.900  19.305
 3895POPC   C3A58671   5.697  -3.740  19.196
 3895POPC   C4A58672   5.746  -3.580  19.086
 3895POPC   C1B58673   5.755  -4.159  19.340
 3895POPC   C2B58674   5.804  -3.999  19.230
 3895POPC   C3B58675   5.853  -3.839  19.121
 3895POPC   C4B58676   5.903  -3.679  19.011
 3896POPC   NC358677   2.216   6.119  25.848
 3896POPC   PO458678   2.302   6.166  25.674
 3896POPC   GL158679   2.388   6.213  25.500
 3896POPC   GL258680   2.438   6.126  25.501
 3896POPC   C1A58681   2.474   6.260  25.325
 3896POPC   D2A58682   2.561   6.306  25.151
 3896POPC   C3A58683   2.647   6.353  24.976
 3896POPC   C4A58684   2.733   6.400  24.802
 3896POPC   C1B58685   2.324   6.172  25.227
 3896POPC   C2B58686   2.410   6.219  25.053
 3896POPC   C3B58687   2.496   6.266  24.878
 3896POPC   C4B58688   2.582   6.312  24.704
 3897POPC   NC358689  -4.216  13.522  20.679
 3897POPC   PO458690  -4.060  13.489  20.558
 3897POPC   GL158691  -3.904  13.456  20.437
 3897POPC   GL258692  -3.859  13.404  20.510
 3897POPC   C1A58693  -3.748  13.423  20.317
 3897POPC   D2A58694  -3.592  13.389  20.196
 3897POPC   C3A58695  -3.436  13.356  20.076
 3897POPC   C4A58696  -3.280  13.323  19.955
 3897POPC   C1B58697  -3.835  13.255  20.251
 3897POPC   C2B58698  -3.679  13.222  20.130
 3897POPC   C3B58699  -3.523  13.188  20.010
 3897POPC   C4B58700  -3.367  13.155  19.889
 3898POPC   NC358701  13.956  23.655  -1.225
 3898POPC   PO458702  13.911  23.503  -1.103
 3898POPC   GL158703  13.866  23.351  -0.981
 3898POPC   GL258704  13.850  23.292  -1.061
 3898POPC   C1A58705  13.822  23.198  -0.860
 3898POPC   D2A58706  13.777  23.046  -0.738
 3898POPC   C3A58707  13.733  22.893  -0.617
 3898POPC   C4A58708  13.688  22.741  -0.495
 3898POPC   C1B58709  14.014  23.142  -0.859
 3898POPC   C2B58710  13.969  22.990  -0.738
 3898POPC   C3B58711  13.925  22.838  -0.616
 3898POPC   C4B58712  13.880  22.685  -0.494
 3899POPC   NC358713  21.239  23.439  13.676
 3899POPC   PO458714  21.109  23.295  13.627
 3899POPC   GL158715  20.979  23.151  13.578
 3899POPC   GL258716  21.032  23.085  13.632
 3899POPC   C1A58717  20.850  23.007  13.529
 3899POPC   D2A58718  20.720  22.862  13.480
 3899POPC   C3A58719  20.591  22.718  13.431
 3899POPC   C4A58720  20.461  22.574  13.382
 3899POPC   C1B58721  20.740  23.051  13.690
 3899POPC   C2B58722  20.610  22.907  13.641
 3899POPC   C3B58723  20.480  22.763  13.592
 3899POPC   C4B58724  20.351  22.618  13.543
 3900POPC   NC358725  22.868   6.572  -2.154
 3900POPC   PO458726  22.725   6.611  -2.020
 3900POPC   GL158727  22.582   6.650  -1.886
 3900POPC   GL258728  22.530   6.700  -1.955
 3900POPC   C1A58729  22.439   6.688  -1.752
 3900POPC   D2A58730  22.295   6.727  -1.617
 3900POPC   C3A58731  22.152   6.765  -1.483
 3900POPC   C4A58732  22.009   6.804  -1.349
 3900POPC   C1B58733  22.344   6.520  -1.804
 3900POPC   C2B58734  22.201   6.558  -1.669
 3900POPC   C3B58735  22.058   6.597  -1.535
 3900POPC   C4B58736  21.915   6.635  -1.401
 3901POPC   NC358737  19.527  21.848  19.465
 3901POPC   PO458738  19.419  21.712  19.367
 3901POPC   GL158739  19.311  21.576  19.269
 3901POPC   GL258740  19.336  21.506  19.336
 3901POPC   C1A58741  19.202  21.439  19.170
 3901POPC   D2A58742  19.094  21.303  19.072
 3901POPC   C3A58743  18.985  21.166  18.973
 3901POPC   C4A58744  18.877  21.030  18.875
 3901POPC   C1B58745  19.042  21.487  19.280
 3901POPC   C2B58746  18.934  21.351  19.182
 3901POPC   C3B58747  18.825  21.214  19.083
 3901POPC   C4B58748  18.717  21.078  18.985
 3902POPC   NC358749   5.061   3.254  -6.178
 3902POPC   PO458750   5.113   3.327  -5.999
 3902POPC   GL158751   5.165   3.400  -5.820
 3902POPC   GL258752   5.197   3.309  -5.793
 3902POPC   C1A58753   5.217   3.472  -5.641
 3902POPC   D2A58754   5.269   3.545  -5.463
 3902POPC   C3A58755   5.321   3.617  -5.284
 3902POPC   C4A58756   5.373   3.690  -5.105
 3902POPC   C1B58757   5.399   3.516  -5.712
 3902POPC   C2B58758   5.451   3.588  -5.533
 3902POPC   C3B58759   5.503   3.661  -5.354
 3902POPC   C4B58760   5.555   3.733  -5.176
 3903POPC   NC358761  -3.418   2.581   0.090
 3903POPC   PO458762  -3.275   2.663   0.204
 3903POPC   GL158763  -3.132   2.745   0.318
 3903POPC   GL258764  -3.118   2.657   0.363
 3903POPC   C1A58765  -2.989   2.827   0.431
 3903POPC   D2A58766  -2.847   2.909   0.545
 3903POPC   C3A58767  -2.704   2.991   0.658
 3903POPC   C4A58768  -2.561   3.073   0.772
 3903POPC   C1B58769  -2.852   2.778   0.294
 3903POPC   C2B58770  -2.709   2.860   0.408
 3903POPC   C3B58771  -2.567   2.942   0.521
 3903POPC   C4B58772  -2.424   3.024   0.635
 3904POPC   NC358773  20.207  -2.036   1.285
 3904POPC   PO458774  20.093  -1.904   1.383
 3904POPC   GL158775  19.979  -1.772   1.481
 3904POPC   GL258776  19.914  -1.772   1.405
 3904POPC   C1A58777  19.865  -1.640   1.579
 3904POPC   D2A58778  19.751  -1.508   1.676
 3904POPC   C3A58779  19.637  -1.376   1.774
 3904POPC   C4A58780  19.523  -1.244   1.872
 3904POPC   C1B58781  19.765  -1.790   1.665
 3904POPC   C2B58782  19.651  -1.658   1.763
 3904POPC   C3B58783  19.537  -1.526   1.861
 3904POPC   C4B58784  19.423  -1.394   1.959
 3905POPC   NC358785   5.412   6.852  27.141
 3905POPC   PO458786   5.458   6.889  26.950
 3905POPC   GL158787   5.504   6.926  26.759
 3905POPC   GL258788   5.601   6.912  26.779
 3905POPC   C1A58789   5.550   6.963  26.568
 3905POPC   D2A58790   5.596   6.999  26.376
 3905POPC   C3A58791   5.642   7.036  26.185
 3905POPC   C4A58792   5.688   7.073  25.994
 3905POPC   C1B58793   5.530   6.768  26.525
 3905POPC   C2B58794   5.576   6.805  26.334
 3905POPC   C3B58795   5.622   6.842  26.143
 3905POPC   C4B58796   5.668   6.878  25.952
 3906POPC   NC358797  21.181  24.053   9.684
 3906POPC   PO458798  21.061  23.893   9.688
 3906POPC   GL158799  20.941  23.733   9.692
 3906POPC   GL258800  20.974  23.706   9.601
 3906POPC   C1A58801  20.821  23.573   9.696
 3906POPC   D2A58802  20.701  23.413   9.700
 3906POPC   C3A58803  20.581  23.253   9.704
 3906POPC   C4A58804  20.461  23.093   9.708
 3906POPC   C1B58805  20.967  23.465   9.780
 3906POPC   C2B58806  20.847  23.305   9.784
 3906POPC   C3B58807  20.727  23.145   9.788
 3906POPC   C4B58808  20.607  22.985   9.792
 3907POPC   NC358809  15.530  25.780  16.555
 3907POPC   PO458810  15.465  25.606  16.480
 3907POPC   GL158811  15.400  25.432  16.405
 3907POPC   GL258812  15.463  25.383  16.465
 3907POPC   C1A58813  15.335  25.258  16.331
 3907POPC   D2A58814  15.269  25.085  16.256
 3907POPC   C3A58815  15.204  24.911  16.182
 3907POPC   C4A58816  15.139  24.737  16.107
 3907POPC   C1B58817  15.194  25.250  16.473
 3907POPC   C2B58818  15.129  25.076  16.398
 3907POPC   C3B58819  15.064  24.902  16.324
 3907POPC   C4B58820  14.999  24.729  16.249
 3908POPC   NC358821  -0.855  16.602  22.779
 3908POPC   PO458822  -0.737  16.529  22.635
 3908POPC   GL158823  -0.619  16.456  22.491
 3908POPC   GL258824  -0.538  16.483  22.543
 3908POPC   C1A58825  -0.501  16.383  22.347
 3908POPC   D2A58826  -0.383  16.310  22.202
 3908POPC   C3A58827  -0.265  16.237  22.058
 3908POPC   C4A58828  -0.147  16.164  21.914
 3908POPC   C1B58829  -0.501  16.205  22.437
 3908POPC   C2B58830  -0.383  16.132  22.293
 3908POPC   C3B58831  -0.265  16.059  22.149
 3908POPC   C4B58832  -0.147  15.986  22.005
 3909POPC   NC358833  13.675  -4.406  -0.280
 3909POPC   PO458834  13.631  -4.248  -0.165
 3909POPC   GL158835  13.587  -4.090  -0.050
 3909POPC   GL258836  13.648  -4.125   0.021
 3909POPC   C1A58837  13.543  -3.933   0.065
 3909POPC   D2A58838  13.498  -3.775   0.180
 3909POPC   C3A58839  13.454  -3.618   0.295
 3909POPC   C4A58840  13.410  -3.460   0.410
 3909POPC   C1B58841  13.694  -3.831  -0.017
 3909POPC   C2B58842  13.650  -3.673   0.098
 3909POPC   C3B58843  13.606  -3.516   0.213
 3909POPC   C4B58844  13.561  -3.358   0.328
 3910POPC   NC358845   7.779  10.962  27.770
 3910POPC   PO458846   7.811  10.948  27.573
 3910POPC   GL158847   7.843  10.934  27.376
 3910POPC   GL258848   7.872  11.029  27.374
 3910POPC   C1A58849   7.874  10.920  27.179
 3910POPC   D2A58850   7.906  10.905  26.982
 3910POPC   C3A58851   7.937  10.891  26.785
 3910POPC   C4A58852   7.969  10.877  26.588
 3910POPC   C1B58853   8.063  10.863  27.213
 3910POPC   C2B58854   8.094  10.848  27.016
 3910POPC   C3B58855   8.126  10.834  26.819
 3910POPC   C4B58856   8.158  10.820  26.622
 3911POPC   NC358857   7.199  18.765  -5.654
 3911POPC   PO458858   7.228  18.670  -5.480
 3911POPC   GL158859   7.257  18.575  -5.306
 3911POPC   GL258860   7.343  18.537  -5.341
 3911POPC   C1A58861   7.287  18.481  -5.132
 3911POPC   D2A58862   7.316  18.386  -4.959
 3911POPC   C3A58863   7.346  18.292  -4.785
 3911POPC   C4A58864   7.375  18.197  -4.611
 3911POPC   C1B58865   7.386  18.640  -5.063
 3911POPC   C2B58866   7.416  18.545  -4.889
 3911POPC   C3B58867   7.445  18.450  -4.715
 3911POPC   C4B58868   7.475  18.356  -4.541
 3912POPC   NC358869   6.672  -7.394   6.210
 3912POPC   PO458870   6.707  -7.201   6.251
 3912POPC   GL158871   6.742  -7.008   6.292
 3912POPC   GL258872   6.810  -7.005   6.219
 3912POPC   C1A58873   6.777  -6.816   6.333
 3912POPC   D2A58874   6.811  -6.623   6.373
 3912POPC   C3A58875   6.846  -6.431   6.414
 3912POPC   C4A58876   6.881  -6.238   6.455
 3912POPC   C1B58877   6.635  -6.763   6.202
 3912POPC   C2B58878   6.670  -6.570   6.243
 3912POPC   C3B58879   6.705  -6.377   6.283
 3912POPC   C4B58880   6.739  -6.185   6.324
 3913POPC   NC358881  19.632  18.348  22.549
 3913POPC   PO458882  19.521  18.262  22.406
 3913POPC   GL158883  19.410  18.176  22.263
 3913POPC   GL258884  19.492  18.133  22.226
 3913POPC   C1A58885  19.300  18.089  22.121
 3913POPC   D2A58886  19.189  18.003  21.978
 3913POPC   C3A58887  19.079  17.916  21.836
 3913POPC   C4A58888  18.968  17.830  21.693
 3913POPC   C1B58889  19.272  17.930  22.239
 3913POPC   C2B58890  19.161  17.844  22.096
 3913POPC   C3B58891  19.050  17.757  21.954
 3913POPC   C4B58892  18.940  17.671  21.811
 3914POPC   NC358893  10.968  26.888   3.676
 3914POPC   PO458894  10.948  26.701   3.744
 3914POPC   GL158895  10.928  26.514   3.812
 3914POPC   GL258896  10.916  26.481   3.718
 3914POPC   C1A58897  10.908  26.327   3.880
 3914POPC   D2A58898  10.887  26.140   3.949
 3914POPC   C3A58899  10.867  25.953   4.017
 3914POPC   C4A58900  10.847  25.766   4.085
 3914POPC   C1B58901  11.105  26.300   3.864
 3914POPC   C2B58902  11.085  26.113   3.933
 3914POPC   C3B58903  11.065  25.926   4.001
 3914POPC   C4B58904  11.044  25.739   4.069
 3915POPC   NC358905  15.887  -6.547  13.928
 3915POPC   PO458906  15.820  -6.364  13.882
 3915POPC   GL158907  15.753  -6.181  13.836
 3915POPC   GL258908  15.846  -6.152  13.815
 3915POPC   C1A58909  15.685  -5.999  13.790
 3915POPC   D2A58910  15.618  -5.816  13.744
 3915POPC   C3A58911  15.550  -5.634  13.698
 3915POPC   C4A58912  15.483  -5.451  13.652
 3915POPC   C1B58913  15.660  -6.056  13.600
 3915POPC   C2B58914  15.592  -5.873  13.554
 3915POPC   C3B58915  15.525  -5.691  13.508
 3915POPC   C4B58916  15.458  -5.508  13.462
 3916POPC   NC358917  -2.021  23.315   7.597
 3916POPC   PO458918  -1.896  23.162   7.625
 3916POPC   GL158919  -1.771  23.009   7.653
 3916POPC   GL258920  -1.698  23.060   7.609
 3916POPC   C1A58921  -1.646  22.855   7.681
 3916POPC   D2A58922  -1.520  22.702   7.709
 3916POPC   C3A58923  -1.395  22.548   7.737
 3916POPC   C4A58924  -1.270  22.395   7.765
 3916POPC   C1B58925  -1.592  22.931   7.858
 3916POPC   C2B58926  -1.467  22.778   7.886
 3916POPC   C3B58927  -1.341  22.625   7.914
 3916POPC   C4B58928  -1.216  22.471   7.942
 3917POPC   NC358929  -0.000  -3.210  17.379
 3917POPC   PO458930   0.107  -3.065  17.293
 3917POPC   GL158931   0.214  -2.920  17.207
 3917POPC   GL258932   0.280  -2.925  17.282
 3917POPC   C1A58933   0.322  -2.775  17.121
 3917POPC   D2A58934   0.429  -2.630  17.035
 3917POPC   C3A58935   0.537  -2.485  16.949
 3917POPC   C4A58936   0.644  -2.340  16.863
 3917POPC   C1B58937   0.426  -2.912  17.020
 3917POPC   C2B58938   0.534  -2.767  16.934
 3917POPC   C3B58939   0.641  -2.622  16.848
 3917POPC   C4B58940   0.749  -2.477  16.762
 3918POPC   NC358941  -6.219  15.088  16.498
 3918POPC   PO458942  -6.042  15.032  16.423
 3918POPC   GL158943  -5.865  14.976  16.348
 3918POPC   GL258944  -5.819  15.012  16.429
 3918POPC   C1A58945  -5.688  14.919  16.274
 3918POPC   D2A58946  -5.512  14.863  16.199
 3918POPC   C3A58947  -5.335  14.806  16.125
 3918POPC   C4A58948  -5.158  14.750  16.050
 3918POPC   C1B58949  -5.707  14.742  16.365
 3918POPC   C2B58950  -5.530  14.686  16.290
 3918POPC   C3B58951  -5.353  14.629  16.216
 3918POPC   C4B58952  -5.176  14.573  16.141
 3919POPC   NC358953  -2.008   1.233  -0.482
 3919POPC   PO458954  -1.883   1.331  -0.360
 3919POPC   GL158955  -1.758   1.429  -0.238
 3919POPC   GL258956  -1.726   1.342  -0.201
 3919POPC   C1A58957  -1.633   1.527  -0.117
 3919POPC   D2A58958  -1.507   1.624   0.005
 3919POPC   C3A58959  -1.382   1.722   0.126
 3919POPC   C4A58960  -1.257   1.820   0.248
 3919POPC   C1B58961  -1.490   1.518  -0.257
 3919POPC   C2B58962  -1.365   1.616  -0.135
 3919POPC   C3B58963  -1.240   1.714  -0.014
 3919POPC   C4B58964  -1.115   1.812   0.108
 3920POPC   NC358965  19.181  24.768  14.479
 3920POPC   PO458966  19.075  24.608  14.422
 3920POPC   GL158967  18.969  24.448  14.365
 3920POPC   GL258968  19.045  24.419  14.306
 3920POPC   C1A58969  18.863  24.288  14.308
 3920POPC   D2A58970  18.758  24.129  14.250
 3920POPC   C3A58971  18.652  23.969  14.193
 3920POPC   C4A58972  18.546  23.809  14.136
 3920POPC   C1B58973  18.940  24.183  14.459
 3920POPC   C2B58974  18.834  24.023  14.402
 3920POPC   C3B58975  18.729  23.864  14.345
 3920POPC   C4B58976  18.623  23.704  14.288
 3921POPC   NC358977  21.400   0.171  19.744
 3921POPC   PO458978  21.275   0.280  19.632
 3921POPC   GL158979  21.150   0.389  19.520
 3921POPC   GL258980  21.228   0.421  19.465
 3921POPC   C1A58981  21.026   0.499  19.408
 3921POPC   D2A58982  20.901   0.608  19.296
 3921POPC   C3A58983  20.777   0.718  19.184
 3921POPC   C4A58984  20.652   0.827  19.072
 3921POPC   C1B58985  21.001   0.344  19.284
 3921POPC   C2B58986  20.877   0.453  19.172
 3921POPC   C3B58987  20.752   0.563  19.060
 3921POPC   C4B58988  20.627   0.672  18.948
 3922POPC   NC358989  15.398  -7.215  10.337
 3922POPC   PO458990  15.332  -7.026  10.334
 3922POPC   GL158991  15.266  -6.837  10.331
 3922POPC   GL258992  15.336  -6.812  10.398
 3922POPC   C1A58993  15.200  -6.648  10.328
 3922POPC   D2A58994  15.135  -6.460  10.325
 3922POPC   C3A58995  15.069  -6.271  10.322
 3922POPC   C4A58996  15.003  -6.082  10.319
 3922POPC   C1B58997  15.327  -6.607  10.179
 3922POPC   C2B58998  15.261  -6.418  10.176
 3922POPC   C3B58999  15.196  -6.229  10.173
 3922POPC   C4B59000  15.130  -6.040  10.170
 3923POPC   NC359001  24.568   8.468  -0.371
 3923POPC   PO459002  24.405   8.478  -0.255
 3923POPC   GL159003  24.242   8.488  -0.139
 3923POPC   GL259004  24.196   8.423  -0.199
 3923POPC   C1A59005  24.079   8.499  -0.024
 3923POPC   D2A59006  23.917   8.509   0.092
 3923POPC   C3A59007  23.754   8.520   0.207
 3923POPC   C4A59008  23.591   8.530   0.323
 3923POPC   C1B59009  24.149   8.348   0.087
 3923POPC   C2B59010  23.986   8.358   0.203
 3923POPC   C3B59011  23.823   8.369   0.319
 3923POPC   C4B59012  23.660   8.379   0.434
 3924POPC   NC359013   3.275  -4.009   0.565
 3924POPC   PO459014   3.349  -3.858   0.672
 3924POPC   GL159015   3.423  -3.707   0.779
 3924POPC   GL259016   3.510  -3.713   0.729
 3924POPC   C1A59017   3.498  -3.555   0.887
 3924POPC   D2A59018   3.572  -3.404   0.994
 3924POPC   C3A59019   3.647  -3.252   1.102
 3924POPC   C4A59020   3.721  -3.101   1.209
 3924POPC   C1B59021   3.429  -3.425   0.751
 3924POPC   C2B59022   3.503  -3.274   0.859
 3924POPC   C3B59023   3.578  -3.123   0.966
 3924POPC   C4B59024   3.652  -2.971   1.073
 3925POPC   NC359025  23.076  14.569  21.285
 3925POPC   PO459026  22.936  14.518  21.152
 3925POPC   GL159027  22.796  14.467  21.019
 3925POPC   GL259028  22.811  14.552  20.970
 3925POPC   C1A59029  22.655  14.415  20.886
 3925POPC   D2A59030  22.515  14.364  20.754
 3925POPC   C3A59031  22.374  14.312  20.621
 3925POPC   C4A59032  22.234  14.261  20.488
 3925POPC   C1B59033  22.794  14.325  20.775
 3925POPC   C2B59034  22.654  14.273  20.642
 3925POPC   C3B59035  22.513  14.222  20.509
 3925POPC   C4B59036  22.373  14.171  20.376
 3926POPC   NC359037  26.449   3.497  12.858
 3926POPC   PO459038  26.265   3.568  12.826
 3926POPC   GL159039  26.081   3.639  12.794
 3926POPC   GL259040  26.107   3.664  12.700
 3926POPC   C1A59041  25.897   3.710  12.761
 3926POPC   D2A59042  25.712   3.780  12.729
 3926POPC   C3A59043  25.528   3.851  12.696
 3926POPC   C4A59044  25.344   3.922  12.664
 3926POPC   C1B59045  25.839   3.529  12.696
 3926POPC   C2B59046  25.655   3.600  12.664
 3926POPC   C3B59047  25.470   3.671  12.632
 3926POPC   C4B59048  25.286   3.742  12.599
 3927POPC   NC359049  27.189   5.175   8.238
 3927POPC   PO459050  26.996   5.226   8.257
 3927POPC   GL159051  26.803   5.277   8.276
 3927POPC   GL259052  26.794   5.280   8.176
 3927POPC   C1A59053  26.611   5.328   8.295
 3927POPC   D2A59054  26.418   5.378   8.313
 3927POPC   C3A59055  26.226   5.429   8.332
 3927POPC   C4A59056  26.033   5.480   8.351
 3927POPC   C1B59057  26.560   5.134   8.293
 3927POPC   C2B59058  26.367   5.185   8.312
 3927POPC   C3B59059  26.174   5.236   8.330
 3927POPC   C4B59060  25.982   5.287   8.349
 3928POPC   NC359061  -0.311  12.037  -4.754
 3928POPC   PO459062  -0.197  12.015  -4.591
 3928POPC   GL159063  -0.083  11.993  -4.428
 3928POPC   GL259064  -0.123  12.077  -4.389
 3928POPC   C1A59065   0.030  11.972  -4.265
 3928POPC   D2A59066   0.144  11.950  -4.101
 3928POPC   C3A59067   0.257  11.929  -3.938
 3928POPC   C4A59068   0.371  11.907  -3.775
 3928POPC   C1B59069  -0.114  11.863  -4.179
 3928POPC   C2B59070  -0.000  11.841  -4.015
 3928POPC   C3B59071   0.113  11.820  -3.852
 3928POPC   C4B59072   0.227  11.798  -3.689
 3929POPC   NC359073  16.764   2.794  25.007
 3929POPC   PO459074  16.684   2.870  24.840
 3929POPC   GL159075  16.604   2.946  24.673
 3929POPC   GL259076  16.689   2.996  24.655
 3929POPC   C1A59077  16.524   3.022  24.506
 3929POPC   D2A59078  16.444   3.097  24.340
 3929POPC   C3A59079  16.364   3.173  24.173
 3929POPC   C4A59080  16.284   3.249  24.006
 3929POPC   C1B59081  16.594   2.866  24.402
 3929POPC   C2B59082  16.514   2.942  24.235
 3929POPC   C3B59083  16.434   3.018  24.068
 3929POPC   C4B59084  16.354   3.094  23.902
 3930POPC   NC359085  -3.180  21.637  14.416
 3930POPC   PO459086  -3.034  21.510  14.366
 3930POPC   GL159087  -2.888  21.383  14.316
 3930POPC   GL259088  -2.905  21.330  14.399
 3930POPC   C1A59089  -2.741  21.256  14.267
 3930POPC   D2A59090  -2.595  21.129  14.217
 3930POPC   C3A59091  -2.448  21.002  14.168
 3930POPC   C4A59092  -2.302  20.875  14.118
 3930POPC   C1B59093  -2.873  21.143  14.167
 3930POPC   C2B59094  -2.726  21.016  14.117
 3930POPC   C3B59095  -2.580  20.889  14.068
 3930POPC   C4B59096  -2.434  20.762  14.018
 3931POPC   NC359097   5.391  -6.538  15.757
 3931POPC   PO459098   5.441  -6.355  15.693
 3931POPC   GL159099   5.491  -6.172  15.629
 3931POPC   GL259100   5.522  -6.211  15.542
 3931POPC   C1A59101   5.541  -5.989  15.565
 3931POPC   D2A59102   5.590  -5.807  15.500
 3931POPC   C3A59103   5.640  -5.624  15.436
 3931POPC   C4A59104   5.690  -5.441  15.372
 3931POPC   C1B59105   5.357  -5.966  15.489
 3931POPC   C2B59106   5.407  -5.783  15.424
 3931POPC   C3B59107   5.457  -5.601  15.360
 3931POPC   C4B59108   5.506  -5.418  15.296
 3932POPC   NC359109  12.456  -0.908  24.032
 3932POPC   PO459110  12.425  -0.781  23.880
 3932POPC   GL159111  12.394  -0.654  23.728
 3932POPC   GL259112  12.493  -0.645  23.716
 3932POPC   C1A59113  12.364  -0.528  23.576
 3932POPC   D2A59114  12.333  -0.401  23.425
 3932POPC   C3A59115  12.303  -0.275  23.273
 3932POPC   C4A59116  12.272  -0.148  23.121
 3932POPC   C1B59117  12.363  -0.681  23.448
 3932POPC   C2B59118  12.332  -0.555  23.297
 3932POPC   C3B59119  12.302  -0.428  23.145
 3932POPC   C4B59120  12.271  -0.302  22.993
 3933POPC   NC359121   3.371   3.895  25.670
 3933POPC   PO459122   3.442   3.961  25.495
 3933POPC   GL159123   3.513   4.027  25.320
 3933POPC   GL259124   3.510   4.121  25.354
 3933POPC   C1A59125   3.584   4.093  25.145
 3933POPC   D2A59126   3.655   4.159  24.970
 3933POPC   C3A59127   3.726   4.225  24.795
 3933POPC   C4A59128   3.797   4.291  24.620
 3933POPC   C1B59129   3.771   4.073  25.213
 3933POPC   C2B59130   3.842   4.139  25.038
 3933POPC   C3B59131   3.913   4.205  24.863
 3933POPC   C4B59132   3.984   4.271  24.688
 3934POPC   NC359133  16.118   2.339  -5.241
 3934POPC   PO459134  16.048   2.418  -5.071
 3934POPC   GL159135  15.978   2.497  -4.901
 3934POPC   GL259136  15.910   2.549  -4.954
 3934POPC   C1A59137  15.908   2.577  -4.732
 3934POPC   D2A59138  15.838   2.656  -4.562
 3934POPC   C3A59139  15.768   2.736  -4.393
 3934POPC   C4A59140  15.698   2.815  -4.223
 3934POPC   C1B59141  15.778   2.425  -4.715
 3934POPC   C2B59142  15.708   2.505  -4.545
 3934POPC   C3B59143  15.638   2.584  -4.375
 3934POPC   C4B59144  15.568   2.664  -4.206
 3935POPC   NC359145  -1.517  17.332  -2.053
 3935POPC   PO459146  -1.392  17.251  -1.919
 3935POPC   GL159147  -1.267  17.170  -1.785
 3935POPC   GL259148  -1.201  17.242  -1.803
 3935POPC   C1A59149  -1.143  17.089  -1.651
 3935POPC   D2A59150  -1.018  17.009  -1.517
 3935POPC   C3A59151  -0.894  16.928  -1.383
 3935POPC   C4A59152  -0.769  16.847  -1.249
 3935POPC   C1B59153  -1.225  17.202  -1.507
 3935POPC   C2B59154  -1.100  17.121  -1.373
 3935POPC   C3B59155  -0.976  17.040  -1.239
 3935POPC   C4B59156  -0.851  16.959  -1.105
 3936POPC   NC359157   7.661  -6.938   4.061
 3936POPC   PO459158   7.686  -6.751   4.128
 3936POPC   GL159159   7.711  -6.564   4.195
 3936POPC   GL259160   7.791  -6.594   4.247
 3936POPC   C1A59161   7.736  -6.377   4.261
 3936POPC   D2A59162   7.762  -6.191   4.328
 3936POPC   C3A59163   7.787  -6.004   4.394
 3936POPC   C4A59164   7.812  -5.817   4.461
 3936POPC   C1B59165   7.854  -6.337   4.105
 3936POPC   C2B59166   7.880  -6.151   4.171
 3936POPC   C3B59167   7.905  -5.964   4.238
 3936POPC   C4B59168   7.930  -5.777   4.304
 3937POPC   NC359169  -3.548  13.241  21.567
 3937POPC   PO459170  -3.399  13.209  21.438
 3937POPC   GL159171  -3.250  13.177  21.309
 3937POPC   GL259172  -3.203  13.120  21.377
 3937POPC   C1A59173  -3.101  13.144  21.180
 3937POPC   D2A59174  -2.951  13.112  21.050
 3937POPC   C3A59175  -2.802  13.079  20.921
 3937POPC   C4A59176  -2.653  13.047  20.792
 3937POPC   C1B59177  -3.196  12.983  21.110
 3937POPC   C2B59178  -3.047  12.951  20.980
 3937POPC   C3B59179  -2.898  12.918  20.851
 3937POPC   C4B59180  -2.749  12.886  20.722
 3938POPC   NC359181  25.417   2.773   4.172
 3938POPC   PO459182  25.245   2.853   4.234
 3938POPC   GL159183  25.073   2.933   4.296
 3938POPC   GL259184  25.111   3.025   4.284
 3938POPC   C1A59185  24.900   3.014   4.358
 3938POPC   D2A59186  24.728   3.094   4.419
 3938POPC   C3A59187  24.555   3.175   4.481
 3938POPC   C4A59188  24.383   3.255   4.543
 3938POPC   C1B59189  24.834   3.017   4.169
 3938POPC   C2B59190  24.662   3.098   4.231
 3938POPC   C3B59191  24.489   3.178   4.292
 3938POPC   C4B59192  24.317   3.259   4.354
 3939POPC   NC359193   2.540  -2.373  -0.910
 3939POPC   PO459194   2.625  -2.240  -0.787
 3939POPC   GL159195   2.710  -2.107  -0.664
 3939POPC   GL259196   2.646  -2.133  -0.592
 3939POPC   C1A59197   2.795  -1.974  -0.542
 3939POPC   D2A59198   2.881  -1.841  -0.419
 3939POPC   C3A59199   2.966  -1.708  -0.297
 3939POPC   C4A59200   3.051  -1.575  -0.174
 3939POPC   C1B59201   2.923  -2.114  -0.479
 3939POPC   C2B59202   3.009  -1.981  -0.356
 3939POPC   C3B59203   3.094  -1.848  -0.233
 3939POPC   C4B59204   3.179  -1.715  -0.111
 3940POPC   NC359205  23.736   3.944   0.067
 3940POPC   PO459206  23.586   4.015   0.179
 3940POPC   GL159207  23.436   4.086   0.291
 3940POPC   GL259208  23.401   4.136   0.212
 3940POPC   C1A59209  23.287   4.157   0.403
 3940POPC   D2A59210  23.137   4.229   0.515
 3940POPC   C3A59211  22.988   4.300   0.627
 3940POPC   C4A59212  22.838   4.371   0.739
 3940POPC   C1B59213  23.175   3.999   0.355
 3940POPC   C2B59214  23.026   4.070   0.467
 3940POPC   C3B59215  22.876   4.141   0.579
 3940POPC   C4B59216  22.726   4.212   0.691
 3941POPC   NC359217  21.145  10.929  -4.124
 3941POPC   PO459218  21.021  10.918  -3.968
 3941POPC   GL159219  20.897  10.907  -3.812
 3941POPC   GL259220  20.885  10.809  -3.828
 3941POPC   C1A59221  20.772  10.896  -3.656
 3941POPC   D2A59222  20.648  10.884  -3.499
 3941POPC   C3A59223  20.523  10.873  -3.343
 3941POPC   C4A59224  20.399  10.862  -3.187
 3941POPC   C1B59225  20.927  10.858  -3.535
 3941POPC   C2B59226  20.803  10.847  -3.379
 3941POPC   C3B59227  20.678  10.836  -3.222
 3941POPC   C4B59228  20.554  10.825  -3.066
 3942POPC   NC359229  21.653  15.721  22.209
 3942POPC   PO459230  21.525  15.659  22.069
 3942POPC   GL159231  21.397  15.597  21.929
 3942POPC   GL259232  21.441  15.658  21.862
 3942POPC   C1A59233  21.269  15.535  21.788
 3942POPC   D2A59234  21.140  15.474  21.648
 3942POPC   C3A59235  21.012  15.412  21.507
 3942POPC   C4A59236  20.884  15.350  21.367
 3942POPC   C1B59237  21.395  15.389  21.738
 3942POPC   C2B59238  21.266  15.327  21.597
 3942POPC   C3B59239  21.138  15.265  21.457
 3942POPC   C4B59240  21.010  15.203  21.316
 3943POPC   NC359241  23.416  20.483   4.418
 3943POPC   PO459242  23.263  20.366   4.474
 3943POPC   GL159243  23.110  20.249   4.530
 3943POPC   GL259244  23.115  20.201   4.442
 3943POPC   C1A59245  22.957  20.133   4.585
 3943POPC   D2A59246  22.805  20.016   4.641
 3943POPC   C3A59247  22.652  19.900   4.696
 3943POPC   C4A59248  22.499  19.783   4.752
 3943POPC   C1B59249  23.086  20.002   4.664
 3943POPC   C2B59250  22.933  19.885   4.720
 3943POPC   C3B59251  22.781  19.768   4.775
 3943POPC   C4B59252  22.628  19.652   4.831
 3944POPC   NC359253  27.647  13.028   9.536
 3944POPC   PO459254  27.449  13.000   9.538
 3944POPC   GL159255  27.251  12.972   9.540
 3944POPC   GL259256  27.247  12.998   9.443
 3944POPC   C1A59257  27.053  12.944   9.541
 3944POPC   D2A59258  26.855  12.917   9.543
 3944POPC   C3A59259  26.657  12.889   9.544
 3944POPC   C4A59260  26.459  12.861   9.546
 3944POPC   C1B59261  27.079  12.753   9.489
 3944POPC   C2B59262  26.881  12.725   9.491
 3944POPC   C3B59263  26.683  12.697   9.493
 3944POPC   C4B59264  26.485  12.670   9.494
 3945POPC   NC359265  22.197  16.285  21.426
 3945POPC   PO459266  22.064  16.218  21.293
 3945POPC   GL159267  21.931  16.151  21.160
 3945POPC   GL259268  22.004  16.103  21.111
 3945POPC   C1A59269  21.798  16.083  21.026
 3945POPC   D2A59270  21.665  16.016  20.893
 3945POPC   C3A59271  21.532  15.948  20.759
 3945POPC   C4A59272  21.399  15.881  20.626
 3945POPC   C1B59273  21.767  15.921  21.139
 3945POPC   C2B59274  21.634  15.853  21.005
 3945POPC   C3B59275  21.501  15.786  20.872
 3945POPC   C4B59276  21.368  15.719  20.739
 3946POPC   NC359277   9.458  -4.151  -1.288
 3946POPC   PO459278   9.463  -3.994  -1.165
 3946POPC   GL159279   9.468  -3.837  -1.042
 3946POPC   GL259280   9.567  -3.828  -1.057
 3946POPC   C1A59281   9.473  -3.680  -0.918
 3946POPC   D2A59282   9.479  -3.522  -0.795
 3946POPC   C3A59283   9.484  -3.365  -0.671
 3946POPC   C4A59284   9.489  -3.208  -0.548
 3946POPC   C1B59285   9.438  -3.557  -1.072
 3946POPC   C2B59286   9.443  -3.400  -0.949
 3946POPC   C3B59287   9.449  -3.243  -0.826
 3946POPC   C4B59288   9.454  -3.086  -0.702
 3947POPC   NC359289  -5.255  18.002  15.782
 3947POPC   PO459290  -5.090  17.909  15.717
 3947POPC   GL159291  -4.925  17.816  15.652
 3947POPC   GL259292  -4.897  17.800  15.746
 3947POPC   C1A59293  -4.760  17.723  15.587
 3947POPC   D2A59294  -4.596  17.631  15.521
 3947POPC   C3A59295  -4.431  17.538  15.456
 3947POPC   C4A59296  -4.266  17.445  15.391
 3947POPC   C1B59297  -4.859  17.549  15.586
 3947POPC   C2B59298  -4.694  17.456  15.520
 3947POPC   C3B59299  -4.529  17.364  15.455
 3947POPC   C4B59300  -4.364  17.271  15.390
 3948POPC   NC359301  20.941   6.368  -3.854
 3948POPC   PO459302  20.820   6.409  -3.700
 3948POPC   GL159303  20.699   6.450  -3.546
 3948POPC   GL259304  20.753   6.532  -3.526
 3948POPC   C1A59305  20.578   6.492  -3.392
 3948POPC   D2A59306  20.457   6.533  -3.239
 3948POPC   C3A59307  20.336   6.575  -3.085
 3948POPC   C4A59308  20.215   6.616  -2.931
 3948POPC   C1B59309  20.461   6.600  -3.513
 3948POPC   C2B59310  20.340   6.641  -3.360
 3948POPC   C3B59311  20.219   6.683  -3.206
 3948POPC   C4B59312  20.098   6.724  -3.052
 3949POPC   NC359313   3.145  -4.143   0.849
 3949POPC   PO459314   3.221  -3.989   0.952
 3949POPC   GL159315   3.297  -3.835   1.055
 3949POPC   GL259316   3.380  -3.839   0.999
 3949POPC   C1A59317   3.372  -3.681   1.158
 3949POPC   D2A59318   3.448  -3.528   1.262
 3949POPC   C3A59319   3.523  -3.374   1.365
 3949POPC   C4A59320   3.599  -3.220   1.468
 3949POPC   C1B59321   3.290  -3.554   1.028
 3949POPC   C2B59322   3.366  -3.400   1.132
 3949POPC   C3B59323   3.441  -3.246   1.235
 3949POPC   C4B59324   3.517  -3.092   1.338
 3950POPC   NC359325  -5.550  19.425   8.701
 3950POPC   PO459326  -5.379  19.321   8.714
 3950POPC   GL159327  -5.208  19.217   8.727
 3950POPC   GL259328  -5.242  19.172   8.809
 3950POPC   C1A59329  -5.038  19.113   8.740
 3950POPC   D2A59330  -4.867  19.010   8.753
 3950POPC   C3A59331  -4.697  18.906   8.766
 3950POPC   C4A59332  -4.526  18.802   8.779
 3950POPC   C1B59333  -5.117  18.969   8.627
 3950POPC   C2B59334  -4.947  18.865   8.640
 3950POPC   C3B59335  -4.776  18.761   8.653
 3950POPC   C4B59336  -4.606  18.657   8.666
 3951POPC   NC359337  -3.346  20.616   3.666
 3951POPC   PO459338  -3.201  20.498   3.737
 3951POPC   GL159339  -3.056  20.380   3.808
 3951POPC   GL259340  -3.080  20.406   3.901
 3951POPC   C1A59341  -2.910  20.263   3.879
 3951POPC   D2A59342  -2.765  20.145   3.949
 3951POPC   C3A59343  -2.619  20.028   4.020
 3951POPC   C4A59344  -2.474  19.910   4.091
 3951POPC   C1B59345  -3.038  20.109   3.887
 3951POPC   C2B59346  -2.893  19.992   3.958
 3951POPC   C3B59347  -2.748  19.874   4.028
 3951POPC   C4B59348  -2.602  19.757   4.099
 3952POPC   NC359349  -4.733  18.350   3.459
 3952POPC   PO459350  -4.568  18.263   3.532
 3952POPC   GL159351  -4.403  18.176   3.605
 3952POPC   GL259352  -4.428  18.206   3.697
 3952POPC   C1A59353  -4.238  18.089   3.678
 3952POPC   D2A59354  -4.074  18.003   3.750
 3952POPC   C3A59355  -3.909  17.916   3.823
 3952POPC   C4A59356  -3.744  17.829   3.896
 3952POPC   C1B59357  -4.340  17.919   3.705
 3952POPC   C2B59358  -4.175  17.833   3.778
 3952POPC   C3B59359  -4.010  17.746   3.851
 3952POPC   C4B59360  -3.846  17.659   3.923
 3953POPC   NC359361  -2.828  12.952  22.417
 3953POPC   PO459362  -2.688  12.919  22.278
 3953POPC   GL159363  -2.548  12.886  22.139
 3953POPC   GL259364  -2.517  12.806  22.189
 3953POPC   C1A59365  -2.408  12.854  22.000
 3953POPC   D2A59366  -2.269  12.821  21.860
 3953POPC   C3A59367  -2.129  12.789  21.721
 3953POPC   C4A59368  -1.989  12.756  21.582
 3953POPC   C1B59369  -2.537  12.741  21.897
 3953POPC   C2B59370  -2.397  12.708  21.758
 3953POPC   C3B59371  -2.258  12.675  21.618
 3953POPC   C4B59372  -2.118  12.643  21.479
 3954POPC   NC359373  27.098  10.952  15.189
 3954POPC   PO459374  26.906  10.935  15.135
 3954POPC   GL159375  26.714  10.918  15.081
 3954POPC   GL259376  26.719  11.007  15.036
 3954POPC   C1A59377  26.522  10.901  15.026
 3954POPC   D2A59378  26.331  10.885  14.972
 3954POPC   C3A59379  26.139  10.868  14.917
 3954POPC   C4A59380  25.947  10.851  14.863
 3954POPC   C1B59381  26.579  10.813  14.856
 3954POPC   C2B59382  26.387  10.796  14.802
 3954POPC   C3B59383  26.195  10.779  14.747
 3954POPC   C4B59384  26.003  10.762  14.693
 3955POPC   NC359385  13.251  20.945  23.888
 3955POPC   PO459386  13.215  20.824  23.733
 3955POPC   GL159387  13.179  20.703  23.578
 3955POPC   GL259388  13.274  20.712  23.549
 3955POPC   C1A59389  13.142  20.582  23.423
 3955POPC   D2A59390  13.106  20.461  23.268
 3955POPC   C3A59391  13.069  20.340  23.113
 3955POPC   C4A59392  13.033  20.219  22.958
 3955POPC   C1B59393  13.192  20.424  23.535
 3955POPC   C2B59394  13.155  20.303  23.380
 3955POPC   C3B59395  13.119  20.182  23.225
 3955POPC   C4B59396  13.082  20.061  23.070
 3956POPC   NC359397   1.886  24.017   1.945
 3956POPC   PO459398   1.980  23.862   2.031
 3956POPC   GL159399   2.074  23.707   2.117
 3956POPC   GL259400   2.148  23.768   2.146
 3956POPC   C1A59401   2.167  23.553   2.203
 3956POPC   D2A59402   2.261  23.398   2.288
 3956POPC   C3A59403   2.354  23.244   2.374
 3956POPC   C4A59404   2.448  23.089   2.460
 3956POPC   C1B59405   2.071  23.589   2.374
 3956POPC   C2B59406   2.164  23.435   2.460
 3956POPC   C3B59407   2.258  23.280   2.546
 3956POPC   C4B59408   2.352  23.126   2.631
 3957POPC   NC359409  11.223  27.797   7.382
 3957POPC   PO459410  11.208  27.600   7.411
 3957POPC   GL159411  11.193  27.403   7.440
 3957POPC   GL259412  11.285  27.401   7.478
 3957POPC   C1A59413  11.178  27.206   7.469
 3957POPC   D2A59414  11.163  27.008   7.499
 3957POPC   C3A59415  11.148  26.811   7.528
 3957POPC   C4A59416  11.133  26.614   7.557
 3957POPC   C1B59417  11.103  27.238   7.652
 3957POPC   C2B59418  11.088  27.041   7.681
 3957POPC   C3B59419  11.073  26.844   7.710
 3957POPC   C4B59420  11.058  26.647   7.740
 3958POPC   NC359421   4.238  26.850   6.523
 3958POPC   PO459422   4.303  26.664   6.560
 3958POPC   GL159423   4.368  26.478   6.597
 3958POPC   GL259424   4.339  26.487   6.692
 3958POPC   C1A59425   4.433  26.293   6.633
 3958POPC   D2A59426   4.498  26.107   6.670
 3958POPC   C3A59427   4.563  25.922   6.706
 3958POPC   C4A59428   4.628  25.736   6.743
 3958POPC   C1B59429   4.253  26.220   6.584
 3958POPC   C2B59430   4.318  26.035   6.621
 3958POPC   C3B59431   4.383  25.849   6.657
 3958POPC   C4B59432   4.448  25.663   6.694
 3959POPC   NC359433   9.323  22.124  23.279
 3959POPC   PO459434   9.334  21.987  23.133
 3959POPC   GL159435   9.345  21.850  22.987
 3959POPC   GL259436   9.369  21.922  22.922
 3959POPC   C1A59437   9.355  21.714  22.841
 3959POPC   D2A59438   9.366  21.577  22.696
 3959POPC   C3A59439   9.376  21.441  22.550
 3959POPC   C4A59440   9.387  21.304  22.404
 3959POPC   C1B59441   9.549  21.685  22.882
 3959POPC   C2B59442   9.559  21.549  22.736
 3959POPC   C3B59443   9.570  21.412  22.591
 3959POPC   C4B59444   9.581  21.275  22.445
 3960POPC   NC359445   0.876  -0.232  21.791
 3960POPC   PO459446   0.979  -0.122  21.659
 3960POPC   GL159447   1.082  -0.012  21.527
 3960POPC   GL259448   1.155  -0.000  21.594
 3960POPC   C1A59449   1.184   0.098  21.396
 3960POPC   D2A59450   1.287   0.209  21.264
 3960POPC   C3A59451   1.389   0.319  21.133
 3960POPC   C4A59452   1.492   0.429  21.001
 3960POPC   C1B59453   1.273  -0.067  21.327
 3960POPC   C2B59454   1.376   0.043  21.195
 3960POPC   C3B59455   1.479   0.154  21.064
 3960POPC   C4B59456   1.581   0.264  20.932
 3961POPC   NC359457  27.232  12.524   5.622
 3961POPC   PO459458  27.039  12.501   5.669
 3961POPC   GL159459  26.846  12.478   5.716
 3961POPC   GL259460  26.822  12.478   5.619
 3961POPC   C1A59461  26.653  12.455   5.764
 3961POPC   D2A59462  26.460  12.432   5.811
 3961POPC   C3A59463  26.267  12.409   5.859
 3961POPC   C4A59464  26.074  12.386   5.906
 3961POPC   C1B59465  26.675  12.256   5.758
 3961POPC   C2B59466  26.482  12.233   5.805
 3961POPC   C3B59467  26.289  12.210   5.853
 3961POPC   C4B59468  26.096  12.187   5.900
 3962POPC   NC359469  -4.923  14.872  19.146
 3962POPC   PO459470  -4.758  14.821  19.045
 3962POPC   GL159471  -4.593  14.770  18.944
 3962POPC   GL259472  -4.569  14.867  18.935
 3962POPC   C1A59473  -4.428  14.719  18.843
 3962POPC   D2A59474  -4.263  14.669  18.742
 3962POPC   C3A59475  -4.098  14.618  18.641
 3962POPC   C4A59476  -3.933  14.567  18.540
 3962POPC   C1B59477  -4.326  14.711  19.015
 3962POPC   C2B59478  -4.161  14.660  18.914
 3962POPC   C3B59479  -3.996  14.609  18.813
 3962POPC   C4B59480  -3.831  14.558  18.712
 3963POPC   NC359481  10.297   8.123  27.907
 3963POPC   PO459482  10.296   8.144  27.708
 3963POPC   GL159483  10.295   8.165  27.509
 3963POPC   GL259484  10.328   8.071  27.499
 3963POPC   C1A59485  10.294   8.186  27.310
 3963POPC   D2A59486  10.292   8.208  27.112
 3963POPC   C3A59487  10.291   8.229  26.913
 3963POPC   C4A59488  10.290   8.250  26.714
 3963POPC   C1B59489  10.105   8.120  27.305
 3963POPC   C2B59490  10.104   8.141  27.106
 3963POPC   C3B59491  10.103   8.163  26.907
 3963POPC   C4B59492  10.101   8.184  26.708
 3964POPC   NC359493  -2.950  16.618  20.802
 3964POPC   PO459494  -2.812  16.542  20.679
 3964POPC   GL159495  -2.674  16.466  20.556
 3964POPC   GL259496  -2.612  16.542  20.578
 3964POPC   C1A59497  -2.536  16.390  20.432
 3964POPC   D2A59498  -2.398  16.315  20.309
 3964POPC   C3A59499  -2.260  16.239  20.185
 3964POPC   C4A59500  -2.122  16.163  20.062
 3964POPC   C1B59501  -2.460  16.283  20.583
 3964POPC   C2B59502  -2.322  16.207  20.460
 3964POPC   C3B59503  -2.184  16.132  20.336
 3964POPC   C4B59504  -2.046  16.056  20.213
 3965POPC   NC359505  -5.458  16.230  17.252
 3965POPC   PO459506  -5.289  16.160  17.170
 3965POPC   GL159507  -5.120  16.090  17.088
 3965POPC   GL259508  -5.069  16.121  17.168
 3965POPC   C1A59509  -4.951  16.021  17.006
 3965POPC   D2A59510  -4.783  15.951  16.925
 3965POPC   C3A59511  -4.614  15.882  16.843
 3965POPC   C4A59512  -4.445  15.812  16.761
 3965POPC   C1B59513  -4.982  15.844  17.095
 3965POPC   C2B59514  -4.813  15.774  17.013
 3965POPC   C3B59515  -4.644  15.705  16.931
 3965POPC   C4B59516  -4.475  15.635  16.849
 3966POPC   NC359517  20.887  24.190   8.345
 3966POPC   PO459518  20.771  24.028   8.359
 3966POPC   GL159519  20.655  23.866   8.373
 3966POPC   GL259520  20.619  23.883   8.281
 3966POPC   C1A59521  20.539  23.703   8.387
 3966POPC   D2A59522  20.424  23.541   8.400
 3966POPC   C3A59523  20.308  23.378   8.414
 3966POPC   C4A59524  20.192  23.216   8.428
 3966POPC   C1B59525  20.686  23.592   8.308
 3966POPC   C2B59526  20.570  23.430   8.321
 3966POPC   C3B59527  20.454  23.267   8.335
 3966POPC   C4B59528  20.338  23.105   8.349
 3967POPC   NC359529  18.510  -5.290  14.090
 3967POPC   PO459530  18.414  -5.121  14.045
 3967POPC   GL159531  18.318  -4.952  14.000
 3967POPC   GL259532  18.405  -4.905  13.988
 3967POPC   C1A59533  18.221  -4.782  13.955
 3967POPC   D2A59534  18.125  -4.613  13.910
 3967POPC   C3A59535  18.028  -4.443  13.865
 3967POPC   C4A59536  17.932  -4.274  13.820
 3967POPC   C1B59537  18.223  -4.833  13.762
 3967POPC   C2B59538  18.126  -4.663  13.717
 3967POPC   C3B59539  18.030  -4.494  13.672
 3967POPC   C4B59540  17.933  -4.325  13.627
 3968POPC   NC359541  16.457   9.721  -6.847
 3968POPC   PO459542  16.381   9.726  -6.662
 3968POPC   GL159543  16.305   9.731  -6.477
 3968POPC   GL259544  16.214   9.750  -6.515
 3968POPC   C1A59545  16.228   9.736  -6.292
 3968POPC   D2A59546  16.152   9.742  -6.108
 3968POPC   C3A59547  16.075   9.747  -5.923
 3968POPC   C4A59548  15.999   9.752  -5.738
 3968POPC   C1B59549  16.191   9.540  -6.302
 3968POPC   C2B59550  16.114   9.545  -6.118
 3968POPC   C3B59551  16.038   9.551  -5.933
 3968POPC   C4B59552  15.961   9.556  -5.748
 3969POPC   NC359553  13.057  -5.473  18.739
 3969POPC   PO459554  13.019  -5.304  18.640
 3969POPC   GL159555  12.981  -5.135  18.541
 3969POPC   GL259556  13.079  -5.112  18.542
 3969POPC   C1A59557  12.943  -4.965  18.441
 3969POPC   D2A59558  12.906  -4.796  18.342
 3969POPC   C3A59559  12.868  -4.626  18.242
 3969POPC   C4A59560  12.830  -4.457  18.143
 3969POPC   C1B59561  12.968  -5.062  18.268
 3969POPC   C2B59562  12.930  -4.892  18.168
 3969POPC   C3B59563  12.893  -4.723  18.069
 3969POPC   C4B59564  12.855  -4.553  17.970
 3970POPC   NC359565   5.551  26.359  16.172
 3970POPC   PO459566   5.601  26.178  16.103
 3970POPC   GL159567   5.651  25.997  16.034
 3970POPC   GL259568   5.689  26.039  15.952
 3970POPC   C1A59569   5.700  25.816  15.965
 3970POPC   D2A59570   5.750  25.635  15.895
 3970POPC   C3A59571   5.799  25.454  15.826
 3970POPC   C4A59572   5.849  25.273  15.757
 3970POPC   C1B59573   5.878  25.830  16.055
 3970POPC   C2B59574   5.928  25.649  15.986
 3970POPC   C3B59575   5.977  25.468  15.917
 3970POPC   C4B59576   6.027  25.287  15.848
 3971POPC   NC359577  16.089  15.163  26.103
 3971POPC   PO459578  16.022  15.101  25.925
 3971POPC   GL159579  15.955  15.039  25.747
 3971POPC   GL259580  15.968  14.944  25.775
 3971POPC   C1A59581  15.888  14.978  25.569
 3971POPC   D2A59582  15.822  14.916  25.390
 3971POPC   C3A59583  15.755  14.855  25.212
 3971POPC   C4A59584  15.688  14.793  25.034
 3971POPC   C1B59585  15.702  14.973  25.640
 3971POPC   C2B59586  15.635  14.912  25.462
 3971POPC   C3B59587  15.568  14.850  25.284
 3971POPC   C4B59588  15.501  14.789  25.105
 3972POPC   NC359589  26.994  10.828   4.349
 3972POPC   PO459590  26.803  10.821   4.409
 3972POPC   GL159591  26.612  10.814   4.469
 3972POPC   GL259592  26.598  10.731   4.415
 3972POPC   C1A59593  26.422  10.807   4.529
 3972POPC   D2A59594  26.231  10.800   4.590
 3972POPC   C3A59595  26.041  10.793   4.650
 3972POPC   C4A59596  25.850  10.786   4.710
 3972POPC   C1B59597  26.475  10.695   4.686
 3972POPC   C2B59598  26.285  10.688   4.746
 3972POPC   C3B59599  26.094  10.681   4.807
 3972POPC   C4B59600  25.904  10.674   4.867
 3973POPC   NC359601  -3.032   6.446  22.075
 3973POPC   PO459602  -2.892   6.488  21.939
 3973POPC   GL159603  -2.752   6.530  21.803
 3973POPC   GL259604  -2.711   6.597  21.865
 3973POPC   C1A59605  -2.611   6.572  21.667
 3973POPC   D2A59606  -2.471   6.614  21.531
 3973POPC   C3A59607  -2.330   6.656  21.395
 3973POPC   C4A59608  -2.190   6.698  21.259
 3973POPC   C1B59609  -2.494   6.429  21.743
 3973POPC   C2B59610  -2.354   6.471  21.607
 3973POPC   C3B59611  -2.213   6.513  21.471
 3973POPC   C4B59612  -2.073   6.555  21.335
 3974POPC   NC359613   9.960   0.277  -5.280
 3974POPC   PO459614   9.955   0.383  -5.110
 3974POPC   GL159615   9.950   0.489  -4.940
 3974POPC   GL259616  10.023   0.548  -4.975
 3974POPC   C1A59617   9.945   0.595  -4.771
 3974POPC   D2A59618   9.940   0.700  -4.601
 3974POPC   C3A59619   9.935   0.806  -4.432
 3974POPC   C4A59620   9.930   0.912  -4.262
 3974POPC   C1B59621   9.808   0.717  -4.851
 3974POPC   C2B59622   9.803   0.823  -4.681
 3974POPC   C3B59623   9.798   0.928  -4.512
 3974POPC   C4B59624   9.793   1.034  -4.342
 3975POPC   NC359625   0.672  24.061  16.443
 3975POPC   PO459626   0.772  23.902  16.373
 3975POPC   GL159627   0.872  23.743  16.303
 3975POPC   GL259628   0.854  23.694  16.389
 3975POPC   C1A59629   0.972  23.585  16.234
 3975POPC   D2A59630   1.072  23.426  16.164
 3975POPC   C3A59631   1.172  23.268  16.095
 3975POPC   C4A59632   1.272  23.109  16.025
 3975POPC   C1B59633   0.803  23.512  16.156
 3975POPC   C2B59634   0.903  23.354  16.086
 3975POPC   C3B59635   1.003  23.195  16.017
 3975POPC   C4B59636   1.103  23.036  15.947
 3976POPC   NC359637  -0.164  10.318  25.004
 3976POPC   PO459638  -0.048  10.307  24.842
 3976POPC   GL159639   0.068  10.296  24.680
 3976POPC   GL259640   0.103  10.388  24.699
 3976POPC   C1A59641   0.185  10.286  24.518
 3976POPC   D2A59642   0.301  10.275  24.355
 3976POPC   C3A59643   0.418  10.265  24.193
 3976POPC   C4A59644   0.534  10.254  24.031
 3976POPC   C1B59645   0.332  10.207  24.628
 3976POPC   C2B59646   0.448  10.196  24.466
 3976POPC   C3B59647   0.564  10.186  24.304
 3976POPC   C4B59648   0.681  10.175  24.142
 3977POPC   NC359649   5.411  17.109  -6.051
 3977POPC   PO459650   5.461  17.030  -5.874
 3977POPC   GL159651   5.511  16.951  -5.697
 3977POPC   GL259652   5.519  17.042  -5.658
 3977POPC   C1A59653   5.561  16.871  -5.521
 3977POPC   D2A59654   5.611  16.792  -5.344
 3977POPC   C3A59655   5.661  16.712  -5.168
 3977POPC   C4A59656   5.711  16.633  -4.991
 3977POPC   C1B59657   5.368  16.866  -5.469
 3977POPC   C2B59658   5.418  16.786  -5.292
 3977POPC   C3B59659   5.468  16.707  -5.115
 3977POPC   C4B59660   5.518  16.628  -4.939
 3978POPC   NC359661  -8.233  10.052   9.980
 3978POPC   PO459662  -8.033  10.051   9.978
 3978POPC   GL159663  -7.833  10.050   9.976
 3978POPC   GL259664  -7.832  10.134  10.030
 3978POPC   C1A59665  -7.633  10.049   9.975
 3978POPC   D2A59666  -7.433  10.049   9.973
 3978POPC   C3A59667  -7.233  10.048   9.972
 3978POPC   C4A59668  -7.033  10.047   9.970
 3978POPC   C1B59669  -7.632   9.941  10.143
 3978POPC   C2B59670  -7.432   9.941  10.141
 3978POPC   C3B59671  -7.232   9.940  10.140
 3978POPC   C4B59672  -7.032   9.939  10.138
 3979POPC   NC359673  13.053  12.884  -7.601
 3979POPC   PO459674  13.017  12.849  -7.407
 3979POPC   GL159675  12.981  12.814  -7.213
 3979POPC   GL259676  12.912  12.746  -7.239
 3979POPC   C1A59677  12.945  12.779  -7.020
 3979POPC   D2A59678  12.910  12.744  -6.826
 3979POPC   C3A59679  12.874  12.709  -6.633
 3979POPC   C4A59680  12.838  12.674  -6.439
 3979POPC   C1B59681  13.086  12.637  -7.020
 3979POPC   C2B59682  13.050  12.602  -6.826
 3979POPC   C3B59683  13.014  12.567  -6.632
 3979POPC   C4B59684  12.978  12.532  -6.439
 3980POPC   NC359685   3.568  19.712  23.794
 3980POPC   PO459686   3.637  19.601  23.642
 3980POPC   GL159687   3.706  19.490  23.490
 3980POPC   GL259688   3.750  19.429  23.555
 3980POPC   C1A59689   3.774  19.380  23.338
 3980POPC   D2A59690   3.843  19.269  23.187
 3980POPC   C3A59691   3.911  19.159  23.035
 3980POPC   C4A59692   3.980  19.048  22.883
 3980POPC   C1B59693   3.609  19.268  23.345
 3980POPC   C2B59694   3.677  19.157  23.193
 3980POPC   C3B59695   3.746  19.047  23.042
 3980POPC   C4B59696   3.814  18.936  22.890
 3981POPC   NC359697  17.002  -5.822  14.899
 3981POPC   PO459698  16.924  -5.646  14.844
 3981POPC   GL159699  16.846  -5.470  14.789
 3981POPC   GL259700  16.902  -5.424  14.857
 3981POPC   C1A59701  16.768  -5.295  14.733
 3981POPC   D2A59702  16.691  -5.119  14.678
 3981POPC   C3A59703  16.613  -4.944  14.622
 3981POPC   C4A59704  16.535  -4.768  14.567
 3981POPC   C1B59705  16.914  -5.273  14.598
 3981POPC   C2B59706  16.837  -5.097  14.543
 3981POPC   C3B59707  16.759  -4.921  14.488
 3981POPC   C4B59708  16.681  -4.746  14.432
 3982POPC   NC359709  -7.431  14.434  12.778
 3982POPC   PO459710  -7.241  14.381  12.747
 3982POPC   GL159711  -7.051  14.328  12.716
 3982POPC   GL259712  -7.022  14.423  12.732
 3982POPC   C1A59713  -6.860  14.276  12.685
 3982POPC   D2A59714  -6.670  14.223  12.655
 3982POPC   C3A59715  -6.479  14.171  12.624
 3982POPC   C4A59716  -6.289  14.118  12.593
 3982POPC   C1B59717  -6.840  14.236  12.880
 3982POPC   C2B59718  -6.649  14.184  12.850
 3982POPC   C3B59719  -6.459  14.131  12.819
 3982POPC   C4B59720  -6.268  14.078  12.788
 3983POPC   NC359721  14.871   8.663  -7.379
 3983POPC   PO459722  14.808   8.680  -7.190
 3983POPC   GL159723  14.745   8.697  -7.001
 3983POPC   GL259724  14.765   8.794  -7.003
 3983POPC   C1A59725  14.682   8.713  -6.812
 3983POPC   D2A59726  14.618   8.730  -6.623
 3983POPC   C3A59727  14.555   8.746  -6.434
 3983POPC   C4A59728  14.492   8.763  -6.245
 3983POPC   C1B59729  14.496   8.751  -6.877
 3983POPC   C2B59730  14.433   8.767  -6.688
 3983POPC   C3B59731  14.370   8.784  -6.499
 3983POPC   C4B59732  14.307   8.801  -6.310
 3984POPC   NC359733  10.154  21.306  24.008
 3984POPC   PO459734  10.151  21.180  23.853
 3984POPC   GL159735  10.148  21.054  23.698
 3984POPC   GL259736  10.205  21.117  23.645
 3984POPC   C1A59737  10.146  20.928  23.543
 3984POPC   D2A59738  10.143  20.801  23.387
 3984POPC   C3A59739  10.141  20.675  23.232
 3984POPC   C4A59740  10.138  20.549  23.077
 3984POPC   C1B59741  10.310  20.838  23.613
 3984POPC   C2B59742  10.308  20.712  23.458
 3984POPC   C3B59743  10.305  20.586  23.302
 3984POPC   C4B59744  10.302  20.459  23.147
 3985POPC   NC359745  13.045   7.124  27.456
 3985POPC   PO459746  13.007   7.155  27.262
 3985POPC   GL159747  12.969   7.186  27.068
 3985POPC   GL259748  13.031   7.112  27.044
 3985POPC   C1A59749  12.930   7.217  26.874
 3985POPC   D2A59750  12.892   7.247  26.681
 3985POPC   C3A59751  12.853   7.278  26.487
 3985POPC   C4A59752  12.815   7.309  26.293
 3985POPC   C1B59753  12.780   7.085  26.883
 3985POPC   C2B59754  12.741   7.116  26.690
 3985POPC   C3B59755  12.703   7.147  26.496
 3985POPC   C4B59756  12.664   7.178  26.302
 3986POPC   NC359757  13.858   1.521  -5.516
 3986POPC   PO459758  13.818   1.617  -5.345
 3986POPC   GL159759  13.778   1.713  -5.174
 3986POPC   GL259760  13.874   1.706  -5.148
 3986POPC   C1A59761  13.738   1.808  -5.003
 3986POPC   D2A59762  13.698   1.904  -4.832
 3986POPC   C3A59763  13.658   1.999  -4.661
 3986POPC   C4A59764  13.618   2.095  -4.490
 3986POPC   C1B59765  13.774   1.983  -5.093
 3986POPC   C2B59766  13.734   2.079  -4.922
 3986POPC   C3B59767  13.694   2.175  -4.751
 3986POPC   C4B59768  13.654   2.270  -4.580
 3987POPC   NC359769  -1.132  24.075  12.874
 3987POPC   PO459770  -1.012  23.918  12.842
 3987POPC   GL159771  -0.892  23.761  12.810
 3987POPC   GL259772  -0.923  23.720  12.896
 3987POPC   C1A59773  -0.773  23.604  12.778
 3987POPC   D2A59774  -0.653  23.446  12.747
 3987POPC   C3A59775  -0.534  23.289  12.715
 3987POPC   C4A59776  -0.414  23.132  12.683
 3987POPC   C1B59777  -0.921  23.511  12.681
 3987POPC   C2B59778  -0.801  23.353  12.649
 3987POPC   C3B59779  -0.682  23.196  12.618
 3987POPC   C4B59780  -0.562  23.039  12.586
 3988POPC   NC359781  19.104  10.978  -5.501
 3988POPC   PO459782  19.003  10.968  -5.329
 3988POPC   GL159783  18.902  10.958  -5.157
 3988POPC   GL259784  18.888  10.860  -5.170
 3988POPC   C1A59785  18.801  10.948  -4.985
 3988POPC   D2A59786  18.699  10.938  -4.812
 3988POPC   C3A59787  18.598  10.928  -4.640
 3988POPC   C4A59788  18.497  10.918  -4.468
 3988POPC   C1B59789  18.971  10.911  -4.887
 3988POPC   C2B59790  18.870  10.901  -4.714
 3988POPC   C3B59791  18.769  10.891  -4.542
 3988POPC   C4B59792  18.667  10.881  -4.370
 3989POPC   NC359793  -7.132  15.845  11.677
 3989POPC   PO459794  -6.944  15.779  11.658
 3989POPC   GL159795  -6.756  15.713  11.639
 3989POPC   GL259796  -6.776  15.638  11.702
 3989POPC   C1A59797  -6.568  15.647  11.620
 3989POPC   D2A59798  -6.381  15.581  11.600
 3989POPC   C3A59799  -6.193  15.515  11.581
 3989POPC   C4A59800  -6.005  15.449  11.562
 3989POPC   C1B59801  -6.624  15.532  11.466
 3989POPC   C2B59802  -6.437  15.466  11.447
 3989POPC   C3B59803  -6.249  15.400  11.427
 3989POPC   C4B59804  -6.061  15.334  11.408
 3990POPC   NC359805  20.167  -4.365   6.177
 3990POPC   PO459806  20.054  -4.206   6.219
 3990POPC   GL159807  19.941  -4.047   6.261
 3990POPC   GL259808  19.989  -3.994   6.192
 3990POPC   C1A59809  19.827  -3.888   6.304
 3990POPC   D2A59810  19.714  -3.728   6.346
 3990POPC   C3A59811  19.600  -3.569   6.389
 3990POPC   C4A59812  19.487  -3.410   6.431
 3990POPC   C1B59813  19.695  -3.945   6.166
 3990POPC   C2B59814  19.581  -3.786   6.208
 3990POPC   C3B59815  19.468  -3.627   6.251
 3990POPC   C4B59816  19.354  -3.468   6.293
 3991POPC   NC359817  15.555  26.400   5.211
 3991POPC   PO459818  15.494  26.218   5.266
 3991POPC   GL159819  15.433  26.036   5.321
 3991POPC   GL259820  15.517  25.996   5.283
 3991POPC   C1A59821  15.372  25.853   5.377
 3991POPC   D2A59822  15.312  25.671   5.432
 3991POPC   C3A59823  15.251  25.488   5.488
 3991POPC   C4A59824  15.190  25.306   5.543
 3991POPC   C1B59825  15.464  25.876   5.553
 3991POPC   C2B59826  15.403  25.694   5.608
 3991POPC   C3B59827  15.342  25.511   5.664
 3991POPC   C4B59828  15.282  25.329   5.719
 3992POPC   NC359829  22.240   5.924  -2.579
 3992POPC   PO459830  22.106   5.973  -2.439
 3992POPC   GL159831  21.972   6.022  -2.299
 3992POPC   GL259832  21.900   5.978  -2.353
 3992POPC   C1A59833  21.838   6.071  -2.159
 3992POPC   D2A59834  21.703   6.120  -2.019
 3992POPC   C3A59835  21.569   6.169  -1.879
 3992POPC   C4A59836  21.435   6.218  -1.739
 3992POPC   C1B59837  21.873   5.898  -2.065
 3992POPC   C2B59838  21.739   5.947  -1.925
 3992POPC   C3B59839  21.605   5.996  -1.785
 3992POPC   C4B59840  21.470   6.045  -1.645
 3993POPC   NC359841  23.314   1.144   1.740
 3993POPC   PO459842  23.167   1.242   1.834
 3993POPC   GL159843  23.020   1.340   1.928
 3993POPC   GL259844  23.079   1.421   1.936
 3993POPC   C1A59845  22.873   1.438   2.023
 3993POPC   D2A59846  22.727   1.535   2.117
 3993POPC   C3A59847  22.580   1.633   2.212
 3993POPC   C4A59848  22.433   1.731   2.306
 3993POPC   C1B59849  22.804   1.503   1.847
 3993POPC   C2B59850  22.657   1.601   1.941
 3993POPC   C3B59851  22.510   1.699   2.036
 3993POPC   C4B59852  22.364   1.797   2.130
 3994POPC   NC359853  -3.888  -0.194  15.680
 3994POPC   PO459854  -3.734  -0.084  15.616
 3994POPC   GL159855  -3.580   0.026  15.552
 3994POPC   GL259856  -3.591   0.088  15.630
 3994POPC   C1A59857  -3.426   0.137  15.489
 3994POPC   D2A59858  -3.271   0.247  15.425
 3994POPC   C3A59859  -3.117   0.358  15.362
 3994POPC   C4A59860  -2.963   0.468  15.298
 3994POPC   C1B59861  -3.300   0.024  15.596
 3994POPC   C2B59862  -3.146   0.134  15.533
 3994POPC   C3B59863  -2.992   0.245  15.469
 3994POPC   C4B59864  -2.838   0.355  15.405
 3995POPC   NC359865  17.738   4.070  -5.172
 3995POPC   PO459866  17.650   4.132  -5.003
 3995POPC   GL159867  17.562   4.194  -4.834
 3995POPC   GL259868  17.633   4.263  -4.822
 3995POPC   C1A59869  17.474   4.256  -4.666
 3995POPC   D2A59870  17.385   4.317  -4.497
 3995POPC   C3A59871  17.297   4.379  -4.329
 3995POPC   C4A59872  17.209   4.441  -4.160
 3995POPC   C1B59873  17.365   4.387  -4.771
 3995POPC   C2B59874  17.277   4.449  -4.602
 3995POPC   C3B59875  17.189   4.511  -4.433
 3995POPC   C4B59876  17.101   4.573  -4.265
 3996POPC   NC359877  25.345  12.473   1.021
 3996POPC   PO459878  25.174  12.446   1.121
 3996POPC   GL159879  25.003  12.419   1.221
 3996POPC   GL259880  24.965  12.501   1.179
 3996POPC   C1A59881  24.832  12.392   1.322
 3996POPC   D2A59882  24.662  12.365   1.422
 3996POPC   C3A59883  24.491  12.338   1.523
 3996POPC   C4A59884  24.320  12.311   1.623
 3996POPC   C1B59885  24.761  12.281   1.171
 3996POPC   C2B59886  24.590  12.254   1.272
 3996POPC   C3B59887  24.420  12.227   1.372
 3996POPC   C4B59888  24.249  12.200   1.472
 3997POPC   NC359889   8.741  24.080  -1.214
 3997POPC   PO459890   8.755  23.924  -1.090
 3997POPC   GL159891   8.769  23.768  -0.966
 3997POPC   GL259892   8.824  23.823  -0.903
 3997POPC   C1A59893   8.783  23.612  -0.842
 3997POPC   D2A59894   8.798  23.455  -0.718
 3997POPC   C3A59895   8.812  23.299  -0.594
 3997POPC   C4A59896   8.826  23.143  -0.470
 3997POPC   C1B59897   8.616  23.670  -0.749
 3997POPC   C2B59898   8.630  23.514  -0.625
 3997POPC   C3B59899   8.645  23.358  -0.501
 3997POPC   C4B59900   8.659  23.202  -0.377
 3998POPC   NC359901   8.784  26.311  17.605
 3998POPC   PO459902   8.797  26.130  17.521
 3998POPC   GL159903   8.810  25.949  17.437
 3998POPC   GL259904   8.837  25.991  17.350
 3998POPC   C1A59905   8.823  25.768  17.353
 3998POPC   D2A59906   8.836  25.587  17.268
 3998POPC   C3A59907   8.849  25.406  17.184
 3998POPC   C4A59908   8.862  25.225  17.100
 3998POPC   C1B59909   9.015  25.757  17.406
 3998POPC   C2B59910   9.028  25.576  17.322
 3998POPC   C3B59911   9.041  25.395  17.238
 3998POPC   C4B59912   9.054  25.214  17.154
 3999POPC   NC359913  23.796   1.168   2.524
 3999POPC   PO459914  23.643   1.266   2.608
 3999POPC   GL159915  23.490   1.364   2.692
 3999POPC   GL259916  23.530   1.451   2.662
 3999POPC   C1A59917  23.337   1.462   2.776
 3999POPC   D2A59918  23.185   1.560   2.859
 3999POPC   C3A59919  23.032   1.658   2.943
 3999POPC   C4A59920  22.879   1.756   3.027
 3999POPC   C1B59921  23.235   1.450   2.604
 3999POPC   C2B59922  23.083   1.548   2.688
 3999POPC   C3B59923  22.930   1.646   2.772
 3999POPC   C4B59924  22.777   1.744   2.855
 4000POPC   NC359925   8.212  10.930  27.838
 4000POPC   PO459926   8.240  10.917  27.640
 4000POPC   GL159927   8.268  10.904  27.442
 4000POPC   GL259928   8.316  10.991  27.443
 4000POPC   C1A59929   8.296  10.890  27.245
 4000POPC   D2A59930   8.324  10.877  27.047
 4000POPC   C3A59931   8.352  10.863  26.850
 4000POPC   C4A59932   8.380  10.850  26.652
 4000POPC   C1B59933   8.469  10.795  27.276
 4000POPC   C2B59934   8.497  10.782  27.078
 4000POPC   C3B59935   8.525  10.768  26.881
 4000POPC   C4B59936   8.553  10.755  26.683
 4001POPC   NC359937   2.627  25.213   3.534
 4001POPC   PO459938   2.715  25.048   3.604
 4001POPC   GL159939   2.803  24.883   3.674
 4001POPC   GL259940   2.852  24.938   3.741
 4001POPC   C1A59941   2.890  24.717   3.745
 4001POPC   D2A59942   2.978  24.552   3.815
 4001POPC   C3A59943   3.065  24.386   3.886
 4001POPC   C4A59944   3.153  24.221   3.956
 4001POPC   C1B59945   2.741  24.693   3.875
 4001POPC   C2B59946   2.828  24.528   3.946
 4001POPC   C3B59947   2.916  24.363   4.016
 4001POPC   C4B59948   3.003  24.197   4.087
 4002POPC   NC359949  25.217  16.064   2.588
 4002POPC   PO459950  25.047  15.997   2.670
 4002POPC   GL159951  24.877  15.930   2.752
 4002POPC   GL259952  24.828  16.008   2.713
 4002POPC   C1A59953  24.708  15.863   2.834
 4002POPC   D2A59954  24.538  15.796   2.917
 4002POPC   C3A59955  24.369  15.729   2.999
 4002POPC   C4A59956  24.199  15.662   3.081
 4002POPC   C1B59957  24.670  15.756   2.669
 4002POPC   C2B59958  24.500  15.689   2.752
 4002POPC   C3B59959  24.331  15.622   2.834
 4002POPC   C4B59960  24.161  15.555   2.916
 4003POPC   NC359961  26.109   3.544  14.482
 4003POPC   PO459962  25.928   3.613  14.434
 4003POPC   GL159963  25.747   3.682  14.386
 4003POPC   GL259964  25.758   3.647  14.293
 4003POPC   C1A59965  25.565   3.751  14.337
 4003POPC   D2A59966  25.384   3.819  14.289
 4003POPC   C3A59967  25.202   3.888  14.240
 4003POPC   C4A59968  25.021   3.957  14.192
 4003POPC   C1B59969  25.484   3.576  14.393
 4003POPC   C2B59970  25.303   3.645  14.344
 4003POPC   C3B59971  25.122   3.714  14.296
 4003POPC   C4B59972  24.940   3.783  14.247
 4004POPC   NC359973  12.925  23.912  20.929
 4004POPC   PO459974  12.891  23.757  20.807
 4004POPC   GL159975  12.857  23.602  20.685
 4004POPC   GL259976  12.935  23.554  20.724
 4004POPC   C1A59977  12.823  23.448  20.563
 4004POPC   D2A59978  12.788  23.293  20.441
 4004POPC   C3A59979  12.754  23.139  20.319
 4004POPC   C4A59980  12.720  22.984  20.197
 4004POPC   C1B59981  12.703  23.365  20.701
 4004POPC   C2B59982  12.669  23.211  20.579
 4004POPC   C3B59983  12.635  23.056  20.457
 4004POPC   C4B59984  12.601  22.902  20.335
 4005POPC   NC359985  14.730  -6.257   3.726
 4005POPC   PO459986  14.669  -6.078   3.792
 4005POPC   GL159987  14.608  -5.899   3.858
 4005POPC   GL259988  14.688  -5.856   3.816
 4005POPC   C1A59989  14.547  -5.721   3.924
 4005POPC   D2A59990  14.486  -5.542   3.991
 4005POPC   C3A59991  14.425  -5.364   4.057
 4005POPC   C4A59992  14.364  -5.185   4.123
 4005POPC   C1B59993  14.443  -5.694   3.756
 4005POPC   C2B59994  14.382  -5.515   3.822
 4005POPC   C3B59995  14.321  -5.337   3.888
 4005POPC   C4B59996  14.260  -5.158   3.955
 4006POPC   NC359997   5.080  -3.862  20.500
 4006POPC   PO459998   5.134  -3.710  20.382
 4006POPC   GL159999   5.188  -3.558  20.264
 4006POPC   GL260000   5.262  -3.614  20.226
 4006POPC   C1A60001   5.242  -3.406  20.146
 4006POPC   D2A60002   5.296  -3.253  20.028
 4006POPC   C3A60003   5.350  -3.101  19.910
 4006POPC   C4A60004   5.404  -2.949  19.792
 4006POPC   C1B60005   5.118  -3.472  20.004
 4006POPC   C2B60006   5.172  -3.320  19.886
 4006POPC   C3B60007   5.226  -3.168  19.768
 4006POPC   C4B60008   5.280  -3.016  19.650
 4007POPC   NC360009  23.293  21.934   8.048
 4007POPC   PO460010  23.140  21.807   8.073
 4007POPC   GL160011  22.987  21.680   8.098
 4007POPC   GL260012  22.962  21.691   8.002
 4007POPC   C1A60013  22.835  21.553   8.123
 4007POPC   D2A60014  22.682  21.426   8.148
 4007POPC   C3A60015  22.530  21.299   8.173
 4007POPC   C4A60016  22.377  21.172   8.198
 4007POPC   C1B60017  22.954  21.400   8.074
 4007POPC   C2B60018  22.801  21.273   8.099
 4007POPC   C3B60019  22.649  21.146   8.124
 4007POPC   C4B60020  22.496  21.019   8.149
 4008POPC   NC360021  -7.144   6.434  14.815
 4008POPC   PO460022  -6.954   6.474  14.765
 4008POPC   GL160023  -6.764   6.514  14.715
 4008POPC   GL260024  -6.740   6.517  14.812
 4008POPC   C1A60025  -6.575   6.554  14.666
 4008POPC   D2A60026  -6.385   6.595  14.616
 4008POPC   C3A60027  -6.196   6.635  14.567
 4008POPC   C4A60028  -6.006   6.675  14.517
 4008POPC   C1B60029  -6.535   6.359  14.661
 4008POPC   C2B60030  -6.345   6.399  14.611
 4008POPC   C3B60031  -6.155   6.439  14.562
 4008POPC   C4B60032  -5.966   6.479  14.512
 4009POPC   NC360033   1.602   0.124  -2.636
 4009POPC   PO460034   1.694   0.236  -2.498
 4009POPC   GL160035   1.786   0.348  -2.360
 4009POPC   GL260036   1.723   0.313  -2.290
 4009POPC   C1A60037   1.878   0.460  -2.222
 4009POPC   D2A60038   1.969   0.571  -2.084
 4009POPC   C3A60039   2.061   0.683  -1.946
 4009POPC   C4A60040   2.153   0.795  -1.808
 4009POPC   C1B60041   2.003   0.309  -2.184
 4009POPC   C2B60042   2.095   0.421  -2.046
 4009POPC   C3B60043   2.187   0.533  -1.908
 4009POPC   C4B60044   2.279   0.644  -1.770
 4010POPC   NC360045  -3.719   3.228   0.033
 4010POPC   PO460046  -3.572   3.301   0.147
 4010POPC   GL160047  -3.425   3.374   0.261
 4010POPC   GL260048  -3.416   3.286   0.306
 4010POPC   C1A60049  -3.278   3.448   0.375
 4010POPC   D2A60050  -3.130   3.521   0.488
 4010POPC   C3A60051  -2.983   3.595   0.602
 4010POPC   C4A60052  -2.836   3.668   0.716
 4010POPC   C1B60053  -3.144   3.391   0.237
 4010POPC   C2B60054  -2.996   3.465   0.351
 4010POPC   C3B60055  -2.849   3.538   0.465
 4010POPC   C4B60056  -2.702   3.612   0.579
 4011POPC   NC360057  -4.340  17.427   1.696
 4011POPC   PO460058  -4.180  17.345   1.783
 4011POPC   GL160059  -4.020  17.263   1.870
 4011POPC   GL260060  -4.017  17.338   1.936
 4011POPC   C1A60061  -3.860  17.181   1.958
 4011POPC   D2A60062  -3.700  17.099   2.045
 4011POPC   C3A60063  -3.540  17.017   2.133
 4011POPC   C4A60064  -3.380  16.935   2.220
 4011POPC   C1B60065  -3.980  17.078   2.081
 4011POPC   C2B60066  -3.820  16.996   2.168
 4011POPC   C3B60067  -3.660  16.914   2.256
 4011POPC   C4B60068  -3.500  16.832   2.343
 4012POPC   NC360069   1.069  10.644  25.745
 4012POPC   PO460070   1.164  10.631  25.570
 4012POPC   GL160071   1.259  10.618  25.395
 4012POPC   GL260072   1.302  10.707  25.411
 4012POPC   C1A60073   1.355  10.604  25.220
 4012POPC   D2A60074   1.450  10.591  25.044
 4012POPC   C3A60075   1.546  10.577  24.869
 4012POPC   C4A60076   1.641  10.564  24.694
 4012POPC   C1B60077   1.509  10.514  25.310
 4012POPC   C2B60078   1.604  10.500  25.135
 4012POPC   C3B60079   1.699  10.487  24.960
 4012POPC   C4B60080   1.795  10.474  24.785
 4013POPC   NC360081  11.985  25.372   0.741
 4013POPC   PO460082  11.958  25.201   0.841
 4013POPC   GL160083  11.931  25.030   0.941
 4013POPC   GL260084  12.019  24.997   0.908
 4013POPC   C1A60085  11.904  24.859   1.041
 4013POPC   D2A60086  11.878  24.688   1.141
 4013POPC   C3A60087  11.851  24.517   1.241
 4013POPC   C4A60088  11.824  24.346   1.341
 4013POPC   C1B60089  11.995  24.938   1.201
 4013POPC   C2B60090  11.968  24.767   1.301
 4013POPC   C3B60091  11.941  24.596   1.401
 4013POPC   C4B60092  11.915  24.425   1.501
 4014POPC   NC360093   1.240  -0.249  22.053
 4014POPC   PO460094   1.340  -0.138  21.920
 4014POPC   GL160095   1.440  -0.027  21.787
 4014POPC   GL260096   1.517  -0.022  21.849
 4014POPC   C1A60097   1.540   0.083  21.653
 4014POPC   D2A60098   1.639   0.194  21.520
 4014POPC   C3A60099   1.739   0.304  21.386
 4014POPC   C4A60100   1.839   0.415  21.253
 4014POPC   C1B60101   1.617  -0.083  21.573
 4014POPC   C2B60102   1.717   0.028  21.440
 4014POPC   C3B60103   1.816   0.138  21.306
 4014POPC   C4B60104   1.916   0.249  21.173
 4015POPC   NC360105  -7.787   9.383   6.336
 4015POPC   PO460106  -7.592   9.384   6.381
 4015POPC   GL160107  -7.397   9.385   6.426
 4015POPC   GL260108  -7.417   9.339   6.512
 4015POPC   C1A60109  -7.202   9.387   6.471
 4015POPC   D2A60110  -7.008   9.388   6.516
 4015POPC   C3A60111  -6.813   9.390   6.561
 4015POPC   C4A60112  -6.618   9.391   6.606
 4015POPC   C1B60113  -7.180   9.210   6.380
 4015POPC   C2B60114  -6.985   9.212   6.425
 4015POPC   C3B60115  -6.791   9.213   6.470
 4015POPC   C4B60116  -6.596   9.214   6.515
 4016POPC   NC360117  -2.864  -2.462  13.014
 4016POPC   PO460118  -2.725  -2.323  12.981
 4016POPC   GL160119  -2.586  -2.184  12.948
 4016POPC   GL260120  -2.534  -2.216  13.026
 4016POPC   C1A60121  -2.446  -2.044  12.914
 4016POPC   D2A60122  -2.307  -1.905  12.881
 4016POPC   C3A60123  -2.167  -1.765  12.847
 4016POPC   C4A60124  -2.028  -1.626  12.814
 4016POPC   C1B60125  -2.347  -2.172  12.796
 4016POPC   C2B60126  -2.208  -2.032  12.763
 4016POPC   C3B60127  -2.068  -1.893  12.729
 4016POPC   C4B60128  -1.929  -1.753  12.696
 4017POPC   NC360129  17.941  25.762   6.779
 4017POPC   PO460130  17.852  25.586   6.810
 4017POPC   GL160131  17.763  25.410   6.841
 4017POPC   GL260132  17.844  25.362   6.806
 4017POPC   C1A60133  17.674  25.233   6.873
 4017POPC   D2A60134  17.585  25.057   6.904
 4017POPC   C3A60135  17.496  24.880   6.936
 4017POPC   C4A60136  17.407  24.704   6.967
 4017POPC   C1B60137  17.751  25.227   7.057
 4017POPC   C2B60138  17.662  25.051   7.088
 4017POPC   C3B60139  17.573  24.874   7.120
 4017POPC   C4B60140  17.484  24.698   7.151
 4018POPC   NC360141   9.039  15.406  27.120
 4018POPC   PO460142   9.044  15.344  26.930
 4018POPC   GL160143   9.049  15.282  26.740
 4018POPC   GL260144   9.099  15.199  26.768
 4018POPC   C1A60145   9.054  15.219  26.550
 4018POPC   D2A60146   9.060  15.157  26.360
 4018POPC   C3A60147   9.065  15.094  26.170
 4018POPC   C4A60148   9.070  15.032  25.980
 4018POPC   C1B60149   8.881  15.124  26.576
 4018POPC   C2B60150   8.886  15.062  26.386
 4018POPC   C3B60151   8.891  14.999  26.196
 4018POPC   C4B60152   8.896  14.937  26.006
 4019POPC   NC360153  21.788   7.470  -3.408
 4019POPC   PO460154  21.657   7.496  -3.259
 4019POPC   GL160155  21.526   7.522  -3.110
 4019POPC   GL260156  21.461   7.563  -3.174
 4019POPC   C1A60157  21.396   7.548  -2.961
 4019POPC   D2A60158  21.265   7.573  -2.811
 4019POPC   C3A60159  21.135   7.599  -2.662
 4019POPC   C4A60160  21.004   7.625  -2.513
 4019POPC   C1B60161  21.318   7.367  -2.998
 4019POPC   C2B60162  21.187   7.393  -2.848
 4019POPC   C3B60163  21.057   7.419  -2.699
 4019POPC   C4B60164  20.926   7.445  -2.550
 4020POPC   NC360165  19.169  -3.478  17.605
 4020POPC   PO460166  19.063  -3.330  17.522
 4020POPC   GL160167  18.957  -3.182  17.439
 4020POPC   GL260168  19.037  -3.122  17.445
 4020POPC   C1A60169  18.852  -3.033  17.356
 4020POPC   D2A60170  18.746  -2.885  17.274
 4020POPC   C3A60171  18.641  -2.736  17.191
 4020POPC   C4A60172  18.535  -2.588  17.108
 4020POPC   C1B60173  18.911  -3.093  17.175
 4020POPC   C2B60174  18.805  -2.944  17.092
 4020POPC   C3B60175  18.699  -2.796  17.009
 4020POPC   C4B60176  18.594  -2.647  16.926
 4021POPC   NC360177  27.804   9.334  10.915
 4021POPC   PO460178  27.604   9.340  10.906
 4021POPC   GL160179  27.404   9.346  10.897
 4021POPC   GL260180  27.410   9.408  10.818
 4021POPC   C1A60181  27.205   9.353  10.888
 4021POPC   D2A60182  27.005   9.359  10.878
 4021POPC   C3A60183  26.806   9.366  10.869
 4021POPC   C4A60184  26.606   9.372  10.860
 4021POPC   C1B60185  27.205   9.196  10.764
 4021POPC   C2B60186  27.006   9.202  10.754
 4021POPC   C3B60187  26.806   9.209  10.745
 4021POPC   C4B60188  26.607   9.215  10.736
 4022POPC   NC360189  -5.405   3.976   2.227
 4022POPC   PO460190  -5.235   4.042   2.310
 4022POPC   GL160191  -5.065   4.108   2.393
 4022POPC   GL260192  -5.118   4.154   2.464
 4022POPC   C1A60193  -4.895   4.173   2.476
 4022POPC   D2A60194  -4.726   4.239   2.558
 4022POPC   C3A60195  -4.556   4.304   2.641
 4022POPC   C4A60196  -4.386   4.370   2.724
 4022POPC   C1B60197  -4.887   4.008   2.588
 4022POPC   C2B60198  -4.717   4.074   2.671
 4022POPC   C3B60199  -4.547   4.139   2.754
 4022POPC   C4B60200  -4.377   4.205   2.837
 4023POPC   NC360201   8.912  -5.533  19.134
 4023POPC   PO460202   8.923  -5.362  19.032
 4023POPC   GL160203   8.934  -5.191  18.930
 4023POPC   GL260204   8.999  -5.233  18.866
 4023POPC   C1A60205   8.945  -5.019  18.827
 4023POPC   D2A60206   8.957  -4.848  18.725
 4023POPC   C3A60207   8.968  -4.676  18.622
 4023POPC   C4A60208   8.979  -4.505  18.520
 4023POPC   C1B60209   8.793  -5.078  18.712
 4023POPC   C2B60210   8.804  -4.907  18.609
 4023POPC   C3B60211   8.815  -4.735  18.507
 4023POPC   C4B60212   8.827  -4.564  18.405
 4024POPC   NC360213  26.010   2.136  11.867
 4024POPC   PO460214  25.831   2.222  11.846
 4024POPC   GL160215  25.652   2.308  11.825
 4024POPC   GL260216  25.690   2.371  11.758
 4024POPC   C1A60217  25.472   2.394  11.804
 4024POPC   D2A60218  25.293   2.480  11.783
 4024POPC   C3A60219  25.113   2.566  11.762
 4024POPC   C4A60220  24.934   2.652  11.741
 4024POPC   C1B60221  25.427   2.265  11.658
 4024POPC   C2B60222  25.248   2.351  11.637
 4024POPC   C3B60223  25.069   2.437  11.616
 4024POPC   C4B60224  24.889   2.523  11.595
 4025POPC   NC360225   4.555  20.528  -3.800
 4025POPC   PO460226   4.611  20.411  -3.648
 4025POPC   GL160227   4.667  20.294  -3.496
 4025POPC   GL260228   4.750  20.268  -3.546
 4025POPC   C1A60229   4.723  20.176  -3.344
 4025POPC   D2A60230   4.779  20.059  -3.193
 4025POPC   C3A60231   4.835  19.941  -3.041
 4025POPC   C4A60232   4.891  19.824  -2.889
 4025POPC   C1B60233   4.820  20.330  -3.261
 4025POPC   C2B60234   4.876  20.213  -3.109
 4025POPC   C3B60235   4.932  20.095  -2.958
 4025POPC   C4B60236   4.988  19.978  -2.806
 4026POPC   NC360237  14.796  22.529  21.942
 4026POPC   PO460238  14.746  22.386  21.811
 4026POPC   GL160239  14.696  22.243  21.680
 4026POPC   GL260240  14.708  22.174  21.751
 4026POPC   C1A60241  14.645  22.100  21.550
 4026POPC   D2A60242  14.595  21.958  21.419
 4026POPC   C3A60243  14.544  21.815  21.289
 4026POPC   C4A60244  14.494  21.672  21.158
 4026POPC   C1B60245  14.453  22.120  21.602
 4026POPC   C2B60246  14.403  21.978  21.472
 4026POPC   C3B60247  14.352  21.835  21.341
 4026POPC   C4B60248  14.302  21.692  21.210
 4027POPC   NC360249  -5.229  10.079  19.811
 4027POPC   PO460250  -5.064  10.076  19.698
 4027POPC   GL160251  -4.899  10.073  19.585
 4027POPC   GL260252  -4.854  10.013  19.652
 4027POPC   C1A60253  -4.734  10.070  19.472
 4027POPC   D2A60254  -4.568  10.066  19.360
 4027POPC   C3A60255  -4.403  10.063  19.247
 4027POPC   C4A60256  -4.238  10.060  19.134
 4027POPC   C1B60257  -4.803   9.909  19.375
 4027POPC   C2B60258  -4.638   9.906  19.263
 4027POPC   C3B60259  -4.472   9.903  19.150
 4027POPC   C4B60260  -4.307   9.899  19.037
 4028POPC   NC360261  27.401  14.336   9.673
 4028POPC   PO460262  27.207  14.289   9.675
 4028POPC   GL160263  27.013  14.242   9.677
 4028POPC   GL260264  27.024  14.191   9.591
 4028POPC   C1A60265  26.818  14.195   9.678
 4028POPC   D2A60266  26.624  14.147   9.680
 4028POPC   C3A60267  26.429  14.100   9.681
 4028POPC   C4A60268  26.235  14.053   9.683
 4028POPC   C1B60269  26.859  14.029   9.782
 4028POPC   C2B60270  26.665  13.981   9.783
 4028POPC   C3B60271  26.471  13.934   9.785
 4028POPC   C4B60272  26.276  13.887   9.787
 4029POPC   NC360273  -8.136  10.519  11.641
 4029POPC   PO460274  -7.937  10.515  11.620
 4029POPC   GL160275  -7.738  10.511  11.599
 4029POPC   GL260276  -7.731  10.598  11.649
 4029POPC   C1A60277  -7.539  10.507  11.579
 4029POPC   D2A60278  -7.341  10.503  11.558
 4029POPC   C3A60279  -7.142  10.499  11.538
 4029POPC   C4A60280  -6.943  10.495  11.517
 4029POPC   C1B60281  -7.523  10.407  11.751
 4029POPC   C2B60282  -7.325  10.403  11.731
 4029POPC   C3B60283  -7.126  10.399  11.710
 4029POPC   C4B60284  -6.927  10.395  11.690
 4030POPC   NC360285  21.733   7.150  -3.392
 4030POPC   PO460286  21.604   7.183  -3.242
 4030POPC   GL160287  21.475   7.216  -3.092
 4030POPC   GL260288  21.410   7.256  -3.157
 4030POPC   C1A60289  21.347   7.249  -2.943
 4030POPC   D2A60290  21.218   7.282  -2.793
 4030POPC   C3A60291  21.090   7.315  -2.644
 4030POPC   C4A60292  20.961   7.348  -2.494
 4030POPC   C1B60293  21.266   7.069  -2.973
 4030POPC   C2B60294  21.137   7.102  -2.823
 4030POPC   C3B60295  21.008   7.135  -2.674
 4030POPC   C4B60296  20.880   7.168  -2.524
 4031POPC   NC360297   7.865   6.535  27.526
 4031POPC   PO460298   7.889   6.575  27.331
 4031POPC   GL160299   7.913   6.615  27.136
 4031POPC   GL260300   8.012   6.610  27.148
 4031POPC   C1A60301   7.937   6.655  26.942
 4031POPC   D2A60302   7.961   6.694  26.747
 4031POPC   C3A60303   7.985   6.734  26.553
 4031POPC   C4A60304   8.009   6.774  26.358
 4031POPC   C1B60305   7.931   6.459  26.901
 4031POPC   C2B60306   7.955   6.499  26.706
 4031POPC   C3B60307   7.979   6.538  26.512
 4031POPC   C4B60308   8.003   6.578  26.317
 4032POPC   NC360309   3.011  -0.379  -3.096
 4032POPC   PO460310   3.095  -0.265  -2.955
 4032POPC   GL160311   3.179  -0.151  -2.814
 4032POPC   GL260312   3.269  -0.187  -2.838
 4032POPC   C1A60313   3.262  -0.037  -2.673
 4032POPC   D2A60314   3.346   0.078  -2.531
 4032POPC   C3A60315   3.429   0.192  -2.390
 4032POPC   C4A60316   3.513   0.306  -2.249
 4032POPC   C1B60317   3.287   0.110  -2.806
 4032POPC   C2B60318   3.370   0.225  -2.665
 4032POPC   C3B60319   3.454   0.339  -2.524
 4032POPC   C4B60320   3.537   0.453  -2.382
 4033POPC   NC360321   7.940  11.956  -7.914
 4033POPC   PO460322   7.961  11.936  -7.716
 4033POPC   GL160323   7.982  11.916  -7.518
 4033POPC   GL260324   7.913  11.988  -7.504
 4033POPC   C1A60325   8.003  11.897  -7.320
 4033POPC   D2A60326   8.023  11.877  -7.122
 4033POPC   C3A60327   8.044  11.858  -6.924
 4033POPC   C4A60328   8.065  11.838  -6.726
 4033POPC   C1B60329   7.859  11.758  -7.319
 4033POPC   C2B60330   7.879  11.738  -7.121
 4033POPC   C3B60331   7.900  11.719  -6.923
 4033POPC   C4B60332   7.921  11.699  -6.725
 4034POPC   NC360333  18.736  -3.933  17.309
 4034POPC   PO460334  18.635  -3.779  17.230
 4034POPC   GL160335  18.534  -3.625  17.151
 4034POPC   GL260336  18.610  -3.564  17.173
 4034POPC   C1A60337  18.433  -3.472  17.072
 4034POPC   D2A60338  18.333  -3.318  16.993
 4034POPC   C3A60339  18.232  -3.165  16.914
 4034POPC   C4A60340  18.131  -3.011  16.835
 4034POPC   C1B60341  18.515  -3.510  16.894
 4034POPC   C2B60342  18.414  -3.356  16.815
 4034POPC   C3B60343  18.314  -3.203  16.736
 4034POPC   C4B60344  18.213  -3.049  16.657
 4035POPC   NC360345  -5.912  18.365   7.095
 4035POPC   PO460346  -5.736  18.277   7.131
 4035POPC   GL160347  -5.560  18.189   7.167
 4035POPC   GL260348  -5.606  18.117   7.219
 4035POPC   C1A60349  -5.384  18.101   7.203
 4035POPC   D2A60350  -5.208  18.014   7.240
 4035POPC   C3A60351  -5.032  17.926   7.276
 4035POPC   C4A60352  -4.856  17.838   7.312
 4035POPC   C1B60353  -5.403  17.994   7.036
 4035POPC   C2B60354  -5.227  17.906   7.072
 4035POPC   C3B60355  -5.051  17.819   7.108
 4035POPC   C4B60356  -4.875  17.731   7.144
 4036POPC   NC360357  16.463  -1.297  -2.535
 4036POPC   PO460358  16.393  -1.169  -2.398
 4036POPC   GL160359  16.323  -1.041  -2.261
 4036POPC   GL260360  16.287  -0.983  -2.334
 4036POPC   C1A60361  16.254  -0.913  -2.124
 4036POPC   D2A60362  16.184  -0.784  -1.988
 4036POPC   C3A60363  16.115  -0.656  -1.851
 4036POPC   C4A60364  16.045  -0.528  -1.714
 4036POPC   C1B60365  16.081  -1.013  -2.118
 4036POPC   C2B60366  16.012  -0.885  -1.981
 4036POPC   C3B60367  15.942  -0.757  -1.844
 4036POPC   C4B60368  15.872  -0.629  -1.707
 4037POPC   NC360369  16.750  17.441  -4.999
 4037POPC   PO460370  16.674  17.357  -4.834
 4037POPC   GL160371  16.598  17.273  -4.669
 4037POPC   GL260372  16.631  17.184  -4.700
 4037POPC   C1A60373  16.523  17.189  -4.504
 4037POPC   D2A60374  16.447  17.106  -4.339
 4037POPC   C3A60375  16.372  17.022  -4.174
 4037POPC   C4A60376  16.296  16.938  -4.009
 4037POPC   C1B60377  16.696  17.220  -4.409
 4037POPC   C2B60378  16.621  17.136  -4.244
 4037POPC   C3B60379  16.545  17.052  -4.079
 4037POPC   C4B60380  16.469  16.968  -3.914
 4038POPC   NC360381  12.176  22.013  -3.313
 4038POPC   PO460382  12.156  21.881  -3.164
 4038POPC   GL160383  12.136  21.749  -3.015
 4038POPC   GL260384  12.224  21.778  -2.978
 4038POPC   C1A60385  12.116  21.617  -2.866
 4038POPC   D2A60386  12.096  21.485  -2.718
 4038POPC   C3A60387  12.076  21.353  -2.569
 4038POPC   C4A60388  12.056  21.221  -2.420
 4038POPC   C1B60389  12.024  21.756  -2.756
 4038POPC   C2B60390  12.004  21.624  -2.607
 4038POPC   C3B60391  11.984  21.492  -2.458
 4038POPC   C4B60392  11.964  21.360  -2.309
 4039POPC   NC360393   2.411  -6.305  12.110
 4039POPC   PO460394   2.494  -6.124  12.086
 4039POPC   GL160395   2.577  -5.943  12.062
 4039POPC   GL260396   2.619  -5.951  12.153
 4039POPC   C1A60397   2.660  -5.763  12.039
 4039POPC   D2A60398   2.742  -5.582  12.015
 4039POPC   C3A60399   2.825  -5.402  11.992
 4039POPC   C4A60400   2.908  -5.221  11.968
 4039POPC   C1B60401   2.821  -5.848  11.957
 4039POPC   C2B60402   2.904  -5.667  11.933
 4039POPC   C3B60403   2.987  -5.486  11.910
 4039POPC   C4B60404   3.070  -5.306  11.886
 4040POPC   NC360405  27.567  11.007  13.075
 4040POPC   PO460406  27.370  10.996  13.045
 4040POPC   GL160407  27.173  10.985  13.015
 4040POPC   GL260408  27.181  11.047  12.937
 4040POPC   C1A60409  26.975  10.974  12.984
 4040POPC   D2A60410  26.778  10.962  12.954
 4040POPC   C3A60411  26.580  10.951  12.923
 4040POPC   C4A60412  26.383  10.940  12.893
 4040POPC   C1B60413  27.003  10.818  12.862
 4040POPC   C2B60414  26.805  10.806  12.832
 4040POPC   C3B60415  26.608  10.795  12.801
 4040POPC   C4B60416  26.411  10.784  12.771
 4041POPC   NC360417  -7.629   9.681   5.676
 4041POPC   PO460418  -7.435   9.681   5.725
 4041POPC   GL160419  -7.241   9.681   5.774
 4041POPC   GL260420  -7.262   9.628   5.856
 4041POPC   C1A60421  -7.047   9.680   5.823
 4041POPC   D2A60422  -6.853   9.680   5.872
 4041POPC   C3A60423  -6.659   9.679   5.921
 4041POPC   C4A60424  -6.465   9.679   5.970
 4041POPC   C1B60425  -7.022   9.510   5.721
 4041POPC   C2B60426  -6.828   9.510   5.770
 4041POPC   C3B60427  -6.634   9.509   5.819
 4041POPC   C4B60428  -6.440   9.509   5.868
 4042POPC   NC360429  -3.836  14.712  -0.971
 4042POPC   PO460430  -3.686  14.659  -0.850
 4042POPC   GL160431  -3.536  14.606  -0.729
 4042POPC   GL260432  -3.491  14.694  -0.746
 4042POPC   C1A60433  -3.386  14.553  -0.608
 4042POPC   D2A60434  -3.236  14.499  -0.486
 4042POPC   C3A60435  -3.086  14.446  -0.365
 4042POPC   C4A60436  -2.936  14.393  -0.244
 4042POPC   C1B60437  -3.483  14.632  -0.452
 4042POPC   C2B60438  -3.333  14.579  -0.331
 4042POPC   C3B60439  -3.183  14.526  -0.210
 4042POPC   C4B60440  -3.033  14.473  -0.088
 4043POPC   NC360441   4.764  18.861  24.853
 4043POPC   PO460442   4.820  18.758  24.691
 4043POPC   GL160443   4.876  18.655  24.529
 4043POPC   GL260444   4.919  18.586  24.587
 4043POPC   C1A60445   4.931  18.552  24.367
 4043POPC   D2A60446   4.987  18.449  24.204
 4043POPC   C3A60447   5.042  18.346  24.042
 4043POPC   C4A60448   5.098  18.243  23.880
 4043POPC   C1B60449   4.760  18.449  24.373
 4043POPC   C2B60450   4.815  18.346  24.211
 4043POPC   C3B60451   4.871  18.243  24.049
 4043POPC   C4B60452   4.927  18.140  23.887
 4044POPC   NC360453   0.610   3.252  23.807
 4044POPC   PO460454   0.718   3.325  23.655
 4044POPC   GL160455   0.826   3.398  23.503
 4044POPC   GL260456   0.857   3.305  23.481
 4044POPC   C1A60457   0.934   3.470  23.351
 4044POPC   D2A60458   1.043   3.543  23.200
 4044POPC   C3A60459   1.151   3.615  23.048
 4044POPC   C4A60460   1.259   3.688  22.896
 4044POPC   C1B60461   0.778   3.447  23.229
 4044POPC   C2B60462   0.886   3.520  23.077
 4044POPC   C3B60463   0.994   3.593  22.925
 4044POPC   C4B60464   1.103   3.665  22.774
 4045POPC   NC360465  16.865  25.884  14.881
 4045POPC   PO460466  16.790  25.708  14.822
 4045POPC   GL160467  16.715  25.532  14.763
 4045POPC   GL260468  16.764  25.540  14.677
 4045POPC   C1A60469  16.640  25.356  14.704
 4045POPC   D2A60470  16.565  25.181  14.646
 4045POPC   C3A60471  16.490  25.005  14.587
 4045POPC   C4A60472  16.415  24.829  14.528
 4045POPC   C1B60473  16.797  25.262  14.785
 4045POPC   C2B60474  16.722  25.087  14.726
 4045POPC   C3B60475  16.647  24.911  14.667
 4045POPC   C4B60476  16.572  24.735  14.608
 4046POPC   NC360477  -1.939  13.609  -3.215
 4046POPC   PO460478  -1.811  13.574  -3.065
 4046POPC   GL160479  -1.683  13.539  -2.915
 4046POPC   GL260480  -1.757  13.553  -2.849
 4046POPC   C1A60481  -1.555  13.504  -2.765
 4046POPC   D2A60482  -1.428  13.469  -2.616
 4046POPC   C3A60483  -1.300  13.434  -2.466
 4046POPC   C4A60484  -1.172  13.399  -2.316
 4046POPC   C1B60485  -1.599  13.309  -2.774
 4046POPC   C2B60486  -1.471  13.274  -2.624
 4046POPC   C3B60487  -1.343  13.239  -2.474
 4046POPC   C4B60488  -1.216  13.204  -2.324
 4047POPC   NC360489   9.514  25.030  19.966
 4047POPC   PO460490   9.518  24.864  19.854
 4047POPC   GL160491   9.522  24.698  19.742
 4047POPC   GL260492   9.566  24.749  19.668
 4047POPC   C1A60493   9.526  24.533  19.630
 4047POPC   D2A60494   9.531  24.367  19.518
 4047POPC   C3A60495   9.535  24.202  19.406
 4047POPC   C4A60496   9.539  24.036  19.294
 4047POPC   C1B60497   9.706  24.487  19.705
 4047POPC   C2B60498   9.710  24.321  19.593
 4047POPC   C3B60499   9.714  24.156  19.481
 4047POPC   C4B60500   9.719  23.990  19.369
 4048POPC   NC360501   5.041   3.464  26.026
 4048POPC   PO460502   5.082   3.534  25.843
 4048POPC   GL160503   5.123   3.604  25.660
 4048POPC   GL260504   5.124   3.698  25.696
 4048POPC   C1A60505   5.165   3.674  25.478
 4048POPC   D2A60506   5.206   3.745  25.295
 4048POPC   C3A60507   5.248   3.815  25.113
 4048POPC   C4A60508   5.289   3.885  24.930
 4048POPC   C1B60509   5.360   3.658  25.516
 4048POPC   C2B60510   5.402   3.728  25.333
 4048POPC   C3B60511   5.443   3.798  25.151
 4048POPC   C4B60512   5.485   3.868  24.968
 4049POPC   NC360513  -2.702  22.781  12.344
 4049POPC   PO460514  -2.561  22.641  12.319
 4049POPC   GL160515  -2.420  22.501  12.294
 4049POPC   GL260516  -2.362  22.548  12.360
 4049POPC   C1A60517  -2.279  22.362  12.269
 4049POPC   D2A60518  -2.138  22.222  12.243
 4049POPC   C3A60519  -1.997  22.083  12.218
 4049POPC   C4A60520  -1.856  21.943  12.193
 4049POPC   C1B60521  -2.359  22.254  12.417
 4049POPC   C2B60522  -2.218  22.114  12.391
 4049POPC   C3B60523  -2.077  21.975  12.366
 4049POPC   C4B60524  -1.936  21.835  12.341
 4050POPC   NC360525  15.215  25.244  17.928
 4050POPC   PO460526  15.154  25.075  17.839
 4050POPC   GL160527  15.093  24.906  17.750
 4050POPC   GL260528  15.141  24.853  17.819
 4050POPC   C1A60529  15.032  24.738  17.662
 4050POPC   D2A60530  14.971  24.569  17.573
 4050POPC   C3A60531  14.910  24.401  17.485
 4050POPC   C4A60532  14.849  24.232  17.396
 4050POPC   C1B60533  14.868  24.737  17.776
 4050POPC   C2B60534  14.807  24.569  17.687
 4050POPC   C3B60535  14.746  24.400  17.599
 4050POPC   C4B60536  14.685  24.231  17.510
 4051POPC   NC360537  26.165   5.328   3.639
 4051POPC   PO460538  25.983   5.377   3.706
 4051POPC   GL160539  25.801   5.426   3.773
 4051POPC   GL260540  25.767   5.428   3.679
 4051POPC   C1A60541  25.619   5.475   3.840
 4051POPC   D2A60542  25.437   5.523   3.908
 4051POPC   C3A60543  25.255   5.572   3.975
 4051POPC   C4A60544  25.073   5.621   4.042
 4051POPC   C1B60545  25.571   5.281   3.852
 4051POPC   C2B60546  25.389   5.329   3.919
 4051POPC   C3B60547  25.207   5.378   3.987
 4051POPC   C4B60548  25.025   5.427   4.054
 4052POPC   NC360549   2.513  24.988   3.161
 4052POPC   PO460550   2.601  24.825   3.235
 4052POPC   GL160551   2.689  24.662   3.309
 4052POPC   GL260552   2.738  24.718   3.376
 4052POPC   C1A60553   2.778  24.498   3.383
 4052POPC   D2A60554   2.866  24.335   3.458
 4052POPC   C3A60555   2.955  24.171   3.532
 4052POPC   C4A60556   3.043  24.008   3.606
 4052POPC   C1B60557   2.627  24.475   3.513
 4052POPC   C2B60558   2.715  24.312   3.587
 4052POPC   C3B60559   2.804  24.149   3.661
 4052POPC   C4B60560   2.892  23.985   3.735
 4053POPC   NC360561   7.670   5.173  -7.300
 4053POPC   PO460562   7.690   5.226  -7.108
 4053POPC   GL160563   7.710   5.279  -6.916
 4053POPC   GL260564   7.703   5.183  -6.889
 4053POPC   C1A60565   7.729   5.332  -6.724
 4053POPC   D2A60566   7.749   5.385  -6.533
 4053POPC   C3A60567   7.768   5.438  -6.341
 4053POPC   C4A60568   7.788   5.491  -6.149
 4053POPC   C1B60569   7.928   5.315  -6.740
 4053POPC   C2B60570   7.947   5.368  -6.548
 4053POPC   C3B60571   7.967   5.421  -6.356
 4053POPC   C4B60572   7.987   5.474  -6.165
 4054POPC   NC360573  -3.482  16.309  -0.554
 4054POPC   PO460574  -3.335  16.236  -0.440
 4054POPC   GL160575  -3.188  16.163  -0.326
 4054POPC   GL260576  -3.153  16.255  -0.311
 4054POPC   C1A60577  -3.041  16.090  -0.212
 4054POPC   D2A60578  -2.893  16.016  -0.098
 4054POPC   C3A60579  -2.746  15.943   0.016
 4054POPC   C4A60580  -2.599  15.870   0.130
 4054POPC   C1B60581  -3.157  16.107  -0.050
 4054POPC   C2B60582  -3.010  16.034   0.064
 4054POPC   C3B60583  -2.863  15.961   0.178
 4054POPC   C4B60584  -2.715  15.888   0.292
 4055POPC   NC360585   1.776  25.965  12.321
 4055POPC   PO460586   1.864  25.788  12.292
 4055POPC   GL160587   1.952  25.611  12.263
 4055POPC   GL260588   2.039  25.657  12.248
 4055POPC   C1A60589   2.040  25.433  12.235
 4055POPC   D2A60590   2.127  25.256  12.206
 4055POPC   C3A60591   2.215  25.078  12.178
 4055POPC   C4A60592   2.303  24.901  12.149
 4055POPC   C1B60593   2.080  25.422  12.430
 4055POPC   C2B60594   2.168  25.244  12.402
 4055POPC   C3B60595   2.256  25.067  12.373
 4055POPC   C4B60596   2.344  24.890  12.344
 4056POPC   NC360597  25.213  19.462  10.006
 4056POPC   PO460598  25.043  19.357  10.009
 4056POPC   GL160599  24.873  19.252  10.012
 4056POPC   GL260600  24.925  19.168  10.029
 4056POPC   C1A60601  24.703  19.147  10.014
 4056POPC   D2A60602  24.532  19.041  10.017
 4056POPC   C3A60603  24.362  18.936  10.019
 4056POPC   C4A60604  24.192  18.831  10.022
 4056POPC   C1B60605  24.686  19.178  10.211
 4056POPC   C2B60606  24.516  19.073  10.214
 4056POPC   C3B60607  24.346  18.967  10.216
 4056POPC   C4B60608  24.176  18.862  10.219
 4057POPC   NC360609  -4.325   1.595  17.336
 4057POPC   PO460610  -4.167   1.690  17.257
 4057POPC   GL160611  -4.009   1.785  17.178
 4057POPC   GL260612  -3.965   1.697  17.161
 4057POPC   C1A60613  -3.852   1.880  17.099
 4057POPC   D2A60614  -3.694   1.974  17.021
 4057POPC   C3A60615  -3.537   2.069  16.942
 4057POPC   C4A60616  -3.379   2.164  16.863
 4057POPC   C1B60617  -3.937   1.871  16.919
 4057POPC   C2B60618  -3.780   1.966  16.840
 4057POPC   C3B60619  -3.622   2.061  16.761
 4057POPC   C4B60620  -3.464   2.156  16.682
 4058POPC   NC360621   2.499  15.329  25.548
 4058POPC   PO460622   2.585  15.273  25.377
 4058POPC   GL160623   2.671  15.217  25.206
 4058POPC   GL260624   2.732  15.296  25.210
 4058POPC   C1A60625   2.757  15.160  25.034
 4058POPC   D2A60626   2.844  15.104  24.863
 4058POPC   C3A60627   2.930  15.047  24.691
 4058POPC   C4A60628   3.016  14.991  24.520
 4058POPC   C1B60629   2.891  15.053  25.137
 4058POPC   C2B60630   2.977  14.996  24.966
 4058POPC   C3B60631   3.064  14.940  24.794
 4058POPC   C4B60632   3.150  14.883  24.623
 4059POPC   NC360633  22.443  21.173  16.218
 4059POPC   PO460634  22.307  21.044  16.148
 4059POPC   GL160635  22.171  20.915  16.078
 4059POPC   GL260636  22.191  20.945  15.984
 4059POPC   C1A60637  22.035  20.787  16.007
 4059POPC   D2A60638  21.899  20.658  15.937
 4059POPC   C3A60639  21.763  20.530  15.866
 4059POPC   C4A60640  21.627  20.401  15.796
 4059POPC   C1B60641  22.176  20.645  15.993
 4059POPC   C2B60642  22.040  20.517  15.923
 4059POPC   C3B60643  21.904  20.388  15.852
 4059POPC   C4B60644  21.768  20.260  15.782
 4060POPC   NC360645  17.514   0.140  22.996
 4060POPC   PO460646  17.427   0.249  22.853
 4060POPC   GL160647  17.340   0.358  22.710
 4060POPC   GL260648  17.384   0.302  22.640
 4060POPC   C1A60649  17.254   0.468  22.567
 4060POPC   D2A60650  17.167   0.577  22.423
 4060POPC   C3A60651  17.081   0.687  22.280
 4060POPC   C4A60652  16.994   0.796  22.137
 4060POPC   C1B60653  17.097   0.344  22.567
 4060POPC   C2B60654  17.010   0.454  22.424
 4060POPC   C3B60655  16.923   0.563  22.281
 4060POPC   C4B60656  16.837   0.672  22.138
 4061POPC   NC360657  14.525  -3.317  -1.306
 4061POPC   PO460658  14.472  -3.170  -1.181
 4061POPC   GL160659  14.419  -3.023  -1.056
 4061POPC   GL260660  14.514  -3.012  -1.029
 4061POPC   C1A60661  14.366  -2.877  -0.931
 4061POPC   D2A60662  14.312  -2.730  -0.805
 4061POPC   C3A60663  14.259  -2.584  -0.680
 4061POPC   C4A60664  14.206  -2.437  -0.555
 4061POPC   C1B60665  14.391  -2.743  -1.077
 4061POPC   C2B60666  14.338  -2.596  -0.952
 4061POPC   C3B60667  14.285  -2.449  -0.826
 4061POPC   C4B60668  14.232  -2.303  -0.701
 4062POPC   NC360669  17.533  26.140   8.032
 4062POPC   PO460670  17.446  25.961   8.051
 4062POPC   GL160671  17.359  25.782   8.070
 4062POPC   GL260672  17.441  25.738   8.031
 4062POPC   C1A60673  17.273  25.602   8.088
 4062POPC   D2A60674  17.186  25.423   8.107
 4062POPC   C3A60675  17.100  25.243   8.125
 4062POPC   C4A60676  17.013  25.064   8.144
 4062POPC   C1B60677  17.350  25.584   8.272
 4062POPC   C2B60678  17.264  25.404   8.290
 4062POPC   C3B60679  17.177  25.225   8.309
 4062POPC   C4B60680  17.091  25.046   8.327
 4063POPC   NC360681  -5.615   7.853   0.894
 4063POPC   PO460682  -5.443   7.877   0.993
 4063POPC   GL160683  -5.271   7.901   1.092
 4063POPC   GL260684  -5.259   7.801   1.095
 4063POPC   C1A60685  -5.099   7.924   1.192
 4063POPC   D2A60686  -4.927   7.948   1.291
 4063POPC   C3A60687  -4.755   7.971   1.391
 4063POPC   C4A60688  -4.583   7.995   1.490
 4063POPC   C1B60689  -5.000   7.931   1.018
 4063POPC   C2B60690  -4.828   7.954   1.118
 4063POPC   C3B60691  -4.656   7.978   1.217
 4063POPC   C4B60692  -4.484   8.001   1.317
 4064POPC   NC360693  14.881  -6.724   5.330
 4064POPC   PO460694  14.820  -6.540   5.381
 4064POPC   GL160695  14.759  -6.356   5.432
 4064POPC   GL260696  14.854  -6.328   5.443
 4064POPC   C1A60697  14.698  -6.173   5.482
 4064POPC   D2A60698  14.638  -5.989   5.533
 4064POPC   C3A60699  14.577  -5.806   5.583
 4064POPC   C4A60700  14.516  -5.622   5.634
 4064POPC   C1B60701  14.704  -6.118   5.290
 4064POPC   C2B60702  14.643  -5.934   5.341
 4064POPC   C3B60703  14.583  -5.751   5.391
 4064POPC   C4B60704  14.522  -5.567   5.442
 4065POPC   NC360705   2.350  23.954  18.572
 4065POPC   PO460706   2.433  23.797  18.480
 4065POPC   GL160707   2.516  23.640  18.388
 4065POPC   GL260708   2.594  23.697  18.362
 4065POPC   C1A60709   2.598  23.483  18.296
 4065POPC   D2A60710   2.681  23.326  18.203
 4065POPC   C3A60711   2.763  23.169  18.111
 4065POPC   C4A60712   2.846  23.012  18.019
 4065POPC   C1B60713   2.691  23.432  18.465
 4065POPC   C2B60714   2.774  23.275  18.373
 4065POPC   C3B60715   2.856  23.118  18.281
 4065POPC   C4B60716   2.939  22.961  18.189
 4066POPC   NC360717  21.712   0.553   0.165
 4066POPC   PO460718  21.581   0.655   0.276
 4066POPC   GL160719  21.450   0.757   0.387
 4066POPC   GL260720  21.375   0.725   0.328
 4066POPC   C1A60721  21.319   0.859   0.498
 4066POPC   D2A60722  21.187   0.962   0.609
 4066POPC   C3A60723  21.056   1.064   0.720
 4066POPC   C4A60724  20.925   1.166   0.831
 4066POPC   C1B60725  21.294   0.700   0.616
 4066POPC   C2B60726  21.163   0.802   0.727
 4066POPC   C3B60727  21.032   0.904   0.838
 4066POPC   C4B60728  20.900   1.006   0.949
 4067POPC   NC360729  15.296  25.739  16.844
 4067POPC   PO460730  15.233  25.566  16.766
 4067POPC   GL160731  15.170  25.393  16.688
 4067POPC   GL260732  15.153  25.438  16.601
 4067POPC   C1A60733  15.108  25.219  16.611
 4067POPC   D2A60734  15.045  25.046  16.533
 4067POPC   C3A60735  14.983  24.872  16.456
 4067POPC   C4A60736  14.920  24.699  16.378
 4067POPC   C1B60737  15.295  25.178  16.552
 4067POPC   C2B60738  15.232  25.004  16.475
 4067POPC   C3B60739  15.169  24.831  16.397
 4067POPC   C4B60740  15.107  24.658  16.320
 4068POPC   NC360741   1.712  25.881  12.618
 4068POPC   PO460742   1.800  25.705  12.584
 4068POPC   GL160743   1.888  25.529  12.550
 4068POPC   GL260744   1.976  25.575  12.537
 4068POPC   C1A60745   1.976  25.352  12.516
 4068POPC   D2A60746   2.064  25.176  12.483
 4068POPC   C3A60747   2.152  24.999  12.449
 4068POPC   C4A60748   2.240  24.823  12.415
 4068POPC   C1B60749   2.014  25.334  12.712
 4068POPC   C2B60750   2.102  25.157  12.678
 4068POPC   C3B60751   2.190  24.981  12.644
 4068POPC   C4B60752   2.278  24.805  12.610
 4069POPC   NC360753  11.588  -7.919  11.341
 4069POPC   PO460754  11.574  -7.720  11.325
 4069POPC   GL160755  11.560  -7.521  11.309
 4069POPC   GL260756  11.653  -7.518  11.272
 4069POPC   C1A60757  11.545  -7.322  11.292
 4069POPC   D2A60758  11.531  -7.124  11.276
 4069POPC   C3A60759  11.516  -6.925  11.259
 4069POPC   C4A60760  11.502  -6.726  11.243
 4069POPC   C1B60761  11.474  -7.343  11.106
 4069POPC   C2B60762  11.460  -7.144  11.090
 4069POPC   C3B60763  11.445  -6.945  11.074
 4069POPC   C4B60764  11.431  -6.746  11.057
 4070POPC   NC360765   9.678  -7.486   5.287
 4070POPC   PO460766   9.686  -7.293   5.338
 4070POPC   GL160767   9.694  -7.100   5.389
 4070POPC   GL260768   9.793  -7.100   5.376
 4070POPC   C1A60769   9.701  -6.907   5.440
 4070POPC   D2A60770   9.709  -6.713   5.491
 4070POPC   C3A60771   9.716  -6.520   5.542
 4070POPC   C4A60772   9.724  -6.327   5.593
 4070POPC   C1B60773   9.677  -6.855   5.248
 4070POPC   C2B60774   9.685  -6.662   5.299
 4070POPC   C3B60775   9.692  -6.469   5.350
 4070POPC   C4B60776   9.700  -6.276   5.401
 4071POPC   NC360777  -6.558   9.242  17.373
 4071POPC   PO460778  -6.375   9.251  17.292
 4071POPC   GL160779  -6.192   9.260  17.211
 4071POPC   GL260780  -6.176   9.347  17.259
 4071POPC   C1A60781  -6.010   9.270  17.130
 4071POPC   D2A60782  -5.827   9.279  17.049
 4071POPC   C3A60783  -5.645   9.289  16.968
 4071POPC   C4A60784  -5.462   9.298  16.887
 4071POPC   C1B60785  -5.935   9.169  17.286
 4071POPC   C2B60786  -5.753   9.178  17.205
 4071POPC   C3B60787  -5.570   9.188  17.124
 4071POPC   C4B60788  -5.388   9.197  17.043
 4072POPC   NC360789  14.330  26.768  14.858
 4072POPC   PO460790  14.282  26.581  14.806
 4072POPC   GL160791  14.234  26.394  14.754
 4072POPC   GL260792  14.324  26.383  14.710
 4072POPC   C1A60793  14.187  26.207  14.702
 4072POPC   D2A60794  14.139  26.019  14.649
 4072POPC   C3A60795  14.092  25.832  14.597
 4072POPC   C4A60796  14.044  25.645  14.545
 4072POPC   C1B60797  14.264  26.139  14.874
 4072POPC   C2B60798  14.216  25.952  14.821
 4072POPC   C3B60799  14.168  25.765  14.769
 4072POPC   C4B60800  14.121  25.578  14.717
 4073POPC   NC360801  -2.482  13.887  22.487
 4073POPC   PO460802  -2.350  13.842  22.344
 4073POPC   GL160803  -2.218  13.797  22.201
 4073POPC   GL260804  -2.174  13.731  22.261
 4073POPC   C1A60805  -2.086  13.752  22.057
 4073POPC   D2A60806  -1.954  13.707  21.914
 4073POPC   C3A60807  -1.822  13.662  21.770
 4073POPC   C4A60808  -1.690  13.617  21.627
 4073POPC   C1B60809  -2.208  13.609  21.989
 4073POPC   C2B60810  -2.076  13.564  21.846
 4073POPC   C3B60811  -1.944  13.519  21.703
 4073POPC   C4B60812  -1.812  13.474  21.559
 4074POPC   NC360813  -0.892  17.631  -2.429
 4074POPC   PO460814  -0.774  17.548  -2.291
 4074POPC   GL160815  -0.656  17.465  -2.153
 4074POPC   GL260816  -0.592  17.541  -2.162
 4074POPC   C1A60817  -0.538  17.382  -2.014
 4074POPC   D2A60818  -0.419  17.299  -1.876
 4074POPC   C3A60819  -0.301  17.216  -1.737
 4074POPC   C4A60820  -0.183  17.133  -1.599
 4074POPC   C1B60821  -0.635  17.482  -1.871
 4074POPC   C2B60822  -0.517  17.399  -1.733
 4074POPC   C3B60823  -0.399  17.316  -1.594
 4074POPC   C4B60824  -0.281  17.233  -1.456
 4075POPC   NC360825  22.675  17.611  -0.297
 4075POPC   PO460826  22.532  17.525  -0.187
 4075POPC   GL160827  22.389  17.439  -0.077
 4075POPC   GL260828  22.377  17.369  -0.147
 4075POPC   C1A60829  22.246  17.353   0.034
 4075POPC   D2A60830  22.104  17.267   0.144
 4075POPC   C3A60831  21.961  17.181   0.255
 4075POPC   C4A60832  21.818  17.095   0.365
 4075POPC   C1B60833  22.384  17.240   0.124
 4075POPC   C2B60834  22.242  17.154   0.234
 4075POPC   C3B60835  22.099  17.068   0.345
 4075POPC   C4B60836  21.956  16.982   0.455
 4076POPC   NC360837   2.307  24.983   3.402
 4076POPC   PO460838   2.398  24.820   3.473
 4076POPC   GL160839   2.489  24.657   3.544
 4076POPC   GL260840   2.570  24.711   3.566
 4076POPC   C1A60841   2.580  24.494   3.615
 4076POPC   D2A60842   2.672  24.330   3.686
 4076POPC   C3A60843   2.763  24.167   3.757
 4076POPC   C4A60844   2.854  24.004   3.828
 4076POPC   C1B60845   2.506  24.531   3.797
 4076POPC   C2B60846   2.597  24.368   3.868
 4076POPC   C3B60847   2.689  24.205   3.939
 4076POPC   C4B60848   2.780  24.042   4.010
 4077POPC   NC360849  26.280  14.962  15.466
 4077POPC   PO460850  26.097  14.911  15.405
 4077POPC   GL160851  25.914  14.860  15.344
 4077POPC   GL260852  25.949  14.842  15.252
 4077POPC   C1A60853  25.730  14.810  15.282
 4077POPC   D2A60854  25.547  14.759  15.221
 4077POPC   C3A60855  25.363  14.709  15.159
 4077POPC   C4A60856  25.180  14.658  15.098
 4077POPC   C1B60857  25.765  14.620  15.333
 4077POPC   C2B60858  25.582  14.569  15.272
 4077POPC   C3B60859  25.399  14.519  15.211
 4077POPC   C4B60860  25.215  14.468  15.149
 4078POPC   NC360861   4.438  17.474  -5.573
 4078POPC   PO460862   4.499  17.392  -5.401
 4078POPC   GL160863   4.560  17.310  -5.229
 4078POPC   GL260864   4.566  17.401  -5.188
 4078POPC   C1A60865   4.620  17.228  -5.057
 4078POPC   D2A60866   4.681  17.145  -4.885
 4078POPC   C3A60867   4.741  17.063  -4.713
 4078POPC   C4A60868   4.802  16.981  -4.541
 4078POPC   C1B60869   4.430  17.213  -4.997
 4078POPC   C2B60870   4.491  17.131  -4.825
 4078POPC   C3B60871   4.551  17.048  -4.653
 4078POPC   C4B60872   4.612  16.966  -4.481
 4079POPC   NC360873  27.410   5.985   8.701
 4079POPC   PO460874  27.214   6.023   8.715
 4079POPC   GL160875  27.018   6.061   8.729
 4079POPC   GL260876  27.034   6.154   8.694
 4079POPC   C1A60877  26.822   6.099   8.742
 4079POPC   D2A60878  26.626   6.136   8.756
 4079POPC   C3A60879  26.430   6.174   8.769
 4079POPC   C4A60880  26.234   6.212   8.783
 4079POPC   C1B60881  26.796   6.034   8.555
 4079POPC   C2B60882  26.600   6.072   8.568
 4079POPC   C3B60883  26.404   6.110   8.582
 4079POPC   C4B60884  26.208   6.147   8.595
 4080POPC   NC360885   1.853  26.122   9.181
 4080POPC   PO460886   1.949  25.947   9.192
 4080POPC   GL160887   2.045  25.772   9.203
 4080POPC   GL260888   2.103  25.799   9.126
 4080POPC   C1A60889   2.141  25.597   9.214
 4080POPC   D2A60890   2.237  25.421   9.224
 4080POPC   C3A60891   2.333  25.246   9.235
 4080POPC   C4A60892   2.429  25.071   9.246
 4080POPC   C1B60893   2.272  25.676   9.342
 4080POPC   C2B60894   2.368  25.501   9.353
 4080POPC   C3B60895   2.464  25.326   9.364
 4080POPC   C4B60896   2.560  25.151   9.375
 4081POPC   NC360897  -1.197  10.385  -4.248
 4081POPC   PO460898  -1.075  10.379  -4.090
 4081POPC   GL160899  -0.953  10.373  -3.932
 4081POPC   GL260900  -1.006  10.445  -3.888
 4081POPC   C1A60901  -0.831  10.366  -3.774
 4081POPC   D2A60902  -0.708  10.360  -3.615
 4081POPC   C3A60903  -0.586  10.353  -3.457
 4081POPC   C4A60904  -0.464  10.347  -3.299
 4081POPC   C1B60905  -0.948  10.228  -3.689
 4081POPC   C2B60906  -0.825  10.221  -3.531
 4081POPC   C3B60907  -0.703  10.215  -3.373
 4081POPC   C4B60908  -0.581  10.209  -3.214
 4082POPC   NC360909  -6.814  16.857  10.943
 4082POPC   PO460910  -6.629  16.782  10.931
 4082POPC   GL160911  -6.444  16.707  10.919
 4082POPC   GL260912  -6.407  16.800  10.919
 4082POPC   C1A60913  -6.259  16.632  10.906
 4082POPC   D2A60914  -6.074  16.558  10.894
 4082POPC   C3A60915  -5.889  16.483  10.881
 4082POPC   C4A60916  -5.704  16.408  10.869
 4082POPC   C1B60917  -6.248  16.627  11.106
 4082POPC   C2B60918  -6.063  16.552  11.093
 4082POPC   C3B60919  -5.878  16.477  11.081
 4082POPC   C4B60920  -5.693  16.402  11.069
 4083POPC   NC360921  -6.139  18.413   9.204
 4083POPC   PO460922  -5.961  18.323   9.211
 4083POPC   GL160923  -5.783  18.233   9.218
 4083POPC   GL260924  -5.822  18.159   9.273
 4083POPC   C1A60925  -5.604  18.142   9.225
 4083POPC   D2A60926  -5.426  18.052   9.232
 4083POPC   C3A60927  -5.247  17.961   9.239
 4083POPC   C4A60928  -5.069  17.871   9.246
 4083POPC   C1B60929  -5.649  18.041   9.059
 4083POPC   C2B60930  -5.471  17.950   9.066
 4083POPC   C3B60931  -5.292  17.860   9.073
 4083POPC   C4B60932  -5.114  17.769   9.080
 4084POPC   NC360933  -8.093   8.373   8.306
 4084POPC   PO460934  -7.895   8.389   8.327
 4084POPC   GL160935  -7.697   8.405   8.348
 4084POPC   GL260936  -7.709   8.490   8.399
 4084POPC   C1A60937  -7.499   8.421   8.368
 4084POPC   D2A60938  -7.300   8.437   8.389
 4084POPC   C3A60939  -7.102   8.453   8.409
 4084POPC   C4A60940  -6.904   8.469   8.430
 4084POPC   C1B60941  -7.508   8.316   8.538
 4084POPC   C2B60942  -7.310   8.332   8.559
 4084POPC   C3B60943  -7.111   8.348   8.579
 4084POPC   C4B60944  -6.913   8.364   8.600
 4085POPC   NC360945  10.042  18.830  25.714
 4085POPC   PO460946  10.036  18.734  25.539
 4085POPC   GL160947  10.030  18.638  25.364
 4085POPC   GL260948  10.100  18.699  25.328
 4085POPC   C1A60949  10.023  18.542  25.188
 4085POPC   D2A60950  10.017  18.447  25.013
 4085POPC   C3A60951  10.010  18.351  24.837
 4085POPC   C4A60952  10.004  18.255  24.662
 4085POPC   C1B60953  10.164  18.416  25.252
 4085POPC   C2B60954  10.158  18.320  25.077
 4085POPC   C3B60955  10.152  18.224  24.901
 4085POPC   C4B60956  10.145  18.129  24.726
 4086POPC   NC360957  23.474   3.781  19.975
 4086POPC   PO460958  23.323   3.846  19.861
 4086POPC   GL160959  23.172   3.911  19.747
 4086POPC   GL260960  23.179   3.829  19.691
 4086POPC   C1A60961  23.021   3.976  19.634
 4086POPC   D2A60962  22.869   4.042  19.520
 4086POPC   C3A60963  22.718   4.107  19.407
 4086POPC   C4A60964  22.567   4.172  19.293
 4086POPC   C1B60965  22.891   3.882  19.753
 4086POPC   C2B60966  22.739   3.947  19.639
 4086POPC   C3B60967  22.588   4.012  19.526
 4086POPC   C4B60968  22.437   4.078  19.412
 4087POPC   NC360969   2.160  25.588   5.253
 4087POPC   PO460970   2.252  25.418   5.304
 4087POPC   GL160971   2.344  25.248   5.355
 4087POPC   GL260972   2.432  25.296   5.355
 4087POPC   C1A60973   2.437  25.078   5.406
 4087POPC   D2A60974   2.529  24.909   5.458
 4087POPC   C3A60975   2.622  24.739   5.509
 4087POPC   C4A60976   2.714  24.569   5.560
 4087POPC   C1B60977   2.413  25.124   5.600
 4087POPC   C2B60978   2.505  24.954   5.651
 4087POPC   C3B60979   2.598  24.784   5.702
 4087POPC   C4B60980   2.690  24.614   5.753
 4088POPC   NC360981  18.423  19.551  -2.777
 4088POPC   PO460982  18.326  19.448  -2.635
 4088POPC   GL160983  18.229  19.345  -2.493
 4088POPC   GL260984  18.315  19.300  -2.468
 4088POPC   C1A60985  18.133  19.242  -2.352
 4088POPC   D2A60986  18.036  19.138  -2.210
 4088POPC   C3A60987  17.940  19.035  -2.069
 4088POPC   C4A60988  17.843  18.932  -1.927
 4088POPC   C1B60989  18.170  19.388  -2.220
 4088POPC   C2B60990  18.073  19.284  -2.079
 4088POPC   C3B60991  17.977  19.181  -1.937
 4088POPC   C4B60992  17.880  19.078  -1.795
 4089POPC   NC360993  25.536  15.019   2.481
 4089POPC   PO460994  25.364  14.964   2.566
 4089POPC   GL160995  25.192  14.909   2.651
 4089POPC   GL260996  25.145  14.984   2.604
 4089POPC   C1A60997  25.019  14.854   2.736
 4089POPC   D2A60998  24.847  14.800   2.822
 4089POPC   C3A60999  24.674  14.745   2.907
 4089POPC   C4A61000  24.502  14.690   2.992
 4089POPC   C1B61001  24.982  14.732   2.582
 4089POPC   C2B61002  24.810  14.677   2.668
 4089POPC   C3B61003  24.637  14.623   2.753
 4089POPC   C4B61004  24.465  14.568   2.838
 4090POPC   NC361005   2.653  20.420  22.789
 4090POPC   PO461006   2.732  20.304  22.647
 4090POPC   GL161007   2.811  20.188  22.505
 4090POPC   GL261008   2.848  20.127  22.575
 4090POPC   C1A61009   2.890  20.072  22.362
 4090POPC   D2A61010   2.968  19.955  22.220
 4090POPC   C3A61011   3.047  19.839  22.077
 4090POPC   C4A61012   3.126  19.723  21.935
 4090POPC   C1B61013   2.722  19.963  22.357
 4090POPC   C2B61014   2.800  19.847  22.215
 4090POPC   C3B61015   2.879  19.731  22.073
 4090POPC   C4B61016   2.958  19.615  21.930
 4091POPC   NC361017   7.594  13.785  27.385
 4091POPC   PO461018   7.625  13.746  27.191
 4091POPC   GL161019   7.656  13.707  26.997
 4091POPC   GL261020   7.748  13.675  27.018
 4091POPC   C1A61021   7.687  13.669  26.803
 4091POPC   D2A61022   7.718  13.630  26.610
 4091POPC   C3A61023   7.749  13.592  26.416
 4091POPC   C4A61024   7.780  13.553  26.222
 4091POPC   C1B61025   7.617  13.483  26.829
 4091POPC   C2B61026   7.648  13.445  26.635
 4091POPC   C3B61027   7.679  13.406  26.441
 4091POPC   C4B61028   7.710  13.368  26.248
 4092POPC   NC361029   8.055  21.603  -3.729
 4092POPC   PO461030   8.072  21.472  -3.579
 4092POPC   GL161031   8.089  21.341  -3.429
 4092POPC   GL261032   8.129  21.413  -3.371
 4092POPC   C1A61033   8.107  21.210  -3.278
 4092POPC   D2A61034   8.124  21.080  -3.128
 4092POPC   C3A61035   8.142  20.949  -2.977
 4092POPC   C4A61036   8.159  20.818  -2.827
 4092POPC   C1B61037   7.924  21.260  -3.214
 4092POPC   C2B61038   7.941  21.129  -3.064
 4092POPC   C3B61039   7.959  20.999  -2.913
 4092POPC   C4B61040   7.976  20.868  -2.763
 4093POPC   NC361041  -5.360   7.692  19.406
 4093POPC   PO461042  -5.192   7.713  19.299
 4093POPC   GL161043  -5.024   7.734  19.192
 4093POPC   GL261044  -5.020   7.831  19.217
 4093POPC   C1A61045  -4.856   7.755  19.085
 4093POPC   D2A61046  -4.689   7.775  18.978
 4093POPC   C3A61047  -4.521   7.796  18.871
 4093POPC   C4A61048  -4.353   7.817  18.764
 4093POPC   C1B61049  -4.748   7.709  19.247
 4093POPC   C2B61050  -4.580   7.730  19.140
 4093POPC   C3B61051  -4.412   7.751  19.033
 4093POPC   C4B61052  -4.244   7.772  18.926
 4094POPC   NC361053  11.338  -0.691  -4.527
 4094POPC   PO461054  11.319  -0.574  -4.366
 4094POPC   GL161055  11.300  -0.457  -4.205
 4094POPC   GL261056  11.399  -0.445  -4.202
 4094POPC   C1A61057  11.281  -0.340  -4.044
 4094POPC   D2A61058  11.263  -0.223  -3.882
 4094POPC   C3A61059  11.244  -0.106  -3.721
 4094POPC   C4A61060  11.225   0.011  -3.560
 4094POPC   C1B61061  11.264  -0.180  -4.162
 4094POPC   C2B61062  11.246  -0.063  -4.001
 4094POPC   C3B61063  11.227   0.054  -3.840
 4094POPC   C4B61064  11.208   0.171  -3.678
 4095POPC   NC361065   0.142  23.016   2.228
 4095POPC   PO461066   0.249  22.869   2.311
 4095POPC   GL161067   0.356  22.722   2.394
 4095POPC   GL261068   0.435  22.784   2.402
 4095POPC   C1A61069   0.464  22.575   2.477
 4095POPC   D2A61070   0.571  22.429   2.560
 4095POPC   C3A61071   0.679  22.282   2.643
 4095POPC   C4A61072   0.786  22.135   2.726
 4095POPC   C1B61073   0.401  22.632   2.658
 4095POPC   C2B61074   0.508  22.485   2.741
 4095POPC   C3B61075   0.616  22.338   2.824
 4095POPC   C4B61076   0.723  22.191   2.907
 4096POPC   NC361077  12.903  23.607  21.313
 4096POPC   PO461078  12.870  23.455  21.188
 4096POPC   GL161079  12.837  23.303  21.063
 4096POPC   GL261080  12.924  23.262  21.089
 4096POPC   C1A61081  12.803  23.150  20.938
 4096POPC   D2A61082  12.770  22.998  20.812
 4096POPC   C3A61083  12.736  22.845  20.687
 4096POPC   C4A61084  12.703  22.693  20.562
 4096POPC   C1B61085  12.712  23.049  21.084
 4096POPC   C2B61086  12.679  22.897  20.959
 4096POPC   C3B61087  12.645  22.745  20.834
 4096POPC   C4B61088  12.612  22.592  20.709
 4097POPC   NC361089  -4.918   5.643  19.470
 4097POPC   PO461090  -4.756   5.687  19.361
 4097POPC   GL161091  -4.594   5.731  19.252
 4097POPC   GL261092  -4.605   5.828  19.275
 4097POPC   C1A61093  -4.433   5.775  19.143
 4097POPC   D2A61094  -4.271   5.818  19.033
 4097POPC   C3A61095  -4.110   5.862  18.924
 4097POPC   C4A61096  -3.948   5.906  18.815
 4097POPC   C1B61097  -4.317   5.749  19.304
 4097POPC   C2B61098  -4.155   5.793  19.194
 4097POPC   C3B61099  -3.994   5.837  19.085
 4097POPC   C4B61100  -3.832   5.880  18.976
 4098POPC   NC361101   3.813  -6.429  14.436
 4098POPC   PO461102   3.880  -6.247  14.387
 4098POPC   GL161103   3.947  -6.065  14.338
 4098POPC   GL261104   4.040  -6.093  14.364
 4098POPC   C1A61105   4.015  -5.883  14.289
 4098POPC   D2A61106   4.082  -5.702  14.240
 4098POPC   C3A61107   4.150  -5.520  14.191
 4098POPC   C4A61108   4.217  -5.338  14.142
 4098POPC   C1B61109   4.048  -5.946  14.102
 4098POPC   C2B61110   4.115  -5.764  14.053
 4098POPC   C3B61111   4.182  -5.582  14.004
 4098POPC   C4B61112   4.250  -5.401  13.955
 4099POPC   NC361113  27.336   5.578   8.849
 4099POPC   PO461114  27.141   5.621   8.861
 4099POPC   GL161115  26.946   5.664   8.873
 4099POPC   GL261116  26.939   5.657   8.773
 4099POPC   C1A61117  26.751   5.707   8.885
 4099POPC   D2A61118  26.556   5.749   8.896
 4099POPC   C3A61119  26.361   5.792   8.908
 4099POPC   C4A61120  26.166   5.835   8.920
 4099POPC   C1B61121  26.709   5.512   8.900
 4099POPC   C2B61122  26.514   5.554   8.912
 4099POPC   C3B61123  26.319   5.597   8.924
 4099POPC   C4B61124  26.124   5.640   8.936
 4100POPC   NC361125  18.062  -5.212   4.796
 4100POPC   PO461126  17.973  -5.042   4.854
 4100POPC   GL161127  17.884  -4.872   4.912
 4100POPC   GL261128  17.958  -4.856   4.977
 4100POPC   C1A61129  17.795  -4.703   4.970
 4100POPC   D2A61130  17.707  -4.533   5.028
 4100POPC   C3A61131  17.618  -4.364   5.086
 4100POPC   C4A61132  17.529  -4.194   5.144
 4100POPC   C1B61133  17.896  -4.602   4.830
 4100POPC   C2B61134  17.808  -4.432   4.888
 4100POPC   C3B61135  17.719  -4.263   4.946
 4100POPC   C4B61136  17.630  -4.093   5.004
 4101POPC   NC361137  -1.615  10.527  23.866
 4101POPC   PO461138  -1.489  10.518  23.711
 4101POPC   GL161139  -1.363  10.509  23.556
 4101POPC   GL261140  -1.290  10.479  23.617
 4101POPC   C1A61141  -1.237  10.500  23.401
 4101POPC   D2A61142  -1.110  10.492  23.246
 4101POPC   C3A61143  -0.984  10.483  23.091
 4101POPC   C4A61144  -0.858  10.474  22.936
 4101POPC   C1B61145  -1.288  10.310  23.370
 4101POPC   C2B61146  -1.162  10.301  23.215
 4101POPC   C3B61147  -1.036  10.292  23.060
 4101POPC   C4B61148  -0.910  10.283  22.905
 4102POPC   NC361149  -5.160   4.390  18.417
 4102POPC   PO461150  -4.995   4.455  18.324
 4102POPC   GL161151  -4.830   4.520  18.231
 4102POPC   GL261152  -4.774   4.477  18.301
 4102POPC   C1A61153  -4.666   4.586  18.138
 4102POPC   D2A61154  -4.501   4.651  18.044
 4102POPC   C3A61155  -4.337   4.717  17.951
 4102POPC   C4A61156  -4.172   4.782  17.858
 4102POPC   C1B61157  -4.661   4.418  18.029
 4102POPC   C2B61158  -4.496   4.483  17.936
 4102POPC   C3B61159  -4.331   4.549  17.843
 4102POPC   C4B61160  -4.167   4.614  17.749
 4103POPC   NC361161  13.783  19.191  24.939
 4103POPC   PO461162  13.741  19.093  24.770
 4103POPC   GL161163  13.699  18.995  24.601
 4103POPC   GL261164  13.794  18.963  24.596
 4103POPC   C1A61165  13.657  18.896  24.432
 4103POPC   D2A61166  13.615  18.798  24.263
 4103POPC   C3A61167  13.573  18.699  24.094
 4103POPC   C4A61168  13.531  18.601  23.925
 4103POPC   C1B61169  13.608  18.734  24.539
 4103POPC   C2B61170  13.566  18.636  24.370
 4103POPC   C3B61171  13.524  18.537  24.201
 4103POPC   C4B61172  13.482  18.439  24.032
 4104POPC   NC361173  -4.574   1.162  16.194
 4104POPC   PO461174  -4.413   1.260  16.128
 4104POPC   GL161175  -4.252   1.358  16.062
 4104POPC   GL261176  -4.250   1.412  16.147
 4104POPC   C1A61177  -4.091   1.457  15.996
 4104POPC   D2A61178  -3.929   1.555  15.931
 4104POPC   C3A61179  -3.768   1.654  15.865
 4104POPC   C4A61180  -3.607   1.752  15.799
 4104POPC   C1B61181  -3.972   1.320  16.081
 4104POPC   C2B61182  -3.811   1.418  16.015
 4104POPC   C3B61183  -3.650   1.516  15.949
 4104POPC   C4B61184  -3.489   1.615  15.884
 4105POPC   NC361185   5.513   4.996  26.670
 4105POPC   PO461186   5.556   5.055  26.484
 4105POPC   GL161187   5.599   5.114  26.298
 4105POPC   GL261188   5.683   5.156  26.331
 4105POPC   C1A61189   5.641   5.174  26.112
 4105POPC   D2A61190   5.684   5.233  25.925
 4105POPC   C3A61191   5.726   5.293  25.739
 4105POPC   C4A61192   5.769   5.352  25.553
 4105POPC   C1B61193   5.738   5.002  26.079
 4105POPC   C2B61194   5.781   5.061  25.893
 4105POPC   C3B61195   5.823   5.121  25.707
 4105POPC   C4B61196   5.866   5.180  25.520
 4106POPC   NC361197  -7.064  15.212  13.528
 4106POPC   PO461198  -6.877  15.152  13.490
 4106POPC   GL161199  -6.690  15.092  13.452
 4106POPC   GL261200  -6.661  15.188  13.445
 4106POPC   C1A61201  -6.503  15.032  13.414
 4106POPC   D2A61202  -6.316  14.973  13.375
 4106POPC   C3A61203  -6.129  14.913  13.337
 4106POPC   C4A61204  -5.942  14.853  13.299
 4106POPC   C1B61205  -6.463  15.034  13.609
 4106POPC   C2B61206  -6.276  14.974  13.571
 4106POPC   C3B61207  -6.089  14.914  13.533
 4106POPC   C4B61208  -5.902  14.854  13.495
 4107POPC   NC361209  20.080  -2.608  17.886
 4107POPC   PO461210  19.965  -2.470  17.798
 4107POPC   GL161211  19.850  -2.332  17.710
 4107POPC   GL261212  19.926  -2.267  17.711
 4107POPC   C1A61213  19.735  -2.194  17.623
 4107POPC   D2A61214  19.620  -2.055  17.535
 4107POPC   C3A61215  19.505  -1.917  17.448
 4107POPC   C4A61216  19.390  -1.779  17.360
 4107POPC   C1B61217  19.793  -2.259  17.443
 4107POPC   C2B61218  19.678  -2.121  17.355
 4107POPC   C3B61219  19.563  -1.983  17.268
 4107POPC   C4B61220  19.448  -1.845  17.180
 4108POPC   NC361221   7.882  25.965   1.703
 4108POPC   PO461222   7.906  25.791   1.799
 4108POPC   GL161223   7.930  25.617   1.895
 4108POPC   GL261224   8.025  25.614   1.866
 4108POPC   C1A61225   7.953  25.443   1.991
 4108POPC   D2A61226   7.977  25.269   2.086
 4108POPC   C3A61227   8.000  25.095   2.182
 4108POPC   C4A61228   8.024  24.921   2.278
 4108POPC   C1B61229   8.006  25.541   2.157
 4108POPC   C2B61230   8.029  25.367   2.252
 4108POPC   C3B61231   8.053  25.193   2.348
 4108POPC   C4B61232   8.077  25.019   2.444
 4109POPC   NC361233  14.886  16.542  -6.104
 4109POPC   PO461234  14.834  16.469  -5.925
 4109POPC   GL161235  14.782  16.396  -5.746
 4109POPC   GL261236  14.870  16.348  -5.740
 4109POPC   C1A61237  14.730  16.323  -5.568
 4109POPC   D2A61238  14.677  16.249  -5.389
 4109POPC   C3A61239  14.625  16.176  -5.211
 4109POPC   C4A61240  14.573  16.103  -5.032
 4109POPC   C1B61241  14.810  16.483  -5.479
 4109POPC   C2B61242  14.758  16.409  -5.300
 4109POPC   C3B61243  14.706  16.336  -5.122
 4109POPC   C4B61244  14.654  16.263  -4.943
 4110POPC   NC361245  26.873   6.022  14.528
 4110POPC   PO461246  26.685   6.068  14.478
 4110POPC   GL161247  26.497   6.114  14.428
 4110POPC   GL261248  26.487   6.024  14.384
 4110POPC   C1A61249  26.309   6.160  14.378
 4110POPC   D2A61250  26.120   6.205  14.328
 4110POPC   C3A61251  25.932   6.251  14.278
 4110POPC   C4A61252  25.744   6.297  14.228
 4110POPC   C1B61253  26.244   6.082  14.551
 4110POPC   C2B61254  26.056   6.128  14.501
 4110POPC   C3B61255  25.867   6.174  14.451
 4110POPC   C4B61256  25.679   6.220  14.401
 4111POPC   NC361257  15.538   3.420  -5.914
 4111POPC   PO461258  15.473   3.485  -5.736
 4111POPC   GL161259  15.408   3.550  -5.558
 4111POPC   GL261260  15.375   3.634  -5.601
 4111POPC   C1A61261  15.342   3.615  -5.381
 4111POPC   D2A61262  15.277   3.679  -5.203
 4111POPC   C3A61263  15.211   3.744  -5.026
 4111POPC   C4A61264  15.146   3.809  -4.848
 4111POPC   C1B61265  15.165   3.528  -5.414
 4111POPC   C2B61266  15.100   3.593  -5.237
 4111POPC   C3B61267  15.034   3.658  -5.059
 4111POPC   C4B61268  14.969   3.722  -4.882
 4112POPC   NC361269  -0.954  22.396  17.389
 4112POPC   PO461270  -0.833  22.259  17.308
 4112POPC   GL161271  -0.712  22.122  17.227
 4112POPC   GL261272  -0.663  22.114  17.314
 4112POPC   C1A61273  -0.591  21.985  17.146
 4112POPC   D2A61274  -0.471  21.847  17.065
 4112POPC   C3A61275  -0.350  21.710  16.984
 4112POPC   C4A61276  -0.229  21.573  16.903
 4112POPC   C1B61277  -0.717  21.840  17.203
 4112POPC   C2B61278  -0.597  21.703  17.122
 4112POPC   C3B61279  -0.476  21.566  17.041
 4112POPC   C4B61280  -0.355  21.429  16.960
 4113POPC   NC361281  24.750  19.548   6.721
 4113POPC   PO461282  24.585  19.442   6.758
 4113POPC   GL161283  24.420  19.336   6.795
 4113POPC   GL261284  24.454  19.262   6.736
 4113POPC   C1A61285  24.254  19.230   6.832
 4113POPC   D2A61286  24.089  19.123   6.869
 4113POPC   C3A61287  23.923  19.017   6.906
 4113POPC   C4A61288  23.758  18.911   6.943
 4113POPC   C1B61289  24.344  19.145   6.990
 4113POPC   C2B61290  24.178  19.039   7.027
 4113POPC   C3B61291  24.013  18.933   7.064
 4113POPC   C4B61292  23.847  18.827   7.101
 4114POPC   NC361293   1.758  16.637  -4.761
 4114POPC   PO461294   1.849  16.564  -4.599
 4114POPC   GL161295   1.940  16.491  -4.437
 4114POPC   GL261296   1.929  16.579  -4.391
 4114POPC   C1A61297   2.031  16.417  -4.274
 4114POPC   D2A61298   2.121  16.344  -4.112
 4114POPC   C3A61299   2.212  16.270  -3.949
 4114POPC   C4A61300   2.303  16.197  -3.787
 4114POPC   C1B61301   1.854  16.358  -4.202
 4114POPC   C2B61302   1.944  16.285  -4.039
 4114POPC   C3B61303   2.035  16.212  -3.877
 4114POPC   C4B61304   2.126  16.138  -3.715
 4115POPC   NC361305  -0.004  14.537  -4.450
 4115POPC   PO461306   0.106  14.490  -4.290
 4115POPC   GL161307   0.216  14.443  -4.130
 4115POPC   GL261308   0.135  14.450  -4.072
 4115POPC   C1A61309   0.326  14.395  -3.970
 4115POPC   D2A61310   0.436  14.348  -3.809
 4115POPC   C3A61311   0.546  14.300  -3.649
 4115POPC   C4A61312   0.656  14.253  -3.489
 4115POPC   C1B61313   0.286  14.202  -4.000
 4115POPC   C2B61314   0.396  14.154  -3.839
 4115POPC   C3B61315   0.506  14.107  -3.679
 4115POPC   C4B61316   0.616  14.059  -3.519
 4116POPC   NC361317  23.328  -1.690  12.764
 4116POPC   PO461318  23.180  -1.561  12.727
 4116POPC   GL161319  23.032  -1.432  12.690
 4116POPC   GL261320  23.072  -1.412  12.600
 4116POPC   C1A61321  22.884  -1.302  12.653
 4116POPC   D2A61322  22.736  -1.173  12.617
 4116POPC   C3A61323  22.588  -1.043  12.580
 4116POPC   C4A61324  22.440  -0.914  12.543
 4116POPC   C1B61325  22.775  -1.450  12.573
 4116POPC   C2B61326  22.627  -1.320  12.537
 4116POPC   C3B61327  22.479  -1.191  12.500
 4116POPC   C4B61328  22.331  -1.061  12.463
 4117POPC   NC361329  12.359  -7.599  13.171
 4117POPC   PO461330  12.334  -7.404  13.135
 4117POPC   GL161331  12.309  -7.209  13.099
 4117POPC   GL261332  12.352  -7.220  13.009
 4117POPC   C1A61333  12.284  -7.014  13.063
 4117POPC   D2A61334  12.258  -6.819  13.027
 4117POPC   C3A61335  12.233  -6.624  12.991
 4117POPC   C4A61336  12.208  -6.429  12.955
 4117POPC   C1B61337  12.105  -7.052  12.982
 4117POPC   C2B61338  12.080  -6.857  12.946
 4117POPC   C3B61339  12.054  -6.662  12.910
 4117POPC   C4B61340  12.029  -6.467  12.874
 4118POPC   NC361341  12.843  27.788   9.791
 4118POPC   PO461342  12.812  27.590   9.792
 4118POPC   GL161343  12.781  27.392   9.793
 4118POPC   GL261344  12.831  27.385   9.879
 4118POPC   C1A61345  12.750  27.195   9.793
 4118POPC   D2A61346  12.720  26.997   9.794
 4118POPC   C3A61347  12.689  26.800   9.794
 4118POPC   C4A61348  12.658  26.602   9.795
 4118POPC   C1B61349  12.580  27.222   9.895
 4118POPC   C2B61350  12.549  27.024   9.895
 4118POPC   C3B61351  12.518  26.826   9.896
 4118POPC   C4B61352  12.488  26.629   9.896
 4119POPC   NC361353  10.011  -7.721   6.273
 4119POPC   PO461354  10.015  -7.525   6.310
 4119POPC   GL161355  10.019  -7.329   6.347
 4119POPC   GL261356  10.119  -7.329   6.337
 4119POPC   C1A61357  10.023  -7.132   6.385
 4119POPC   D2A61358  10.028  -6.936   6.422
 4119POPC   C3A61359  10.032  -6.739   6.460
 4119POPC   C4A61360  10.036  -6.543   6.497
 4119POPC   C1B61361  10.004  -7.095   6.189
 4119POPC   C2B61362  10.008  -6.898   6.227
 4119POPC   C3B61363  10.013  -6.702   6.264
 4119POPC   C4B61364  10.017  -6.505   6.302
 4120POPC   NC361365  17.226  18.917  23.797
 4120POPC   PO461366  17.144  18.819  23.643
 4120POPC   GL161367  17.062  18.721  23.489
 4120POPC   GL261368  17.095  18.634  23.527
 4120POPC   C1A61369  16.981  18.623  23.335
 4120POPC   D2A61370  16.899  18.526  23.180
 4120POPC   C3A61371  16.818  18.428  23.026
 4120POPC   C4A61372  16.736  18.330  22.872
 4120POPC   C1B61373  16.810  18.605  23.437
 4120POPC   C2B61374  16.728  18.507  23.283
 4120POPC   C3B61375  16.647  18.409  23.128
 4120POPC   C4B61376  16.565  18.312  22.974
 4121POPC   NC361377   0.677  12.281  25.317
 4121POPC   PO461378   0.782  12.250  25.150
 4121POPC   GL161379   0.887  12.219  24.983
 4121POPC   GL261380   0.925  12.311  24.989
 4121POPC   C1A61381   0.992  12.188  24.815
 4121POPC   D2A61382   1.097  12.156  24.648
 4121POPC   C3A61383   1.202  12.125  24.480
 4121POPC   C4A61384   1.307  12.094  24.313
 4121POPC   C1B61385   1.144  12.117  24.924
 4121POPC   C2B61386   1.249  12.086  24.756
 4121POPC   C3B61387   1.354  12.055  24.589
 4121POPC   C4B61388   1.459  12.024  24.422
 4122POPC   NC361389  -6.895   5.253  14.643
 4122POPC   PO461390  -6.708   5.307  14.595
 4122POPC   GL161391  -6.521   5.361  14.547
 4122POPC   GL261392  -6.500   5.372  14.644
 4122POPC   C1A61393  -6.335   5.415  14.499
 4122POPC   D2A61394  -6.148   5.468  14.450
 4122POPC   C3A61395  -5.962   5.522  14.402
 4122POPC   C4A61396  -5.775   5.576  14.354
 4122POPC   C1B61397  -6.277   5.223  14.508
 4122POPC   C2B61398  -6.091   5.277  14.460
 4122POPC   C3B61399  -5.904   5.331  14.412
 4122POPC   C4B61400  -5.717   5.385  14.363
 4123POPC   NC361401  21.842  -3.423  11.589
 4123POPC   PO461402  21.710  -3.274  11.570
 4123POPC   GL161403  21.578  -3.125  11.551
 4123POPC   GL261404  21.627  -3.092  11.470
 4123POPC   C1A61405  21.446  -2.976  11.532
 4123POPC   D2A61406  21.314  -2.827  11.512
 4123POPC   C3A61407  21.182  -2.678  11.493
 4123POPC   C4A61408  21.050  -2.529  11.474
 4123POPC   C1B61409  21.332  -3.092  11.415
 4123POPC   C2B61410  21.200  -2.943  11.396
 4123POPC   C3B61411  21.068  -2.794  11.377
 4123POPC   C4B61412  20.936  -2.645  11.358
 4124POPC   NC361413  25.462  16.683  16.126
 4124POPC   PO461414  25.288  16.611  16.059
 4124POPC   GL161415  25.114  16.539  15.992
 4124POPC   GL261416  25.154  16.527  15.902
 4124POPC   C1A61417  24.940  16.467  15.926
 4124POPC   D2A61418  24.765  16.395  15.859
 4124POPC   C3A61419  24.591  16.323  15.793
 4124POPC   C4A61420  24.417  16.251  15.726
 4124POPC   C1B61421  24.997  16.282  15.976
 4124POPC   C2B61422  24.823  16.210  15.909
 4124POPC   C3B61423  24.649  16.138  15.842
 4124POPC   C4B61424  24.474  16.066  15.776
 4125POPC   NC361425  22.334   3.977  -1.610
 4125POPC   PO461426  22.198   4.048  -1.482
 4125POPC   GL161427  22.062   4.119  -1.354
 4125POPC   GL261428  21.989   4.097  -1.418
 4125POPC   C1A61429  21.926   4.190  -1.225
 4125POPC   D2A61430  21.791   4.261  -1.097
 4125POPC   C3A61431  21.655   4.332  -0.968
 4125POPC   C4A61432  21.519   4.403  -0.840
 4125POPC   C1B61433  21.909   4.008  -1.143
 4125POPC   C2B61434  21.773   4.079  -1.015
 4125POPC   C3B61435  21.637   4.150  -0.886
 4125POPC   C4B61436  21.502   4.221  -0.758
 4126POPC   NC361437  19.220  -3.676   2.746
 4126POPC   PO461438  19.120  -3.522   2.826
 4126POPC   GL161439  19.020  -3.368   2.906
 4126POPC   GL261440  19.106  -3.321   2.924
 4126POPC   C1A61441  18.920  -3.214   2.985
 4126POPC   D2A61442  18.820  -3.061   3.065
 4126POPC   C3A61443  18.720  -2.907   3.144
 4126POPC   C4A61444  18.620  -2.753   3.224
 4126POPC   C1B61445  18.911  -3.127   2.805
 4126POPC   C2B61446  18.811  -2.974   2.885
 4126POPC   C3B61447  18.711  -2.820   2.965
 4126POPC   C4B61448  18.611  -2.666   3.044
 4127POPC   NC361449  20.813  19.132  20.979
 4127POPC   PO461450  20.691  19.034  20.854
 4127POPC   GL161451  20.569  18.936  20.729
 4127POPC   GL261452  20.644  18.877  20.702
 4127POPC   C1A61453  20.447  18.839  20.604
 4127POPC   D2A61454  20.325  18.741  20.480
 4127POPC   C3A61455  20.203  18.644  20.355
 4127POPC   C4A61456  20.081  18.546  20.230
 4127POPC   C1B61457  20.399  18.711  20.751
 4127POPC   C2B61458  20.277  18.614  20.626
 4127POPC   C3B61459  20.155  18.516  20.501
 4127POPC   C4B61460  20.033  18.419  20.377
 4128POPC   NC361461   3.842  -5.908   3.812
 4128POPC   PO461462   3.906  -5.730   3.878
 4128POPC   GL161463   3.970  -5.552   3.944
 4128POPC   GL261464   4.029  -5.598   4.011
 4128POPC   C1A61465   4.034  -5.375   4.011
 4128POPC   D2A61466   4.097  -5.197   4.077
 4128POPC   C3A61467   4.161  -5.020   4.144
 4128POPC   C4A61468   4.225  -4.842   4.210
 4128POPC   C1B61469   4.182  -5.377   3.876
 4128POPC   C2B61470   4.245  -5.200   3.943
 4128POPC   C3B61471   4.309  -5.022   4.009
 4128POPC   C4B61472   4.373  -4.845   4.075
 4129POPC   NC361473   1.434  -1.582  -0.943
 4129POPC   PO461474   1.527  -1.455  -0.819
 4129POPC   GL161475   1.620  -1.328  -0.695
 4129POPC   GL261476   1.708  -1.353  -0.737
 4129POPC   C1A61477   1.713  -1.202  -0.571
 4129POPC   D2A61478   1.806  -1.075  -0.448
 4129POPC   C3A61479   1.899  -0.949  -0.324
 4129POPC   C4A61480   1.992  -0.822  -0.200
 4129POPC   C1B61481   1.690  -1.055  -0.705
 4129POPC   C2B61482   1.783  -0.928  -0.581
 4129POPC   C3B61483   1.876  -0.801  -0.457
 4129POPC   C4B61484   1.969  -0.675  -0.334
 4130POPC   NC361485  13.374  -4.701  19.809
 4130POPC   PO461486  13.338  -4.543  19.692
 4130POPC   GL161487  13.302  -4.385  19.575
 4130POPC   GL261488  13.391  -4.347  19.598
 4130POPC   C1A61489  13.266  -4.227  19.458
 4130POPC   D2A61490  13.229  -4.069  19.340
 4130POPC   C3A61491  13.193  -3.911  19.223
 4130POPC   C4A61492  13.157  -3.753  19.106
 4130POPC   C1B61493  13.347  -4.324  19.302
 4130POPC   C2B61494  13.310  -4.166  19.185
 4130POPC   C3B61495  13.274  -4.008  19.068
 4130POPC   C4B61496  13.238  -3.850  18.951
 4131POPC   NC361497  19.142  22.469  19.000
 4131POPC   PO461498  19.037  22.328  18.905
 4131POPC   GL161499  18.932  22.187  18.810
 4131POPC   GL261500  18.960  22.120  18.879
 4131POPC   C1A61501  18.827  22.046  18.715
 4131POPC   D2A61502  18.722  21.904  18.619
 4131POPC   C3A61503  18.617  21.763  18.524
 4131POPC   C4A61504  18.512  21.622  18.429
 4131POPC   C1B61505  18.666  22.091  18.824
 4131POPC   C2B61506  18.561  21.950  18.729
 4131POPC   C3B61507  18.456  21.809  18.634
 4131POPC   C4B61508  18.351  21.667  18.539
 4132POPC   NC361509  -4.927   2.041   3.159
 4132POPC   PO461510  -4.762   2.131   3.227
 4132POPC   GL161511  -4.597   2.221   3.295
 4132POPC   GL261512  -4.652   2.275   3.358
 4132POPC   C1A61513  -4.432   2.311   3.363
 4132POPC   D2A61514  -4.266   2.402   3.430
 4132POPC   C3A61515  -4.101   2.492   3.498
 4132POPC   C4A61516  -3.936   2.582   3.566
 4132POPC   C1B61517  -4.411   2.170   3.502
 4132POPC   C2B61518  -4.246   2.260   3.570
 4132POPC   C3B61519  -4.081   2.350   3.638
 4132POPC   C4B61520  -3.916   2.440   3.706
 4133POPC   NC361521  -3.436   4.537  20.876
 4133POPC   PO461522  -3.294   4.600  20.750
 4133POPC   GL161523  -3.152   4.663  20.624
 4133POPC   GL261524  -3.123   4.731  20.691
 4133POPC   C1A61525  -3.011   4.726  20.497
 4133POPC   D2A61526  -2.869   4.790  20.371
 4133POPC   C3A61527  -2.728   4.853  20.244
 4133POPC   C4A61528  -2.586   4.916  20.118
 4133POPC   C1B61529  -2.882   4.594  20.575
 4133POPC   C2B61530  -2.741   4.657  20.449
 4133POPC   C3B61531  -2.599   4.721  20.322
 4133POPC   C4B61532  -2.458   4.784  20.196
 4134POPC   NC361533  13.259   9.951  -7.849
 4134POPC   PO461534  13.220   9.950  -7.653
 4134POPC   GL161535  13.181   9.949  -7.457
 4134POPC   GL261536  13.121  10.029  -7.468
 4134POPC   C1A61537  13.142   9.948  -7.261
 4134POPC   D2A61538  13.103   9.948  -7.064
 4134POPC   C3A61539  13.064   9.947  -6.868
 4134POPC   C4A61540  13.025   9.946  -6.672
 4134POPC   C1B61541  12.986   9.827  -7.292
 4134POPC   C2B61542  12.947   9.826  -7.096
 4134POPC   C3B61543  12.908   9.825  -6.900
 4134POPC   C4B61544  12.869   9.825  -6.703
 4135POPC   NC361545  20.461  24.543  11.182
 4135POPC   PO461546  20.347  24.379  11.172
 4135POPC   GL161547  20.233  24.215  11.162
 4135POPC   GL261548  20.284  24.185  11.081
 4135POPC   C1A61549  20.120  24.051  11.151
 4135POPC   D2A61550  20.006  23.886  11.141
 4135POPC   C3A61551  19.893  23.722  11.130
 4135POPC   C4A61552  19.779  23.558  11.120
 4135POPC   C1B61553  20.249  23.954  11.269
 4135POPC   C2B61554  20.135  23.790  11.259
 4135POPC   C3B61555  20.022  23.625  11.248
 4135POPC   C4B61556  19.908  23.461  11.238
 4136POPC   NC361557  -6.686   3.401   7.357
 4136POPC   PO461558  -6.502   3.475   7.385
 4136POPC   GL161559  -6.318   3.549   7.413
 4136POPC   GL261560  -6.299   3.476   7.479
 4136POPC   C1A61561  -6.135   3.623   7.442
 4136POPC   D2A61562  -5.951   3.698   7.470
 4136POPC   C3A61563  -5.768   3.772   7.499
 4136POPC   C4A61564  -5.584   3.846   7.527
 4136POPC   C1B61565  -6.065   3.508   7.294
 4136POPC   C2B61566  -5.882   3.582   7.323
 4136POPC   C3B61567  -5.698   3.656   7.351
 4136POPC   C4B61568  -5.514   3.730   7.379
 4137POPC   NC361569  27.727   8.517   8.447
 4137POPC   PO461570  27.528   8.533   8.462
 4137POPC   GL161571  27.329   8.549   8.477
 4137POPC   GL261572  27.334   8.644   8.446
 4137POPC   C1A61573  27.130   8.564   8.491
 4137POPC   D2A61574  26.932   8.580   8.506
 4137POPC   C3A61575  26.733   8.595   8.520
 4137POPC   C4A61576  26.534   8.611   8.535
 4137POPC   C1B61577  27.112   8.504   8.301
 4137POPC   C2B61578  26.913   8.519   8.316
 4137POPC   C3B61579  26.714   8.535   8.331
 4137POPC   C4B61580  26.515   8.551   8.345
 4138POPC   NC361581   8.284  26.202  17.747
 4138POPC   PO461582   8.302  26.022  17.662
 4138POPC   GL161583   8.320  25.842  17.577
 4138POPC   GL261584   8.335  25.886  17.488
 4138POPC   C1A61585   8.339  25.662  17.492
 4138POPC   D2A61586   8.357  25.482  17.406
 4138POPC   C3A61587   8.376  25.302  17.321
 4138POPC   C4A61588   8.394  25.122  17.236
 4138POPC   C1B61589   8.536  25.666  17.526
 4138POPC   C2B61590   8.554  25.486  17.441
 4138POPC   C3B61591   8.573  25.306  17.356
 4138POPC   C4B61592   8.591  25.126  17.270
 4139POPC   NC361593  10.782  -1.865  23.481
 4139POPC   PO461594  10.765  -1.730  23.335
 4139POPC   GL161595  10.748  -1.595  23.189
 4139POPC   GL261596  10.775  -1.664  23.122
 4139POPC   C1A61597  10.731  -1.460  23.042
 4139POPC   D2A61598  10.715  -1.324  22.896
 4139POPC   C3A61599  10.698  -1.189  22.749
 4139POPC   C4A61600  10.681  -1.054  22.603
 4139POPC   C1B61601  10.539  -1.510  23.018
 4139POPC   C2B61602  10.523  -1.375  22.871
 4139POPC   C3B61603  10.506  -1.240  22.725
 4139POPC   C4B61604  10.489  -1.105  22.578
 4140POPC   NC361605  20.431  -4.655   9.331
 4140POPC   PO461606  20.316  -4.491   9.337
 4140POPC   GL161607  20.201  -4.327   9.343
 4140POPC   GL261608  20.269  -4.278   9.289
 4140POPC   C1A61609  20.086  -4.164   9.348
 4140POPC   D2A61610  19.971  -4.000   9.354
 4140POPC   C3A61611  19.856  -3.837   9.359
 4140POPC   C4A61612  19.741  -3.673   9.365
 4140POPC   C1B61613  19.996  -4.221   9.179
 4140POPC   C2B61614  19.881  -4.058   9.185
 4140POPC   C3B61615  19.766  -3.894   9.190
 4140POPC   C4B61616  19.651  -3.731   9.196
 4141POPC   NC361617  24.394   7.765  20.334
 4141POPC   PO461618  24.232   7.793  20.220
 4141POPC   GL161619  24.070   7.821  20.106
 4141POPC   GL261620  24.124   7.875  20.042
 4141POPC   C1A61621  23.908   7.849  19.993
 4141POPC   D2A61622  23.745   7.877  19.879
 4141POPC   C3A61623  23.583   7.905  19.766
 4141POPC   C4A61624  23.421   7.933  19.652
 4141POPC   C1B61625  23.951   7.683  19.890
 4141POPC   C2B61626  23.789   7.711  19.776
 4141POPC   C3B61627  23.627   7.739  19.663
 4141POPC   C4B61628  23.465   7.767  19.549
 4142POPC   NC361629  -6.468  10.768   2.299
 4142POPC   PO461630  -6.285  10.760   2.380
 4142POPC   GL161631  -6.102  10.752   2.461
 4142POPC   GL261632  -6.131  10.676   2.519
 4142POPC   C1A61633  -5.920  10.745   2.542
 4142POPC   D2A61634  -5.737  10.737   2.623
 4142POPC   C3A61635  -5.555  10.730   2.704
 4142POPC   C4A61636  -5.372  10.722   2.785
 4142POPC   C1B61637  -5.862  10.615   2.401
 4142POPC   C2B61638  -5.680  10.608   2.482
 4142POPC   C3B61639  -5.497  10.600   2.563
 4142POPC   C4B61640  -5.315  10.593   2.644
 4143POPC   NC361641  -4.942   9.282  20.218
 4143POPC   PO461642  -4.779   9.287  20.102
 4143POPC   GL161643  -4.616   9.292  19.986
 4143POPC   GL261644  -4.573   9.222  20.044
 4143POPC   C1A61645  -4.453   9.297  19.871
 4143POPC   D2A61646  -4.289   9.302  19.755
 4143POPC   C3A61647  -4.126   9.307  19.640
 4143POPC   C4A61648  -3.963   9.312  19.524
 4143POPC   C1B61649  -4.530   9.154  19.755
 4143POPC   C2B61650  -4.367   9.159  19.639
 4143POPC   C3B61651  -4.204   9.164  19.524
 4143POPC   C4B61652  -4.041   9.169  19.408
 4144POPC   NC361653  11.831   1.286  -5.753
 4144POPC   PO461654  11.810   1.385  -5.580
 4144POPC   GL161655  11.789   1.484  -5.407
 4144POPC   GL261656  11.888   1.481  -5.393
 4144POPC   C1A61657  11.768   1.582  -5.234
 4144POPC   D2A61658  11.746   1.681  -5.062
 4144POPC   C3A61659  11.725   1.779  -4.889
 4144POPC   C4A61660  11.704   1.878  -4.716
 4144POPC   C1B61661  11.786   1.756  -5.331
 4144POPC   C2B61662  11.765   1.855  -5.159
 4144POPC   C3B61663  11.744   1.953  -4.986
 4144POPC   C4B61664  11.722   2.052  -4.813
 4145POPC   NC361665   5.690  23.081  21.568
 4145POPC   PO461666   5.735  22.937  21.436
 4145POPC   GL161667   5.780  22.793  21.304
 4145POPC   GL261668   5.842  22.856  21.257
 4145POPC   C1A61669   5.825  22.650  21.173
 4145POPC   D2A61670   5.869  22.506  21.041
 4145POPC   C3A61671   5.914  22.363  20.910
 4145POPC   C4A61672   5.959  22.219  20.778
 4145POPC   C1B61673   5.975  22.589  21.290
 4145POPC   C2B61674   6.020  22.446  21.158
 4145POPC   C3B61675   6.065  22.302  21.027
 4145POPC   C4B61676   6.109  22.159  20.895
 4146POPC   NC361677   9.759  20.216  -4.936
 4146POPC   PO461678   9.758  20.099  -4.774
 4146POPC   GL161679   9.757  19.982  -4.612
 4146POPC   GL261680   9.855  20.000  -4.599
 4146POPC   C1A61681   9.757  19.865  -4.450
 4146POPC   D2A61682   9.756  19.747  -4.288
 4146POPC   C3A61683   9.756  19.630  -4.126
 4146POPC   C4A61684   9.755  19.513  -3.964
 4146POPC   C1B61685   9.712  20.023  -4.336
 4146POPC   C2B61686   9.712  19.905  -4.174
 4146POPC   C3B61687   9.711  19.788  -4.012
 4146POPC   C4B61688   9.711  19.671  -3.850
 4147POPC   NC361689  -2.488   5.596  -2.513
 4147POPC   PO461690  -2.351   5.644  -2.375
 4147POPC   GL161691  -2.214   5.692  -2.237
 4147POPC   GL261692  -2.274   5.657  -2.165
 4147POPC   C1A61693  -2.077   5.740  -2.100
 4147POPC   D2A61694  -1.940   5.787  -1.962
 4147POPC   C3A61695  -1.803   5.835  -1.825
 4147POPC   C4A61696  -1.666   5.883  -1.687
 4147POPC   C1B61697  -1.994   5.559  -2.119
 4147POPC   C2B61698  -1.857   5.606  -1.982
 4147POPC   C3B61699  -1.720   5.654  -1.844
 4147POPC   C4B61700  -1.583   5.702  -1.706
 4148POPC   NC361701  27.260   7.835   5.783
 4148POPC   PO461702  27.066   7.858   5.826
 4148POPC   GL161703  26.872   7.881   5.869
 4148POPC   GL261704  26.855   7.914   5.777
 4148POPC   C1A61705  26.678   7.903   5.913
 4148POPC   D2A61706  26.484   7.926   5.956
 4148POPC   C3A61707  26.290   7.948   6.000
 4148POPC   C4A61708  26.096   7.971   6.043
 4148POPC   C1B61709  26.643   7.716   5.853
 4148POPC   C2B61710  26.449   7.738   5.896
 4148POPC   C3B61711  26.255   7.761   5.939
 4148POPC   C4B61712  26.061   7.784   5.983
 4149POPC   NC361713   4.598  -6.128   3.723
 4149POPC   PO461714   4.654  -5.949   3.791
 4149POPC   GL161715   4.710  -5.770   3.859
 4149POPC   GL261716   4.792  -5.811   3.900
 4149POPC   C1A61717   4.766  -5.591   3.928
 4149POPC   D2A61718   4.823  -5.411   3.996
 4149POPC   C3A61719   4.879  -5.232   4.065
 4149POPC   C4A61720   4.935  -5.053   4.133
 4149POPC   C1B61721   4.868  -5.558   3.758
 4149POPC   C2B61722   4.924  -5.379   3.827
 4149POPC   C3B61723   4.980  -5.199   3.895
 4149POPC   C4B61724   5.036  -5.020   3.964
 4150POPC   NC361725  17.600  21.884  21.148
 4150POPC   PO461726  17.515  21.750  21.026
 4150POPC   GL161727  17.430  21.616  20.904
 4150POPC   GL261728  17.494  21.547  20.935
 4150POPC   C1A61729  17.344  21.482  20.782
 4150POPC   D2A61730  17.259  21.349  20.661
 4150POPC   C3A61731  17.173  21.215  20.539
 4150POPC   C4A61732  17.088  21.081  20.417
 4150POPC   C1B61733  17.218  21.430  20.928
 4150POPC   C2B61734  17.132  21.296  20.807
 4150POPC   C3B61735  17.047  21.163  20.685
 4150POPC   C4B61736  16.962  21.029  20.563
 4151POPC   NC361737  17.070  -5.470   4.141
 4151POPC   PO461738  16.990  -5.298   4.205
 4151POPC   GL161739  16.910  -5.126   4.269
 4151POPC   GL261740  16.973  -5.075   4.211
 4151POPC   C1A61741  16.830  -4.954   4.333
 4151POPC   D2A61742  16.750  -4.783   4.398
 4151POPC   C3A61743  16.670  -4.611   4.462
 4151POPC   C4A61744  16.590  -4.439   4.526
 4151POPC   C1B61745  16.698  -4.960   4.184
 4151POPC   C2B61746  16.618  -4.788   4.248
 4151POPC   C3B61747  16.538  -4.617   4.312
 4151POPC   C4B61748  16.458  -4.445   4.376
 4152POPC   NC361749  -3.723  -1.249  13.904
 4152POPC   PO461750  -3.572  -1.126  13.859
 4152POPC   GL161751  -3.421  -1.003  13.814
 4152POPC   GL261752  -3.375  -1.029  13.899
 4152POPC   C1A61753  -3.270  -0.880  13.769
 4152POPC   D2A61754  -3.119  -0.757  13.723
 4152POPC   C3A61755  -2.968  -0.634  13.678
 4152POPC   C4A61756  -2.817  -0.511  13.633
 4152POPC   C1B61757  -3.177  -1.029  13.673
 4152POPC   C2B61758  -3.026  -0.906  13.628
 4152POPC   C3B61759  -2.875  -0.783  13.583
 4152POPC   C4B61760  -2.724  -0.660  13.538
 4153POPC   NC361761   0.649  12.859  25.181
 4153POPC   PO461762   0.756  12.822  25.016
 4153POPC   GL161763   0.863  12.785  24.851
 4153POPC   GL261764   0.905  12.876  24.858
 4153POPC   C1A61765   0.970  12.748  24.686
 4153POPC   D2A61766   1.077  12.712  24.521
 4153POPC   C3A61767   1.184  12.675  24.356
 4153POPC   C4A61768   1.291  12.638  24.191
 4153POPC   C1B61769   1.117  12.673  24.798
 4153POPC   C2B61770   1.224  12.636  24.633
 4153POPC   C3B61771   1.331  12.599  24.468
 4153POPC   C4B61772   1.438  12.562  24.303
 4154POPC   NC361773  -5.461   5.852   1.266
 4154POPC   PO461774  -5.290   5.890   1.363
 4154POPC   GL161775  -5.119   5.928   1.460
 4154POPC   GL261776  -5.166   5.995   1.517
 4154POPC   C1A61777  -4.948   5.966   1.556
 4154POPC   D2A61778  -4.778   6.004   1.653
 4154POPC   C3A61779  -4.607   6.042   1.749
 4154POPC   C4A61780  -4.436   6.080   1.846
 4154POPC   C1B61781  -4.992   5.823   1.689
 4154POPC   C2B61782  -4.821   5.861   1.786
 4154POPC   C3B61783  -4.650   5.899   1.882
 4154POPC   C4B61784  -4.479   5.937   1.979
 4155POPC   NC361785  17.322   0.708  23.523
 4155POPC   PO461786  17.237   0.811  23.374
 4155POPC   GL161787  17.152   0.914  23.225
 4155POPC   GL261788  17.200   0.857  23.158
 4155POPC   C1A61789  17.067   1.017  23.076
 4155POPC   D2A61790  16.982   1.120  22.928
 4155POPC   C3A61791  16.897   1.223  22.779
 4155POPC   C4A61792  16.812   1.326  22.630
 4155POPC   C1B61793  16.914   0.889  23.075
 4155POPC   C2B61794  16.829   0.992  22.926
 4155POPC   C3B61795  16.744   1.095  22.778
 4155POPC   C4B61796  16.659   1.198  22.629
 4156POPC   NC361797  27.052  15.322   8.589
 4156POPC   PO461798  26.863  15.257   8.605
 4156POPC   GL161799  26.674  15.192   8.621
 4156POPC   GL261800  26.665  15.196   8.521
 4156POPC   C1A61801  26.486  15.127   8.637
 4156POPC   D2A61802  26.297  15.063   8.652
 4156POPC   C3A61803  26.109  14.998   8.668
 4156POPC   C4A61804  25.920  14.933   8.684
 4156POPC   C1B61805  26.550  14.938   8.624
 4156POPC   C2B61806  26.361  14.874   8.640
 4156POPC   C3B61807  26.173  14.809   8.656
 4156POPC   C4B61808  25.984  14.744   8.671
 4157POPC   NC361809  23.174  10.400  22.115
 4157POPC   PO461810  23.028  10.394  21.979
 4157POPC   GL161811  22.882  10.388  21.843
 4157POPC   GL261812  22.925  10.463  21.793
 4157POPC   C1A61813  22.736  10.382  21.707
 4157POPC   D2A61814  22.589  10.377  21.570
 4157POPC   C3A61815  22.443  10.371  21.434
 4157POPC   C4A61816  22.297  10.365  21.298
 4157POPC   C1B61817  22.841  10.251  21.599
 4157POPC   C2B61818  22.695  10.245  21.463
 4157POPC   C3B61819  22.549  10.239  21.327
 4157POPC   C4B61820  22.402  10.233  21.191
 4158POPC   NC361821  15.719  23.176  -0.977
 4158POPC   PO461822  15.649  23.029  -0.860
 4158POPC   GL161823  15.579  22.882  -0.743
 4158POPC   GL261824  15.663  22.830  -0.758
 4158POPC   C1A61825  15.509  22.736  -0.626
 4158POPC   D2A61826  15.440  22.589  -0.510
 4158POPC   C3A61827  15.370  22.443  -0.393
 4158POPC   C4A61828  15.300  22.296  -0.276
 4158POPC   C1B61829  15.592  22.824  -0.467
 4158POPC   C2B61830  15.522  22.677  -0.350
 4158POPC   C3B61831  15.452  22.531  -0.233
 4158POPC   C4B61832  15.382  22.384  -0.116
 4159POPC   NC361833   9.566  -7.392   4.962
 4159POPC   PO461834   9.575  -7.200   5.017
 4159POPC   GL161835   9.584  -7.008   5.072
 4159POPC   GL261836   9.683  -7.009   5.061
 4159POPC   C1A61837   9.592  -6.816   5.128
 4159POPC   D2A61838   9.601  -6.624   5.183
 4159POPC   C3A61839   9.609  -6.432   5.239
 4159POPC   C4A61840   9.618  -6.240   5.294
 4159POPC   C1B61841   9.571  -6.760   4.937
 4159POPC   C2B61842   9.580  -6.568   4.992
 4159POPC   C3B61843   9.588  -6.376   5.048
 4159POPC   C4B61844   9.597  -6.184   5.103
 4160POPC   NC361845  12.728  25.546   1.283
 4160POPC   PO461846  12.694  25.372   1.376
 4160POPC   GL161847  12.660  25.198   1.469
 4160POPC   GL261848  12.751  25.166   1.442
 4160POPC   C1A61849  12.626  25.024   1.562
 4160POPC   D2A61850  12.593  24.851   1.655
 4160POPC   C3A61851  12.559  24.677   1.748
 4160POPC   C4A61852  12.525  24.503   1.841
 4160POPC   C1B61853  12.702  25.100   1.731
 4160POPC   C2B61854  12.669  24.926   1.824
 4160POPC   C3B61855  12.635  24.752   1.917
 4160POPC   C4B61856  12.601  24.578   2.010
 4161POPC   NC361857  -2.220   3.196  21.418
 4161POPC   PO461858  -2.090   3.270  21.285
 4161POPC   GL161859  -1.960   3.344  21.152
 4161POPC   GL261860  -1.897   3.268  21.172
 4161POPC   C1A61861  -1.830   3.418  21.019
 4161POPC   D2A61862  -1.700   3.491  20.887
 4161POPC   C3A61863  -1.570   3.565  20.754
 4161POPC   C4A61864  -1.440   3.639  20.621
 4161POPC   C1B61865  -1.916   3.309  20.875
 4161POPC   C2B61866  -1.786   3.383  20.742
 4161POPC   C3B61867  -1.656   3.457  20.609
 4161POPC   C4B61868  -1.526   3.530  20.477
 4162POPC   NC361869  26.239   2.600   8.277
 4162POPC   PO461870  26.060   2.686   8.298
 4162POPC   GL161871  25.881   2.772   8.319
 4162POPC   GL261872  25.891   2.815   8.230
 4162POPC   C1A61873  25.701   2.857   8.341
 4162POPC   D2A61874  25.522   2.943   8.362
 4162POPC   C3A61875  25.342   3.028   8.384
 4162POPC   C4A61876  25.163   3.114   8.405
 4162POPC   C1B61877  25.615   2.699   8.254
 4162POPC   C2B61878  25.436   2.784   8.275
 4162POPC   C3B61879  25.257   2.870   8.297
 4162POPC   C4B61880  25.077   2.956   8.318
 4163POPC   NC361881   6.257  13.873  -7.354
 4163POPC   PO461882   6.296  13.830  -7.163
 4163POPC   GL161883   6.335  13.787  -6.972
 4163POPC   GL261884   6.431  13.811  -6.986
 4163POPC   C1A61885   6.374  13.744  -6.780
 4163POPC   D2A61886   6.413  13.702  -6.589
 4163POPC   C3A61887   6.452  13.659  -6.397
 4163POPC   C4A61888   6.491  13.616  -6.206
 4163POPC   C1B61889   6.334  13.934  -6.730
 4163POPC   C2B61890   6.373  13.891  -6.538
 4163POPC   C3B61891   6.412  13.848  -6.347
 4163POPC   C4B61892   6.451  13.805  -6.155
 4164POPC   NC361893  24.839   9.513  19.985
 4164POPC   PO461894  24.673   9.523  19.874
 4164POPC   GL161895  24.507   9.533  19.763
 4164POPC   GL261896  24.559   9.573  19.688
 4164POPC   C1A61897  24.341   9.543  19.652
 4164POPC   D2A61898  24.174   9.553  19.541
 4164POPC   C3A61899  24.008   9.563  19.430
 4164POPC   C4A61900  23.842   9.573  19.319
 4164POPC   C1B61901  24.378   9.360  19.580
 4164POPC   C2B61902  24.212   9.370  19.469
 4164POPC   C3B61903  24.046   9.380  19.358
 4164POPC   C4B61904  23.879   9.390  19.247
 4165POPC   NC361905  -7.536   5.391   8.725
 4165POPC   PO461906  -7.345   5.448   8.738
 4165POPC   GL161907  -7.154   5.505   8.751
 4165POPC   GL261908  -7.137   5.434   8.820
 4165POPC   C1A61909  -6.962   5.561   8.764
 4165POPC   D2A61910  -6.771   5.618   8.777
 4165POPC   C3A61911  -6.579   5.674   8.790
 4165POPC   C4A61912  -6.388   5.731   8.803
 4165POPC   C1B61913  -6.914   5.431   8.620
 4165POPC   C2B61914  -6.723   5.488   8.633
 4165POPC   C3B61915  -6.531   5.545   8.646
 4165POPC   C4B61916  -6.340   5.601   8.659
 4166POPC   NC361917   4.397  24.499   0.738
 4166POPC   PO461918   4.456  24.340   0.843
 4166POPC   GL161919   4.515  24.181   0.948
 4166POPC   GL261920   4.544  24.241   1.023
 4166POPC   C1A61921   4.574  24.021   1.053
 4166POPC   D2A61922   4.634  23.862   1.159
 4166POPC   C3A61923   4.693  23.702   1.264
 4166POPC   C4A61924   4.752  23.543   1.369
 4166POPC   C1B61925   4.393  24.008   1.136
 4166POPC   C2B61926   4.452  23.849   1.241
 4166POPC   C3B61927   4.511  23.689   1.346
 4166POPC   C4B61928   4.570  23.530   1.451
 4167POPC   NC361929  26.708  14.370   5.002
 4167POPC   PO461930  26.522  14.320   5.056
 4167POPC   GL161931  26.336  14.270   5.110
 4167POPC   GL261932  26.304  14.288   5.017
 4167POPC   C1A61933  26.150  14.221   5.164
 4167POPC   D2A61934  25.963  14.171   5.217
 4167POPC   C3A61935  25.777  14.122   5.271
 4167POPC   C4A61936  25.591  14.072   5.325
 4167POPC   C1B61937  26.186  14.030   5.115
 4167POPC   C2B61938  26.000  13.981   5.169
 4167POPC   C3B61939  25.814  13.931   5.222
 4167POPC   C4B61940  25.628  13.882   5.276
 4168POPC   NC361941  26.940  11.668  15.466
 4168POPC   PO461942  26.750  11.644  15.408
 4168POPC   GL161943  26.560  11.620  15.350
 4168POPC   GL261944  26.555  11.718  15.328
 4168POPC   C1A61945  26.370  11.597  15.292
 4168POPC   D2A61946  26.180  11.573  15.234
 4168POPC   C3A61947  25.990  11.550  15.176
 4168POPC   C4A61948  25.800  11.526  15.118
 4168POPC   C1B61949  26.432  11.557  15.106
 4168POPC   C2B61950  26.242  11.534  15.048
 4168POPC   C3B61951  26.052  11.510  14.990
 4168POPC   C4B61952  25.862  11.487  14.932
 4169POPC   NC361953  -5.361  18.758   5.739
 4169POPC   PO461954  -5.191  18.667   5.790
 4169POPC   GL161955  -5.021  18.576   5.841
 4169POPC   GL261956  -5.052  18.570   5.936
 4169POPC   C1A61957  -4.850  18.484   5.893
 4169POPC   D2A61958  -4.680  18.393   5.944
 4169POPC   C3A61959  -4.509  18.301   5.996
 4169POPC   C4A61960  -4.339  18.210   6.047
 4169POPC   C1B61961  -4.934  18.307   5.855
 4169POPC   C2B61962  -4.764  18.215   5.906
 4169POPC   C3B61963  -4.593  18.124   5.958
 4169POPC   C4B61964  -4.423  18.032   6.009
 4170POPC   NC361965  10.496  -2.070  23.319
 4170POPC   PO461966  10.483  -1.933  23.174
 4170POPC   GL161967  10.470  -1.796  23.029
 4170POPC   GL261968  10.473  -1.723  23.098
 4170POPC   C1A61969  10.457  -1.659  22.884
 4170POPC   D2A61970  10.443  -1.521  22.739
 4170POPC   C3A61971  10.430  -1.384  22.594
 4170POPC   C4A61972  10.417  -1.247  22.449
 4170POPC   C1B61973  10.656  -1.654  22.870
 4170POPC   C2B61974  10.643  -1.517  22.725
 4170POPC   C3B61975  10.630  -1.380  22.580
 4170POPC   C4B61976  10.616  -1.243  22.435
 4171POPC   NC361977  15.896  24.258   0.672
 4171POPC   PO461978  15.827  24.099   0.772
 4171POPC   GL161979  15.758  23.940   0.872
 4171POPC   GL261980  15.707  23.911   0.791
 4171POPC   C1A61981  15.689  23.782   0.973
 4171POPC   D2A61982  15.619  23.623   1.073
 4171POPC   C3A61983  15.550  23.465   1.174
 4171POPC   C4A61984  15.481  23.306   1.274
 4171POPC   C1B61985  15.847  23.675   0.913
 4171POPC   C2B61986  15.778  23.516   1.014
 4171POPC   C3B61987  15.708  23.358   1.114
 4171POPC   C4B61988  15.639  23.199   1.215
 4172POPC   NC361989   5.243  25.879  17.135
 4172POPC   PO461990   5.296  25.702  17.058
 4172POPC   GL161991   5.349  25.525  16.981
 4172POPC   GL261992   5.356  25.487  17.073
 4172POPC   C1A61993   5.401  25.348  16.904
 4172POPC   D2A61994   5.454  25.171  16.827
 4172POPC   C3A61995   5.506  24.994  16.750
 4172POPC   C4A61996   5.559  24.817  16.673
 4172POPC   C1B61997   5.209  25.294  16.898
 4172POPC   C2B61998   5.261  25.117  16.821
 4172POPC   C3B61999   5.314  24.940  16.744
 4172POPC   C4B62000   5.367  24.763  16.667
 4173POPC   NC362001  27.533  12.779  12.036
 4173POPC   PO462002  27.336  12.752  12.012
 4173POPC   GL162003  27.139  12.725  11.988
 4173POPC   GL262004  27.143  12.776  11.902
 4173POPC   C1A62005  26.943  12.697  11.964
 4173POPC   D2A62006  26.746  12.670  11.941
 4173POPC   C3A62007  26.550  12.642  11.917
 4173POPC   C4A62008  26.353  12.615  11.893
 4173POPC   C1B62009  26.979  12.528  11.864
 4173POPC   C2B62010  26.782  12.500  11.841
 4173POPC   C3B62011  26.585  12.473  11.817
 4173POPC   C4B62012  26.389  12.445  11.793
 4174POPC   NC362013   6.982  25.760   1.608
 4174POPC   PO462014   7.016  25.589   1.706
 4174POPC   GL162015   7.050  25.418   1.804
 4174POPC   GL262016   7.149  25.433   1.796
 4174POPC   C1A62017   7.084  25.247   1.903
 4174POPC   D2A62018   7.118  25.077   2.001
 4174POPC   C3A62019   7.152  24.906   2.100
 4174POPC   C4A62020   7.186  24.735   2.198
 4174POPC   C1B62021   7.083  25.347   2.076
 4174POPC   C2B62022   7.117  25.176   2.175
 4174POPC   C3B62023   7.151  25.005   2.273
 4174POPC   C4B62024   7.185  24.835   2.371
 4175POPC   NC362025   4.278  -2.100  22.147
 4175POPC   PO462026   4.339  -1.964  22.014
 4175POPC   GL162027   4.400  -1.828  21.881
 4175POPC   GL262028   4.413  -1.761  21.955
 4175POPC   C1A62029   4.462  -1.691  21.748
 4175POPC   D2A62030   4.523  -1.555  21.616
 4175POPC   C3A62031   4.585  -1.418  21.483
 4175POPC   C4A62032   4.646  -1.282  21.350
 4175POPC   C1B62033   4.651  -1.753  21.773
 4175POPC   C2B62034   4.712  -1.616  21.640
 4175POPC   C3B62035   4.773  -1.480  21.507
 4175POPC   C4B62036   4.835  -1.343  21.374
 4176POPC   NC362037   7.431  -7.109   4.662
 4176POPC   PO462038   7.458  -6.920   4.722
 4176POPC   GL162039   7.485  -6.731   4.782
 4176POPC   GL262040   7.581  -6.736   4.754
 4176POPC   C1A62041   7.513  -6.542   4.842
 4176POPC   D2A62042   7.540  -6.354   4.902
 4176POPC   C3A62043   7.568  -6.165   4.962
 4176POPC   C4A62044   7.595  -5.976   5.022
 4176POPC   C1B62045   7.462  -6.477   4.660
 4176POPC   C2B62046   7.489  -6.288   4.720
 4176POPC   C3B62047   7.517  -6.099   4.780
 4176POPC   C4B62048   7.544  -5.911   4.840
 4177POPC   NC362049  12.541  -5.323  19.158
 4177POPC   PO462050  12.509  -5.157  19.052
 4177POPC   GL162051  12.477  -4.991  18.946
 4177POPC   GL262052  12.564  -4.953  18.978
 4177POPC   C1A62053  12.445  -4.824  18.840
 4177POPC   D2A62054  12.414  -4.658  18.733
 4177POPC   C3A62055  12.382  -4.491  18.627
 4177POPC   C4A62056  12.350  -4.325  18.521
 4177POPC   C1B62057  12.539  -4.906  18.683
 4177POPC   C2B62058  12.507  -4.740  18.577
 4177POPC   C3B62059  12.475  -4.574  18.470
 4177POPC   C4B62060  12.443  -4.407  18.364
 4178POPC   NC362061   9.365   9.244  27.972
 4178POPC   PO462062   9.375   9.253  27.772
 4178POPC   GL162063   9.385   9.262  27.572
 4178POPC   GL262064   9.432   9.350  27.579
 4178POPC   C1A62065   9.396   9.272  27.373
 4178POPC   D2A62066   9.406   9.281  27.173
 4178POPC   C3A62067   9.417   9.291  26.974
 4178POPC   C4A62068   9.427   9.300  26.774
 4178POPC   C1B62069   9.572   9.177  27.378
 4178POPC   C2B62070   9.583   9.187  27.178
 4178POPC   C3B62071   9.593   9.196  26.978
 4178POPC   C4B62072   9.603   9.206  26.779
 4179POPC   NC362073  -5.962   3.764  16.021
 4179POPC   PO462074  -5.786   3.837  15.961
 4179POPC   GL162075  -5.610   3.910  15.901
 4179POPC   GL262076  -5.599   3.956  15.989
 4179POPC   C1A62077  -5.434   3.982  15.840
 4179POPC   D2A62078  -5.257   4.055  15.780
 4179POPC   C3A62079  -5.081   4.127  15.719
 4179POPC   C4A62080  -4.905   4.200  15.659
 4179POPC   C1B62081  -5.342   3.820  15.914
 4179POPC   C2B62082  -5.166   3.893  15.853
 4179POPC   C3B62083  -4.989   3.966  15.793
 4179POPC   C4B62084  -4.813   4.038  15.732
 4180POPC   NC362085  12.247   0.643  -5.305
 4180POPC   PO462086  12.221   0.749  -5.138
 4180POPC   GL162087  12.195   0.855  -4.971
 4180POPC   GL262088  12.278   0.907  -4.991
 4180POPC   C1A62089  12.169   0.962  -4.803
 4180POPC   D2A62090  12.144   1.068  -4.636
 4180POPC   C3A62091  12.118   1.175  -4.468
 4180POPC   C4A62092  12.092   1.281  -4.301
 4180POPC   C1B62093  12.061   1.096  -4.905
 4180POPC   C2B62094  12.035   1.202  -4.738
 4180POPC   C3B62095  12.010   1.309  -4.570
 4180POPC   C4B62096  11.984   1.415  -4.403
 4181POPC   NC362097  16.154  25.887   4.297
 4181POPC   PO462098  16.089  25.709   4.361
 4181POPC   GL162099  16.024  25.531   4.425
 4181POPC   GL262100  16.055  25.489   4.339
 4181POPC   C1A62101  15.958  25.353   4.488
 4181POPC   D2A62102  15.893  25.175   4.552
 4181POPC   C3A62103  15.827  24.997   4.615
 4181POPC   C4A62104  15.762  24.819   4.679
 4181POPC   C1B62105  16.137  25.317   4.571
 4181POPC   C2B62106  16.071  25.139   4.635
 4181POPC   C3B62107  16.006  24.961   4.698
 4181POPC   C4B62108  15.940  24.783   4.762
 4182POPC   NC362109  15.548  26.734   6.484
 4182POPC   PO462110  15.484  26.549   6.524
 4182POPC   GL162111  15.420  26.364   6.564
 4182POPC   GL262112  15.492  26.326   6.505
 4182POPC   C1A62113  15.357  26.179   6.604
 4182POPC   D2A62114  15.293  25.993   6.645
 4182POPC   C3A62115  15.230  25.808   6.685
 4182POPC   C4A62116  15.166  25.623   6.725
 4182POPC   C1B62117  15.481  26.170   6.761
 4182POPC   C2B62118  15.418  25.985   6.801
 4182POPC   C3B62119  15.354  25.799   6.841
 4182POPC   C4B62120  15.291  25.614   6.881
 4183POPC   NC362121  -7.635  11.134  14.261
 4183POPC   PO462122  -7.441  11.123  14.213
 4183POPC   GL162123  -7.247  11.112  14.165
 4183POPC   GL262124  -7.227  11.075  14.256
 4183POPC   C1A62125  -7.053  11.101  14.118
 4183POPC   D2A62126  -6.859  11.090  14.070
 4183POPC   C3A62127  -6.665  11.079  14.023
 4183POPC   C4A62128  -6.471  11.068  13.975
 4183POPC   C1B62129  -7.080  10.915  14.049
 4183POPC   C2B62130  -6.886  10.904  14.001
 4183POPC   C3B62131  -6.692  10.893  13.954
 4183POPC   C4B62132  -6.498  10.882  13.906
 4184POPC   NC362133   8.747  -0.883  24.330
 4184POPC   PO462134   8.758  -0.764  24.170
 4184POPC   GL162135   8.769  -0.645  24.010
 4184POPC   GL262136   8.865  -0.626  24.030
 4184POPC   C1A62137   8.780  -0.526  23.849
 4184POPC   D2A62138   8.791  -0.408  23.689
 4184POPC   C3A62139   8.802  -0.289  23.528
 4184POPC   C4A62140   8.813  -0.170  23.368
 4184POPC   C1B62141   8.836  -0.683  23.737
 4184POPC   C2B62142   8.847  -0.564  23.577
 4184POPC   C3B62143   8.858  -0.445  23.417
 4184POPC   C4B62144   8.869  -0.326  23.256
 4185POPC   NC362145  25.142   6.718   0.849
 4185POPC   PO462146  24.972   6.751   0.950
 4185POPC   GL162147  24.802   6.784   1.051
 4185POPC   GL262148  24.777   6.855   0.985
 4185POPC   C1A62149  24.633   6.817   1.152
 4185POPC   D2A62150  24.463   6.850   1.252
 4185POPC   C3A62151  24.294   6.883   1.353
 4185POPC   C4A62152  24.124   6.916   1.454
 4185POPC   C1B62153  24.540   6.680   1.040
 4185POPC   C2B62154  24.370   6.713   1.141
 4185POPC   C3B62155  24.201   6.746   1.241
 4185POPC   C4B62156  24.031   6.779   1.342
 4186POPC   NC362157  20.459  23.951   5.382
 4186POPC   PO462158  20.343  23.795   5.429
 4186POPC   GL162159  20.227  23.639   5.476
 4186POPC   GL262160  20.171  23.656   5.395
 4186POPC   C1A62161  20.111  23.484   5.524
 4186POPC   D2A62162  19.994  23.328   5.571
 4186POPC   C3A62163  19.878  23.173   5.619
 4186POPC   C4A62164  19.762  23.017   5.666
 4186POPC   C1B62165  20.230  23.363   5.419
 4186POPC   C2B62166  20.114  23.207   5.466
 4186POPC   C3B62167  19.998  23.051   5.514
 4186POPC   C4B62168  19.881  22.896   5.561
 4187POPC   NC362169  16.424   2.309  24.938
 4187POPC   PO462170  16.348   2.392  24.772
 4187POPC   GL162171  16.272   2.475  24.606
 4187POPC   GL262172  16.349   2.439  24.553
 4187POPC   C1A62173  16.196   2.557  24.441
 4187POPC   D2A62174  16.121   2.640  24.275
 4187POPC   C3A62175  16.045   2.722  24.110
 4187POPC   C4A62176  15.969   2.805  23.944
 4187POPC   C1B62177  16.094   2.389  24.404
 4187POPC   C2B62178  16.019   2.472  24.238
 4187POPC   C3B62179  15.943   2.554  24.073
 4187POPC   C4B62180  15.867   2.637  23.907
 4188POPC   NC362181  13.130  -7.677   7.650
 4188POPC   PO462182  13.092  -7.482   7.674
 4188POPC   GL162183  13.054  -7.287   7.698
 4188POPC   GL262184  13.087  -7.292   7.792
 4188POPC   C1A62185  13.016  -7.092   7.723
 4188POPC   D2A62186  12.977  -6.898   7.747
 4188POPC   C3A62187  12.939  -6.703   7.772
 4188POPC   C4A62188  12.901  -6.508   7.796
 4188POPC   C1B62189  13.200  -7.048   7.660
 4188POPC   C2B62190  13.162  -6.853   7.684
 4188POPC   C3B62191  13.124  -6.659   7.708
 4188POPC   C4B62192  13.086  -6.464   7.733
 4189POPC   NC362193  20.170  -2.706  17.604
 4189POPC   PO462194  20.054  -2.566  17.521
 4189POPC   GL162195  19.938  -2.426  17.438
 4189POPC   GL262196  20.016  -2.365  17.431
 4189POPC   C1A62197  19.821  -2.286  17.355
 4189POPC   D2A62198  19.705  -2.147  17.272
 4189POPC   C3A62199  19.588  -2.007  17.189
 4189POPC   C4A62200  19.472  -1.867  17.106
 4189POPC   C1B62201  19.863  -2.360  17.174
 4189POPC   C2B62202  19.746  -2.220  17.091
 4189POPC   C3B62203  19.630  -2.080  17.008
 4189POPC   C4B62204  19.513  -1.940  16.925
 4190POPC   NC362205  20.408  24.556  11.502
 4190POPC   PO462206  20.294  24.392  11.488
 4190POPC   GL162207  20.180  24.228  11.474
 4190POPC   GL262208  20.234  24.197  11.396
 4190POPC   C1A62209  20.066  24.065  11.460
 4190POPC   D2A62210  19.952  23.901  11.446
 4190POPC   C3A62211  19.838  23.738  11.432
 4190POPC   C4A62212  19.724  23.574  11.418
 4190POPC   C1B62213  20.189  23.968  11.584
 4190POPC   C2B62214  20.075  23.805  11.570
 4190POPC   C3B62215  19.961  23.641  11.556
 4190POPC   C4B62216  19.847  23.477  11.542
 4191POPC   NC362217  19.416  25.215  10.222
 4191POPC   PO462218  19.314  25.043  10.221
 4191POPC   GL162219  19.212  24.871  10.220
 4191POPC   GL262220  19.264  24.840  10.300
 4191POPC   C1A62221  19.110  24.699  10.220
 4191POPC   D2A62222  19.008  24.527  10.219
 4191POPC   C3A62223  18.906  24.355  10.219
 4191POPC   C4A62224  18.804  24.183  10.218
 4191POPC   C1B62225  18.973  24.780  10.341
 4191POPC   C2B62226  18.871  24.608  10.341
 4191POPC   C3B62227  18.769  24.436  10.340
 4191POPC   C4B62228  18.667  24.264  10.339
 4192POPC   NC362229  -0.115  -1.374  19.834
 4192POPC   PO462230  -0.004  -1.250  19.723
 4192POPC   GL162231   0.107  -1.126  19.612
 4192POPC   GL262232   0.186  -1.144  19.670
 4192POPC   C1A62233   0.217  -1.001  19.501
 4192POPC   D2A62234   0.328  -0.877  19.390
 4192POPC   C3A62235   0.438  -0.752  19.279
 4192POPC   C4A62236   0.549  -0.628  19.168
 4192POPC   C1B62237   0.270  -1.154  19.382
 4192POPC   C2B62238   0.380  -1.029  19.271
 4192POPC   C3B62239   0.491  -0.905  19.160
 4192POPC   C4B62240   0.601  -0.780  19.049
 4193POPC   NC362241   0.737  -2.041   0.106
 4193POPC   PO462242   0.834  -1.910   0.222
 4193POPC   GL162243   0.931  -1.779   0.338
 4193POPC   GL262244   1.018  -1.825   0.317
 4193POPC   C1A62245   1.028  -1.648   0.453
 4193POPC   D2A62246   1.126  -1.517   0.569
 4193POPC   C3A62247   1.223  -1.386   0.684
 4193POPC   C4A62248   1.320  -1.255   0.800
 4193POPC   C1B62249   1.054  -1.528   0.296
 4193POPC   C2B62250   1.151  -1.397   0.411
 4193POPC   C3B62251   1.248  -1.266   0.527
 4193POPC   C4B62252   1.345  -1.135   0.642
 4194POPC   NC362253   4.783  23.628  20.584
 4194POPC   PO462254   4.839  23.479  20.462
 4194POPC   GL162255   4.895  23.330  20.340
 4194POPC   GL262256   4.955  23.393  20.291
 4194POPC   C1A62257   4.951  23.181  20.219
 4194POPC   D2A62258   5.006  23.033  20.097
 4194POPC   C3A62259   5.062  22.884  19.976
 4194POPC   C4A62260   5.118  22.735  19.854
 4194POPC   C1B62261   5.101  23.136  20.343
 4194POPC   C2B62262   5.157  22.988  20.221
 4194POPC   C3B62263   5.213  22.839  20.100
 4194POPC   C4B62264   5.268  22.690  19.978
 4195POPC   NC362265  22.791  21.609   5.182
 4195POPC   PO462266  22.644  21.485   5.236
 4195POPC   GL162267  22.497  21.361   5.290
 4195POPC   GL262268  22.525  21.296   5.219
 4195POPC   C1A62269  22.350  21.237   5.344
 4195POPC   D2A62270  22.202  21.112   5.398
 4195POPC   C3A62271  22.055  20.988   5.452
 4195POPC   C4A62272  21.908  20.864   5.506
 4195POPC   C1B62273  22.472  21.148   5.474
 4195POPC   C2B62274  22.325  21.023   5.528
 4195POPC   C3B62275  22.178  20.899   5.582
 4195POPC   C4B62276  22.031  20.775   5.636
 4196POPC   NC362277  12.598  -6.838  15.913
 4196POPC   PO462278  12.562  -6.651  15.851
 4196POPC   GL162279  12.526  -6.464  15.789
 4196POPC   GL262280  12.600  -6.472  15.722
 4196POPC   C1A62281  12.490  -6.277  15.728
 4196POPC   D2A62282  12.453  -6.091  15.666
 4196POPC   C3A62283  12.417  -5.904  15.605
 4196POPC   C4A62284  12.381  -5.717  15.543
 4196POPC   C1B62285  12.360  -6.347  15.593
 4196POPC   C2B62286  12.324  -6.160  15.531
 4196POPC   C3B62287  12.287  -5.974  15.469
 4196POPC   C4B62288  12.251  -5.787  15.408
 4197POPC   NC362289  -2.787  10.240  22.785
 4197POPC   PO462290  -2.644  10.238  22.646
 4197POPC   GL162291  -2.501  10.236  22.507
 4197POPC   GL262292  -2.454  10.311  22.554
 4197POPC   C1A62293  -2.357  10.235  22.367
 4197POPC   D2A62294  -2.214  10.233  22.228
 4197POPC   C3A62295  -2.070  10.232  22.088
 4197POPC   C4A62296  -1.927  10.230  21.949
 4197POPC   C1B62297  -2.254  10.102  22.475
 4197POPC   C2B62298  -2.110  10.101  22.336
 4197POPC   C3B62299  -1.967  10.099  22.197
 4197POPC   C4B62300  -1.823  10.098  22.057
 4198POPC   NC362301  26.851  11.657  15.754
 4198POPC   PO462302  26.662  11.633  15.693
 4198POPC   GL162303  26.473  11.609  15.632
 4198POPC   GL262304  26.465  11.708  15.618
 4198POPC   C1A62305  26.284  11.586  15.570
 4198POPC   D2A62306  26.096  11.562  15.509
 4198POPC   C3A62307  25.907  11.539  15.447
 4198POPC   C4A62308  25.718  11.515  15.386
 4198POPC   C1B62309  26.348  11.565  15.382
 4198POPC   C2B62310  26.159  11.541  15.320
 4198POPC   C3B62311  25.971  11.517  15.259
 4198POPC   C4B62312  25.782  11.494  15.198
 4199POPC   NC362313  -7.089  12.457  15.769
 4199POPC   PO462314  -6.901  12.430  15.706
 4199POPC   GL162315  -6.713  12.403  15.643
 4199POPC   GL262316  -6.697  12.338  15.717
 4199POPC   C1A62317  -6.525  12.377  15.580
 4199POPC   D2A62318  -6.337  12.350  15.517
 4199POPC   C3A62319  -6.149  12.324  15.454
 4199POPC   C4A62320  -5.961  12.297  15.391
 4199POPC   C1B62321  -6.586  12.228  15.461
 4199POPC   C2B62322  -6.398  12.201  15.398
 4199POPC   C3B62323  -6.210  12.174  15.335
 4199POPC   C4B62324  -6.022  12.148  15.272
 4200POPC   NC362325   0.097  22.142  19.101
 4200POPC   PO462326   0.206  22.008  19.000
 4200POPC   GL162327   0.315  21.874  18.899
 4200POPC   GL262328   0.363  21.849  18.984
 4200POPC   C1A62329   0.424  21.739  18.799
 4200POPC   D2A62330   0.532  21.605  18.698
 4200POPC   C3A62331   0.641  21.470  18.598
 4200POPC   C4A62332   0.750  21.336  18.497
 4200POPC   C1B62333   0.286  21.599  18.837
 4200POPC   C2B62334   0.395  21.465  18.737
 4200POPC   C3B62335   0.504  21.330  18.636
 4200POPC   C4B62336   0.612  21.196  18.535
 4201POPC   NC362337  18.792  -4.539  15.863
 4201POPC   PO462338  18.690  -4.379  15.800
 4201POPC   GL162339  18.588  -4.219  15.737
 4201POPC   GL262340  18.613  -4.240  15.643
 4201POPC   C1A62341  18.486  -4.058  15.675
 4201POPC   D2A62342  18.385  -3.898  15.612
 4201POPC   C3A62343  18.283  -3.737  15.550
 4201POPC   C4A62344  18.181  -3.577  15.487
 4201POPC   C1B62345  18.321  -4.170  15.657
 4201POPC   C2B62346  18.220  -4.010  15.594
 4201POPC   C3B62347  18.118  -3.849  15.532
 4201POPC   C4B62348  18.016  -3.689  15.469
 4202POPC   NC362349  25.602   7.727   1.381
 4202POPC   PO462350  25.427   7.749   1.476
 4202POPC   GL162351  25.252   7.771   1.571
 4202POPC   GL262352  25.230   7.675   1.552
 4202POPC   C1A62353  25.078   7.793   1.666
 4202POPC   D2A62354  24.903   7.814   1.761
 4202POPC   C3A62355  24.729   7.836   1.856
 4202POPC   C4A62356  24.554   7.858   1.951
 4202POPC   C1B62357  25.164   7.738   1.838
 4202POPC   C2B62358  24.990   7.760   1.933
 4202POPC   C3B62359  24.815   7.782   2.028
 4202POPC   C4B62360  24.641   7.804   2.123
 4203POPC   NC362361  14.074  -3.997  -0.661
 4203POPC   PO462362  14.025  -3.844  -0.542
 4203POPC   GL162363  13.976  -3.691  -0.423
 4203POPC   GL262364  14.034  -3.728  -0.351
 4203POPC   C1A62365  13.927  -3.538  -0.304
 4203POPC   D2A62366  13.878  -3.384  -0.185
 4203POPC   C3A62367  13.829  -3.231  -0.066
 4203POPC   C4A62368  13.780  -3.078   0.053
 4203POPC   C1B62369  14.082  -3.433  -0.375
 4203POPC   C2B62370  14.033  -3.280  -0.256
 4203POPC   C3B62371  13.984  -3.126  -0.137
 4203POPC   C4B62372  13.935  -2.973  -0.018
 4204POPC   NC362373  15.328   1.628  -5.172
 4204POPC   PO462374  15.273   1.721  -5.004
 4204POPC   GL162375  15.218   1.814  -4.836
 4204POPC   GL262376  15.176   1.887  -4.890
 4204POPC   C1A62377  15.163   1.906  -4.667
 4204POPC   D2A62378  15.107   1.999  -4.499
 4204POPC   C3A62379  15.052   2.091  -4.330
 4204POPC   C4A62380  14.997   2.184  -4.162
 4204POPC   C1B62381  14.990   1.806  -4.669
 4204POPC   C2B62382  14.934   1.898  -4.500
 4204POPC   C3B62383  14.879   1.991  -4.332
 4204POPC   C4B62384  14.824   2.084  -4.164
 4205POPC   NC362385  25.293   7.926  18.990
 4205POPC   PO462386  25.123   7.952  18.887
 4205POPC   GL162387  24.953   7.978  18.784
 4205POPC   GL262388  24.996   7.939  18.703
 4205POPC   C1A62389  24.783   8.004  18.682
 4205POPC   D2A62390  24.614   8.029  18.579
 4205POPC   C3A62391  24.444   8.055  18.477
 4205POPC   C4A62392  24.274   8.081  18.374
 4205POPC   C1B62393  24.723   7.821  18.736
 4205POPC   C2B62394  24.553   7.847  18.634
 4205POPC   C3B62395  24.383   7.873  18.531
 4205POPC   C4B62396  24.213   7.898  18.428
 4206POPC   NC362397  -3.311   8.860  -2.282
 4206POPC   PO462398  -3.164   8.870  -2.147
 4206POPC   GL162399  -3.017   8.880  -2.012
 4206POPC   GL262400  -3.062   8.958  -1.969
 4206POPC   C1A62401  -2.870   8.891  -1.877
 4206POPC   D2A62402  -2.722   8.901  -1.742
 4206POPC   C3A62403  -2.575   8.912  -1.607
 4206POPC   C4A62404  -2.428   8.922  -1.472
 4206POPC   C1B62405  -2.970   8.766  -1.758
 4206POPC   C2B62406  -2.823   8.776  -1.623
 4206POPC   C3B62407  -2.676   8.787  -1.488
 4206POPC   C4B62408  -2.529   8.797  -1.353
 4207POPC   NC362409  14.606  24.506  19.513
 4207POPC   PO462410  14.555  24.346  19.405
 4207POPC   GL162411  14.504  24.186  19.297
 4207POPC   GL262412  14.563  24.128  19.354
 4207POPC   C1A62413  14.454  24.025  19.188
 4207POPC   D2A62414  14.403  23.865  19.080
 4207POPC   C3A62415  14.353  23.704  18.971
 4207POPC   C4A62416  14.302  23.544  18.863
 4207POPC   C1B62417  14.299  23.991  19.311
 4207POPC   C2B62418  14.249  23.831  19.202
 4207POPC   C3B62419  14.198  23.670  19.094
 4207POPC   C4B62420  14.148  23.510  18.985
 4208POPC   NC362421  26.460   7.792  16.732
 4208POPC   PO462422  26.278   7.820  16.653
 4208POPC   GL162423  26.096   7.848  16.574
 4208POPC   GL262424  26.096   7.754  16.540
 4208POPC   C1A62425  25.914   7.877  16.496
 4208POPC   D2A62426  25.733   7.905  16.417
 4208POPC   C3A62427  25.551   7.934  16.339
 4208POPC   C4A62428  25.369   7.962  16.260
 4208POPC   C1B62429  25.831   7.815  16.667
 4208POPC   C2B62430  25.649   7.843  16.588
 4208POPC   C3B62431  25.467   7.871  16.509
 4208POPC   C4B62432  25.285   7.900  16.431
 4209POPC   NC362433  14.117   4.930  26.734
 4209POPC   PO462434  14.068   4.982  26.547
 4209POPC   GL162435  14.019   5.034  26.360
 4209POPC   GL262436  14.037   4.940  26.330
 4209POPC   C1A62437  13.969   5.085  26.173
 4209POPC   D2A62438  13.920   5.137  25.987
 4209POPC   C3A62439  13.870   5.188  25.800
 4209POPC   C4A62440  13.821   5.240  25.613
 4209POPC   C1B62441  13.779   5.036  26.210
 4209POPC   C2B62442  13.729   5.088  26.023
 4209POPC   C3B62443  13.680   5.139  25.837
 4209POPC   C4B62444  13.631   5.191  25.650
 4210POPC   NC362445  19.977  14.576  -4.290
 4210POPC   PO462446  19.865  14.523  -4.133
 4210POPC   GL162447  19.753  14.470  -3.976
 4210POPC   GL262448  19.671  14.481  -4.031
 4210POPC   C1A62449  19.642  14.417  -3.818
 4210POPC   D2A62450  19.530  14.365  -3.661
 4210POPC   C3A62451  19.419  14.312  -3.503
 4210POPC   C4A62452  19.307  14.259  -3.346
 4210POPC   C1B62453  19.654  14.226  -3.874
 4210POPC   C2B62454  19.543  14.173  -3.716
 4210POPC   C3B62455  19.431  14.120  -3.559
 4210POPC   C4B62456  19.320  14.067  -3.401
 4211POPC   NC362457   2.978  24.708  17.793
 4211POPC   PO462458   3.058  24.545  17.708
 4211POPC   GL162459   3.138  24.382  17.623
 4211POPC   GL262460   3.178  24.439  17.552
 4211POPC   C1A62461   3.218  24.220  17.538
 4211POPC   D2A62462   3.298  24.057  17.454
 4211POPC   C3A62463   3.378  23.895  17.369
 4211POPC   C4A62464   3.458  23.732  17.284
 4211POPC   C1B62465   3.383  24.243  17.649
 4211POPC   C2B62466   3.463  24.080  17.565
 4211POPC   C3B62467   3.543  23.918  17.480
 4211POPC   C4B62468   3.623  23.755  17.395
 4212POPC   NC362469  -5.341  16.381   2.733
 4212POPC   PO462470  -5.171  16.309   2.810
 4212POPC   GL162471  -5.001  16.237   2.887
 4212POPC   GL262472  -5.011  16.299   2.965
 4212POPC   C1A62473  -4.831  16.166   2.964
 4212POPC   D2A62474  -4.660  16.094   3.041
 4212POPC   C3A62475  -4.490  16.023   3.118
 4212POPC   C4A62476  -4.320  15.951   3.195
 4212POPC   C1B62477  -4.934  16.025   3.062
 4212POPC   C2B62478  -4.764  15.953   3.139
 4212POPC   C3B62479  -4.594  15.882   3.216
 4212POPC   C4B62480  -4.423  15.810   3.293
 4213POPC   NC362481   8.450  26.175   1.978
 4213POPC   PO462482   8.466  25.998   2.069
 4213POPC   GL162483   8.482  25.821   2.160
 4213POPC   GL262484   8.574  25.809   2.121
 4213POPC   C1A62485   8.498  25.643   2.251
 4213POPC   D2A62486   8.515  25.466   2.341
 4213POPC   C3A62487   8.531  25.288   2.432
 4213POPC   C4A62488   8.547  25.111   2.523
 4213POPC   C1B62489   8.577  25.733   2.411
 4213POPC   C2B62490   8.593  25.555   2.502
 4213POPC   C3B62491   8.609  25.378   2.593
 4213POPC   C4B62492   8.625  25.200   2.684
 4214POPC   NC362493   7.109  -7.834  10.049
 4214POPC   PO462494   7.137  -7.636  10.049
 4214POPC   GL162495   7.165  -7.438  10.049
 4214POPC   GL262496   7.264  -7.452  10.047
 4214POPC   C1A62497   7.193  -7.240  10.049
 4214POPC   D2A62498   7.222  -7.042  10.048
 4214POPC   C3A62499   7.250  -6.844  10.048
 4214POPC   C4A62500   7.278  -6.646  10.048
 4214POPC   C1B62501   7.189  -7.240   9.849
 4214POPC   C2B62502   7.217  -7.042   9.848
 4214POPC   C3B62503   7.246  -6.844   9.848
 4214POPC   C4B62504   7.274  -6.646   9.848
 4215POPC   NC362505   4.931  -3.191  -1.381
 4215POPC   PO462506   4.986  -3.046  -1.254
 4215POPC   GL162507   5.041  -2.901  -1.127
 4215POPC   GL262508   5.054  -2.969  -1.055
 4215POPC   C1A62509   5.095  -2.756  -1.001
 4215POPC   D2A62510   5.150  -2.611  -0.874
 4215POPC   C3A62511   5.204  -2.466  -0.748
 4215POPC   C4A62512   5.259  -2.321  -0.621
 4215POPC   C1B62513   5.286  -2.778  -1.057
 4215POPC   C2B62514   5.340  -2.633  -0.931
 4215POPC   C3B62515   5.395  -2.488  -0.804
 4215POPC   C4B62516   5.450  -2.343  -0.678
 4216POPC   NC362517  14.486  24.231  -0.201
 4216POPC   PO462518  14.434  24.071  -0.093
 4216POPC   GL162519  14.382  23.911   0.015
 4216POPC   GL262520  14.349  23.865  -0.068
 4216POPC   C1A62521  14.329  23.750   0.122
 4216POPC   D2A62522  14.277  23.590   0.230
 4216POPC   C3A62523  14.224  23.429   0.337
 4216POPC   C4A62524  14.172  23.269   0.445
 4216POPC   C1B62525  14.511  23.672   0.094
 4216POPC   C2B62526  14.459  23.512   0.202
 4216POPC   C3B62527  14.406  23.351   0.309
 4216POPC   C4B62528  14.354  23.191   0.417
 4217POPC   NC362529  -3.511  -0.249  16.444
 4217POPC   PO462530  -3.361  -0.137  16.374
 4217POPC   GL162531  -3.211  -0.025  16.304
 4217POPC   GL262532  -3.220   0.037  16.382
 4217POPC   C1A62533  -3.061   0.087  16.233
 4217POPC   D2A62534  -2.911   0.199  16.163
 4217POPC   C3A62535  -2.761   0.311  16.092
 4217POPC   C4A62536  -2.611   0.423  16.022
 4217POPC   C1B62537  -2.930  -0.023  16.337
 4217POPC   C2B62538  -2.780   0.089  16.266
 4217POPC   C3B62539  -2.630   0.201  16.196
 4217POPC   C4B62540  -2.480   0.313  16.125
 4218POPC   NC362541  -7.093  14.083  14.755
 4218POPC   PO462542  -6.905  14.038  14.704
 4218POPC   GL162543  -6.717  13.993  14.653
 4218POPC   GL262544  -6.683  14.045  14.731
 4218POPC   C1A62545  -6.529  13.948  14.602
 4218POPC   D2A62546  -6.341  13.903  14.550
 4218POPC   C3A62547  -6.153  13.858  14.499
 4218POPC   C4A62548  -5.965  13.813  14.448
 4218POPC   C1B62549  -6.537  13.784  14.715
 4218POPC   C2B62550  -6.349  13.739  14.664
 4218POPC   C3B62551  -6.161  13.694  14.613
 4218POPC   C4B62552  -5.973  13.649  14.562
 4219POPC   NC362553  15.908  16.488  25.653
 4219POPC   PO462554  15.845  16.413  25.479
 4219POPC   GL162555  15.782  16.338  25.305
 4219POPC   GL262556  15.810  16.422  25.258
 4219POPC   C1A62557  15.720  16.262  25.130
 4219POPC   D2A62558  15.657  16.187  24.956
 4219POPC   C3A62559  15.595  16.111  24.781
 4219POPC   C4A62560  15.532  16.036  24.607
 4219POPC   C1B62561  15.901  16.184  25.099
 4219POPC   C2B62562  15.839  16.109  24.924
 4219POPC   C3B62563  15.776  16.034  24.750
 4219POPC   C4B62564  15.714  15.958  24.576
 4220POPC   NC362565   7.046   0.706  25.141
 4220POPC   PO462566   7.076   0.803  24.969
 4220POPC   GL162567   7.106   0.900  24.797
 4220POPC   GL262568   7.190   0.940  24.833
 4220POPC   C1A62569   7.135   0.997  24.624
 4220POPC   D2A62570   7.165   1.095  24.452
 4220POPC   C3A62571   7.194   1.192  24.279
 4220POPC   C4A62572   7.224   1.289  24.107
 4220POPC   C1B62573   7.239   0.841  24.554
 4220POPC   C2B62574   7.268   0.939  24.382
 4220POPC   C3B62575   7.298   1.036  24.209
 4220POPC   C4B62576   7.328   1.133  24.037
 4221POPC   NC362577  26.111  12.684  17.292
 4221POPC   PO462578  25.930  12.652  17.213
 4221POPC   GL162579  25.749  12.620  17.134
 4221POPC   GL262580  25.780  12.532  17.099
 4221POPC   C1A62581  25.568  12.589  17.056
 4221POPC   D2A62582  25.386  12.557  16.977
 4221POPC   C3A62583  25.205  12.526  16.899
 4221POPC   C4A62584  25.024  12.494  16.820
 4221POPC   C1B62585  25.509  12.501  17.226
 4221POPC   C2B62586  25.328  12.469  17.147
 4221POPC   C3B62587  25.147  12.438  17.068
 4221POPC   C4B62588  24.966  12.406  16.990
 4222POPC   NC362589  18.533  25.516  13.113
 4222POPC   PO462590  18.439  25.342  13.085
 4222POPC   GL162591  18.345  25.168  13.057
 4222POPC   GL262592  18.423  25.134  13.005
 4222POPC   C1A62593  18.250  24.994  13.029
 4222POPC   D2A62594  18.156  24.820  13.000
 4222POPC   C3A62595  18.061  24.646  12.972
 4222POPC   C4A62596  17.967  24.472  12.944
 4222POPC   C1B62597  18.331  24.923  13.197
 4222POPC   C2B62598  18.237  24.749  13.169
 4222POPC   C3B62599  18.142  24.575  13.141
 4222POPC   C4B62600  18.048  24.401  13.112
 4223POPC   NC362601   2.120  26.243  11.376
 4223POPC   PO462602   2.206  26.063  11.362
 4223POPC   GL162603   2.292  25.883  11.348
 4223POPC   GL262604   2.355  25.919  11.279
 4223POPC   C1A62605   2.378  25.703  11.333
 4223POPC   D2A62606   2.464  25.523  11.319
 4223POPC   C3A62607   2.550  25.343  11.304
 4223POPC   C4A62608   2.636  25.163  11.290
 4223POPC   C1B62609   2.507  25.753  11.478
 4223POPC   C2B62610   2.593  25.573  11.463
 4223POPC   C3B62611   2.679  25.393  11.449
 4223POPC   C4B62612   2.765  25.213  11.435
 4224POPC   NC362613  -7.598  12.297  14.019
 4224POPC   PO462614  -7.405  12.275  13.972
 4224POPC   GL162615  -7.212  12.253  13.925
 4224POPC   GL262616  -7.187  12.268  14.021
 4224POPC   C1A62617  -7.019  12.231  13.879
 4224POPC   D2A62618  -6.825  12.209  13.832
 4224POPC   C3A62619  -6.632  12.187  13.786
 4224POPC   C4A62620  -6.439  12.165  13.739
 4224POPC   C1B62621  -7.033  12.035  13.914
 4224POPC   C2B62622  -6.839  12.013  13.867
 4224POPC   C3B62623  -6.646  11.991  13.820
 4224POPC   C4B62624  -6.453  11.969  13.774
 4225POPC   NC362625   1.239  25.715  12.145
 4225POPC   PO462626   1.334  25.540  12.121
 4225POPC   GL162627   1.429  25.365  12.097
 4225POPC   GL262628   1.505  25.413  12.052
 4225POPC   C1A62629   1.523  25.191  12.073
 4225POPC   D2A62630   1.618  25.016  12.049
 4225POPC   C3A62631   1.712  24.842  12.025
 4225POPC   C4A62632   1.807  24.667  12.001
 4225POPC   C1B62633   1.612  25.215  12.251
 4225POPC   C2B62634   1.707  25.040  12.227
 4225POPC   C3B62635   1.801  24.865  12.203
 4225POPC   C4B62636   1.896  24.691  12.179
 4226POPC   NC362637  16.930  23.197  -0.114
 4226POPC   PO462638  16.847  23.051  -0.005
 4226POPC   GL162639  16.764  22.905   0.104
 4226POPC   GL262640  16.701  22.885   0.029
 4226POPC   C1A62641  16.681  22.759   0.213
 4226POPC   D2A62642  16.597  22.614   0.321
 4226POPC   C3A62643  16.514  22.468   0.430
 4226POPC   C4A62644  16.431  22.322   0.539
 4226POPC   C1B62645  16.812  22.629   0.138
 4226POPC   C2B62646  16.729  22.483   0.247
 4226POPC   C3B62647  16.646  22.337   0.355
 4226POPC   C4B62648  16.563  22.191   0.464
 4227POPC   NC362649  16.087   7.163  -6.718
 4227POPC   PO462650  16.013   7.195  -6.535
 4227POPC   GL162651  15.939   7.227  -6.352
 4227POPC   GL262652  15.848   7.240  -6.391
 4227POPC   C1A62653  15.865   7.260  -6.169
 4227POPC   D2A62654  15.790   7.292  -5.987
 4227POPC   C3A62655  15.716   7.325  -5.804
 4227POPC   C4A62656  15.642   7.357  -5.621
 4227POPC   C1B62657  15.829   7.064  -6.149
 4227POPC   C2B62658  15.754   7.096  -5.967
 4227POPC   C3B62659  15.680   7.129  -5.784
 4227POPC   C4B62660  15.606   7.161  -5.601
 4228POPC   NC362661   9.173  -7.930  11.799
 4228POPC   PO462662   9.180  -7.731  11.780
 4228POPC   GL162663   9.187  -7.532  11.761
 4228POPC   GL262664   9.203  -7.542  11.663
 4228POPC   C1A62665   9.195  -7.333  11.743
 4228POPC   D2A62666   9.202  -7.134  11.724
 4228POPC   C3A62667   9.210  -6.935  11.706
 4228POPC   C4A62668   9.217  -6.736  11.687
 4228POPC   C1B62669   8.997  -7.329  11.711
 4228POPC   C2B62670   9.005  -7.130  11.693
 4228POPC   C3B62671   9.012  -6.931  11.674
 4228POPC   C4B62672   9.020  -6.732  11.655
 4229POPC   NC362673   8.339   2.108  26.044
 4229POPC   PO462674   8.360   2.191  25.863
 4229POPC   GL162675   8.381   2.274  25.682
 4229POPC   GL262676   8.458   2.329  25.716
 4229POPC   C1A62677   8.403   2.357  25.501
 4229POPC   D2A62678   8.424   2.439  25.321
 4229POPC   C3A62679   8.446   2.522  25.140
 4229POPC   C4A62680   8.467   2.605  24.959
 4229POPC   C1B62681   8.531   2.212  25.450
 4229POPC   C2B62682   8.552   2.294  25.269
 4229POPC   C3B62683   8.573   2.377  25.089
 4229POPC   C4B62684   8.595   2.460  24.908
 4230POPC   NC362685   9.764  22.161  23.266
 4230POPC   PO462686   9.768  22.025  23.120
 4230POPC   GL162687   9.772  21.889  22.974
 4230POPC   GL262688   9.820  21.954  22.914
 4230POPC   C1A62689   9.776  21.753  22.827
 4230POPC   D2A62690   9.781  21.616  22.681
 4230POPC   C3A62691   9.785  21.480  22.534
 4230POPC   C4A62692   9.789  21.344  22.388
 4230POPC   C1B62693   9.952  21.685  22.895
 4230POPC   C2B62694   9.956  21.549  22.749
 4230POPC   C3B62695   9.960  21.413  22.602
 4230POPC   C4B62696   9.965  21.276  22.456
 4231POPC   NC362697  10.984  27.391  14.565
 4231POPC   PO462698  10.969  27.197  14.517
 4231POPC   GL162699  10.954  27.003  14.469
 4231POPC   GL262700  11.046  27.006  14.431
 4231POPC   C1A62701  10.939  26.810  14.421
 4231POPC   D2A62702  10.924  26.616  14.373
 4231POPC   C3A62703  10.909  26.423  14.325
 4231POPC   C4A62704  10.894  26.229  14.277
 4231POPC   C1B62705  11.013  26.760  14.600
 4231POPC   C2B62706  10.998  26.566  14.552
 4231POPC   C3B62707  10.983  26.372  14.504
 4231POPC   C4B62708  10.968  26.179  14.456
 4232POPC   NC362709   9.313  -7.927   7.911
 4232POPC   PO462710   9.322  -7.728   7.930
 4232POPC   GL162711   9.331  -7.529   7.949
 4232POPC   GL262712   9.422  -7.529   7.908
 4232POPC   C1A62713   9.340  -7.330   7.968
 4232POPC   D2A62714   9.349  -7.132   7.987
 4232POPC   C3A62715   9.358  -6.933   8.006
 4232POPC   C4A62716   9.367  -6.734   8.025
 4232POPC   C1B62717   9.258  -7.309   7.787
 4232POPC   C2B62718   9.267  -7.111   7.806
 4232POPC   C3B62719   9.276  -6.912   7.825
 4232POPC   C4B62720   9.285  -6.713   7.844
 4233POPC   NC362721  -8.009  12.748   9.592
 4233POPC   PO462722  -7.812  12.717   9.600
 4233POPC   GL162723  -7.615  12.686   9.608
 4233POPC   GL262724  -7.628  12.622   9.683
 4233POPC   C1A62725  -7.417  12.655   9.615
 4233POPC   D2A62726  -7.220  12.624   9.623
 4233POPC   C3A62727  -7.022  12.593   9.630
 4233POPC   C4A62728  -6.825  12.562   9.638
 4233POPC   C1B62729  -7.436  12.505   9.484
 4233POPC   C2B62730  -7.238  12.474   9.492
 4233POPC   C3B62731  -7.041  12.443   9.499
 4233POPC   C4B62732  -6.844  12.412   9.507
 4234POPC   NC362733  17.307  -3.753  19.045
 4234POPC   PO462734  17.225  -3.602  18.942
 4234POPC   GL162735  17.143  -3.451  18.839
 4234POPC   GL262736  17.209  -3.466  18.765
 4234POPC   C1A62737  17.062  -3.300  18.736
 4234POPC   D2A62738  16.980  -3.150  18.633
 4234POPC   C3A62739  16.899  -2.999  18.530
 4234POPC   C4A62740  16.817  -2.848  18.427
 4234POPC   C1B62741  16.935  -3.428  18.649
 4234POPC   C2B62742  16.853  -3.278  18.546
 4234POPC   C3B62743  16.772  -3.127  18.443
 4234POPC   C4B62744  16.690  -2.976  18.340
 4235POPC   NC362745  -4.484   7.927  20.707
 4235POPC   PO462746  -4.325   7.948  20.587
 4235POPC   GL162747  -4.166   7.969  20.467
 4235POPC   GL262748  -4.123   8.029  20.534
 4235POPC   C1A62749  -4.007   7.990  20.347
 4235POPC   D2A62750  -3.849   8.010  20.228
 4235POPC   C3A62751  -3.690   8.031  20.108
 4235POPC   C4A62752  -3.531   8.052  19.988
 4235POPC   C1B62753  -3.921   7.832  20.434
 4235POPC   C2B62754  -3.762   7.852  20.315
 4235POPC   C3B62755  -3.604   7.873  20.195
 4235POPC   C4B62756  -3.445   7.894  20.075
 4236POPC   NC362757   2.056  17.950  24.133
 4236POPC   PO462758   2.149  17.863  23.978
 4236POPC   GL162759   2.242  17.776  23.823
 4236POPC   GL262760   2.291  17.716  23.887
 4236POPC   C1A62761   2.335  17.690  23.669
 4236POPC   D2A62762   2.427  17.603  23.514
 4236POPC   C3A62763   2.520  17.517  23.360
 4236POPC   C4A62764   2.613  17.430  23.205
 4236POPC   C1B62765   2.187  17.555  23.656
 4236POPC   C2B62766   2.280  17.469  23.501
 4236POPC   C3B62767   2.373  17.382  23.346
 4236POPC   C4B62768   2.465  17.296  23.192
 4237POPC   NC362769  15.863  -4.378  19.098
 4237POPC   PO462770  15.798  -4.219  18.996
 4237POPC   GL162771  15.733  -4.060  18.894
 4237POPC   GL262772  15.827  -4.040  18.865
 4237POPC   C1A62773  15.668  -3.900  18.792
 4237POPC   D2A62774  15.604  -3.741  18.690
 4237POPC   C3A62775  15.539  -3.581  18.588
 4237POPC   C4A62776  15.474  -3.422  18.486
 4237POPC   C1B62777  15.643  -4.014  18.630
 4237POPC   C2B62778  15.578  -3.855  18.528
 4237POPC   C3B62779  15.513  -3.696  18.426
 4237POPC   C4B62780  15.448  -3.536  18.324
 4238POPC   NC362781  13.643  -7.660   8.546
 4238POPC   PO462782  13.598  -7.466   8.562
 4238POPC   GL162783  13.553  -7.272   8.578
 4238POPC   GL262784  13.593  -7.270   8.669
 4238POPC   C1A62785  13.508  -7.077   8.593
 4238POPC   D2A62786  13.464  -6.883   8.609
 4238POPC   C3A62787  13.419  -6.688   8.624
 4238POPC   C4A62788  13.374  -6.494   8.640
 4238POPC   C1B62789  13.686  -7.030   8.515
 4238POPC   C2B62790  13.641  -6.836   8.531
 4238POPC   C3B62791  13.597  -6.641   8.546
 4238POPC   C4B62792  13.552  -6.447   8.562
 4239POPC   NC362793  -3.427  22.144   8.360
 4239POPC   PO462794  -3.284  22.006   8.376
 4239POPC   GL162795  -3.141  21.868   8.392
 4239POPC   GL262796  -3.106  21.913   8.474
 4239POPC   C1A62797  -2.997  21.729   8.408
 4239POPC   D2A62798  -2.854  21.591   8.424
 4239POPC   C3A62799  -2.710  21.452   8.440
 4239POPC   C4A62800  -2.567  21.314   8.456
 4239POPC   C1B62801  -3.118  21.618   8.522
 4239POPC   C2B62802  -2.974  21.479   8.538
 4239POPC   C3B62803  -2.831  21.341   8.554
 4239POPC   C4B62804  -2.687  21.202   8.570
 4240POPC   NC362805  15.912   4.859  -6.247
 4240POPC   PO462806  15.842   4.912  -6.067
 4240POPC   GL162807  15.772   4.965  -5.887
 4240POPC   GL262808  15.701   5.020  -5.931
 4240POPC   C1A62809  15.701   5.018  -5.708
 4240POPC   D2A62810  15.631   5.070  -5.528
 4240POPC   C3A62811  15.560   5.123  -5.349
 4240POPC   C4A62812  15.490   5.176  -5.169
 4240POPC   C1B62813  15.579   4.859  -5.709
 4240POPC   C2B62814  15.509   4.912  -5.529
 4240POPC   C3B62815  15.438   4.965  -5.350
 4240POPC   C4B62816  15.368   5.017  -5.170
 4241POPC   NC362817   9.014   8.020  -7.967
 4241POPC   PO462818   9.024   8.043  -7.769
 4241POPC   GL162819   9.034   8.066  -7.571
 4241POPC   GL262820   9.123   8.021  -7.570
 4241POPC   C1A62821   9.044   8.090  -7.372
 4241POPC   D2A62822   9.053   8.113  -7.174
 4241POPC   C3A62823   9.063   8.137  -6.975
 4241POPC   C4A62824   9.073   8.160  -6.777
 4241POPC   C1B62825   9.135   8.266  -7.398
 4241POPC   C2B62826   9.144   8.289  -7.199
 4241POPC   C3B62827   9.154   8.313  -7.001
 4241POPC   C4B62828   9.164   8.336  -6.802
 4242POPC   NC362829   9.598  15.346  -7.303
 4242POPC   PO462830   9.598  15.286  -7.112
 4242POPC   GL162831   9.598  15.226  -6.921
 4242POPC   GL262832   9.692  15.259  -6.911
 4242POPC   C1A62833   9.598  15.166  -6.730
 4242POPC   D2A62834   9.599  15.106  -6.540
 4242POPC   C3A62835   9.599  15.046  -6.349
 4242POPC   C4A62836   9.599  14.986  -6.158
 4242POPC   C1B62837   9.529  15.345  -6.674
 4242POPC   C2B62838   9.529  15.285  -6.483
 4242POPC   C3B62839   9.529  15.225  -6.292
 4242POPC   C4B62840   9.529  15.165  -6.102
 4243POPC   NC362841   2.753   2.081  24.567
 4243POPC   PO462842   2.836   2.167  24.407
 4243POPC   GL162843   2.919   2.253  24.247
 4243POPC   GL262844   2.930   2.338  24.298
 4243POPC   C1A62845   3.002   2.338  24.086
 4243POPC   D2A62846   3.086   2.424  23.926
 4243POPC   C3A62847   3.169   2.509  23.765
 4243POPC   C4A62848   3.252   2.595  23.605
 4243POPC   C1B62849   3.183   2.277  24.147
 4243POPC   C2B62850   3.266   2.363  23.987
 4243POPC   C3B62851   3.349   2.449  23.827
 4243POPC   C4B62852   3.432   2.534  23.666
 4244POPC   NC362853  11.684   5.026  -7.307
 4244POPC   PO462854  11.668   5.084  -7.116
 4244POPC   GL162855  11.652   5.142  -6.925
 4244POPC   GL262856  11.667   5.237  -6.953
 4244POPC   C1A62857  11.636   5.199  -6.734
 4244POPC   D2A62858  11.620   5.257  -6.544
 4244POPC   C3A62859  11.604   5.314  -6.353
 4244POPC   C4A62860  11.588   5.372  -6.162
 4244POPC   C1B62861  11.439   5.222  -6.758
 4244POPC   C2B62862  11.423   5.280  -6.567
 4244POPC   C3B62863  11.407   5.338  -6.376
 4244POPC   C4B62864  11.391   5.395  -6.186
 4245POPC   NC362865  19.079  -3.381  17.886
 4245POPC   PO462866  18.975  -3.234  17.799
 4245POPC   GL162867  18.871  -3.087  17.712
 4245POPC   GL262868  18.955  -3.033  17.702
 4245POPC   C1A62869  18.767  -2.940  17.625
 4245POPC   D2A62870  18.662  -2.794  17.538
 4245POPC   C3A62871  18.558  -2.647  17.451
 4245POPC   C4A62872  18.454  -2.500  17.364
 4245POPC   C1B62873  18.799  -3.023  17.446
 4245POPC   C2B62874  18.695  -2.876  17.359
 4245POPC   C3B62875  18.591  -2.729  17.272
 4245POPC   C4B62876  18.487  -2.583  17.185
 4246POPC   NC362877  24.875  19.299  13.607
 4246POPC   PO462878  24.709  19.195  13.566
 4246POPC   GL162879  24.543  19.091  13.525
 4246POPC   GL262880  24.546  19.124  13.431
 4246POPC   C1A62881  24.377  18.988  13.484
 4246POPC   D2A62882  24.211  18.884  13.444
 4246POPC   C3A62883  24.045  18.781  13.403
 4246POPC   C4A62884  23.879  18.677  13.362
 4246POPC   C1B62885  24.488  18.830  13.433
 4246POPC   C2B62886  24.322  18.726  13.392
 4246POPC   C3B62887  24.156  18.623  13.351
 4246POPC   C4B62888  23.990  18.519  13.310
 4247POPC   NC362889  14.655  27.337  11.507
 4247POPC   PO462890  14.601  27.145  11.489
 4247POPC   GL162891  14.547  26.953  11.471
 4247POPC   GL262892  14.594  26.932  11.558
 4247POPC   C1A62893  14.493  26.761  11.454
 4247POPC   D2A62894  14.440  26.570  11.436
 4247POPC   C3A62895  14.386  26.378  11.419
 4247POPC   C4A62896  14.332  26.186  11.401
 4247POPC   C1B62897  14.325  26.800  11.554
 4247POPC   C2B62898  14.271  26.608  11.536
 4247POPC   C3B62899  14.217  26.416  11.519
 4247POPC   C4B62900  14.163  26.224  11.501
 4248POPC   NC362901  19.326   5.847  -4.834
 4248POPC   PO462902  19.224   5.890  -4.668
 4248POPC   GL162903  19.122   5.933  -4.502
 4248POPC   GL262904  19.053   5.865  -4.526
 4248POPC   C1A62905  19.020   5.976  -4.335
 4248POPC   D2A62906  18.917   6.020  -4.169
 4248POPC   C3A62907  18.815   6.063  -4.002
 4248POPC   C4A62908  18.713   6.106  -3.836
 4248POPC   C1B62909  19.122   5.837  -4.236
 4248POPC   C2B62910  19.020   5.880  -4.069
 4248POPC   C3B62911  18.918   5.923  -3.903
 4248POPC   C4B62912  18.816   5.966  -3.737
 4249POPC   NC362913   6.673   2.230  -6.099
 4249POPC   PO462914   6.704   2.313  -5.920
 4249POPC   GL162915   6.735   2.396  -5.741
 4249POPC   GL262916   6.784   2.314  -5.711
 4249POPC   C1A62917   6.766   2.479  -5.561
 4249POPC   D2A62918   6.798   2.561  -5.382
 4249POPC   C3A62919   6.829   2.644  -5.202
 4249POPC   C4A62920   6.860   2.727  -5.023
 4249POPC   C1B62921   6.938   2.556  -5.627
 4249POPC   C2B62922   6.970   2.639  -5.448
 4249POPC   C3B62923   7.001   2.722  -5.268
 4249POPC   C4B62924   7.032   2.805  -5.089
 4250POPC   NC362925   3.420  20.016  23.499
 4250POPC   PO462926   3.490  19.902  23.350
 4250POPC   GL162927   3.560  19.788  23.201
 4250POPC   GL262928   3.590  19.720  23.267
 4250POPC   C1A62929   3.630  19.675  23.052
 4250POPC   D2A62930   3.700  19.561  22.903
 4250POPC   C3A62931   3.770  19.448  22.754
 4250POPC   C4A62932   3.840  19.334  22.605
 4250POPC   C1B62933   3.452  19.584  23.038
 4250POPC   C2B62934   3.522  19.470  22.889
 4250POPC   C3B62935   3.592  19.357  22.740
 4250POPC   C4B62936   3.662  19.243  22.591
 4251POPC   NC362937   6.305  -5.318  18.860
 4251POPC   PO462938   6.343  -5.149  18.760
 4251POPC   GL162939   6.381  -4.980  18.660
 4251POPC   GL262940   6.469  -4.972  18.707
 4251POPC   C1A62941   6.419  -4.811  18.561
 4251POPC   D2A62942   6.456  -4.641  18.461
 4251POPC   C3A62943   6.494  -4.472  18.362
 4251POPC   C4A62944   6.532  -4.303  18.262
 4251POPC   C1B62945   6.506  -4.916  18.415
 4251POPC   C2B62946   6.544  -4.747  18.315
 4251POPC   C3B62947   6.582  -4.578  18.216
 4251POPC   C4B62948   6.620  -4.408  18.116
 4252POPC   NC362949  11.585  -2.925  22.307
 4252POPC   PO462950  11.559  -2.781  22.171
 4252POPC   GL162951  11.533  -2.637  22.035
 4252POPC   GL262952  11.563  -2.700  21.963
 4252POPC   C1A62953  11.508  -2.493  21.899
 4252POPC   D2A62954  11.482  -2.348  21.762
 4252POPC   C3A62955  11.457  -2.204  21.626
 4252POPC   C4A62956  11.431  -2.060  21.490
 4252POPC   C1B62957  11.318  -2.551  21.872
 4252POPC   C2B62958  11.293  -2.407  21.736
 4252POPC   C3B62959  11.267  -2.263  21.600
 4252POPC   C4B62960  11.242  -2.119  21.464
 4253POPC   NC362961  15.615  25.571  16.953
 4253POPC   PO462962  15.549  25.399  16.875
 4253POPC   GL162963  15.483  25.227  16.797
 4253POPC   GL262964  15.501  25.262  16.705
 4253POPC   C1A62965  15.417  25.055  16.718
 4253POPC   D2A62966  15.351  24.884  16.640
 4253POPC   C3A62967  15.285  24.712  16.561
 4253POPC   C4A62968  15.219  24.540  16.483
 4253POPC   C1B62969  15.602  24.980  16.727
 4253POPC   C2B62970  15.536  24.808  16.649
 4253POPC   C3B62971  15.470  24.637  16.570
 4253POPC   C4B62972  15.404  24.465  16.492
 4254POPC   NC362973   8.332  17.403  -6.466
 4254POPC   PO462974   8.348  17.321  -6.284
 4254POPC   GL162975   8.364  17.239  -6.102
 4254POPC   GL262976   8.384  17.329  -6.064
 4254POPC   C1A62977   8.380  17.158  -5.920
 4254POPC   D2A62978   8.397  17.076  -5.739
 4254POPC   C3A62979   8.413  16.995  -5.557
 4254POPC   C4A62980   8.429  16.913  -5.375
 4254POPC   C1B62981   8.185  17.188  -5.890
 4254POPC   C2B62982   8.201  17.106  -5.708
 4254POPC   C3B62983   8.217  17.024  -5.526
 4254POPC   C4B62984   8.234  16.943  -5.344
 4255POPC   NC362985  -1.295  21.489   1.646
 4255POPC   PO462986  -1.173  21.358   1.735
 4255POPC   GL162987  -1.051  21.227   1.824
 4255POPC   GL262988  -1.110  21.228   1.905
 4255POPC   C1A62989  -0.930  21.096   1.914
 4255POPC   D2A62990  -0.808  20.964   2.003
 4255POPC   C3A62991  -0.687  20.833   2.093
 4255POPC   C4A62992  -0.565  20.702   2.182
 4255POPC   C1B62993  -1.037  20.945   1.838
 4255POPC   C2B62994  -0.915  20.813   1.927
 4255POPC   C3B62995  -0.794  20.682   2.017
 4255POPC   C4B62996  -0.672  20.551   2.106
 4256POPC   NC362997   7.598  -6.936  15.866
 4256POPC   PO462998   7.624  -6.750  15.796
 4256POPC   GL162999   7.650  -6.564  15.726
 4256POPC   GL263000   7.716  -6.599  15.659
 4256POPC   C1A63001   7.676  -6.379  15.656
 4256POPC   D2A63002   7.702  -6.193  15.586
 4256POPC   C3A63003   7.728  -6.008  15.516
 4256POPC   C4A63004   7.754  -5.822  15.446
 4256POPC   C1B63005   7.528  -6.407  15.525
 4256POPC   C2B63006   7.554  -6.222  15.455
 4256POPC   C3B63007   7.580  -6.036  15.385
 4256POPC   C4B63008   7.606  -5.851  15.315
 4257POPC   NC363009  -3.895  11.380  -1.651
 4257POPC   PO463010  -3.746  11.371  -1.518
 4257POPC   GL163011  -3.597  11.362  -1.385
 4257POPC   GL263012  -3.610  11.459  -1.364
 4257POPC   C1A63013  -3.448  11.353  -1.252
 4257POPC   D2A63014  -3.300  11.343  -1.118
 4257POPC   C3A63015  -3.151  11.334  -0.985
 4257POPC   C4A63016  -3.002  11.325  -0.852
 4257POPC   C1B63017  -3.580  11.305  -1.108
 4257POPC   C2B63018  -3.431  11.296  -0.975
 4257POPC   C3B63019  -3.282  11.287  -0.842
 4257POPC   C4B63020  -3.133  11.278  -0.709
 4258POPC   NC363021  27.806  11.293   9.539
 4258POPC   PO463022  27.606  11.282   9.541
 4258POPC   GL163023  27.406  11.271   9.543
 4258POPC   GL263024  27.412  11.171   9.544
 4258POPC   C1A63025  27.207  11.260   9.545
 4258POPC   D2A63026  27.007  11.249   9.547
 4258POPC   C3A63027  26.808  11.238   9.549
 4258POPC   C4A63028  26.608  11.227   9.551
 4258POPC   C1B63029  27.209  11.261   9.745
 4258POPC   C2B63030  27.009  11.250   9.747
 4258POPC   C3B63031  26.809  11.239   9.749
 4258POPC   C4B63032  26.610  11.228   9.751
 4259POPC   NC363033  20.522   0.591  -1.146
 4259POPC   PO463034  20.401   0.692  -1.022
 4259POPC   GL163035  20.280   0.793  -0.898
 4259POPC   GL263036  20.207   0.787  -0.966
 4259POPC   C1A63037  20.159   0.893  -0.775
 4259POPC   D2A63038  20.038   0.994  -0.651
 4259POPC   C3A63039  19.917   1.094  -0.528
 4259POPC   C4A63040  19.796   1.195  -0.404
 4259POPC   C1B63041  20.097   0.721  -0.695
 4259POPC   C2B63042  19.976   0.821  -0.571
 4259POPC   C3B63043  19.855   0.922  -0.447
 4259POPC   C4B63044  19.734   1.022  -0.324
 4260POPC   NC363045  -7.420   5.105   8.355
 4260POPC   PO463046  -7.230   5.165   8.372
 4260POPC   GL163047  -7.040   5.225   8.389
 4260POPC   GL263048  -7.025   5.157   8.461
 4260POPC   C1A63049  -6.850   5.285   8.405
 4260POPC   D2A63050  -6.660   5.345   8.422
 4260POPC   C3A63051  -6.470   5.405   8.438
 4260POPC   C4A63052  -6.280   5.465   8.455
 4260POPC   C1B63053  -6.795   5.150   8.268
 4260POPC   C2B63054  -6.605   5.210   8.285
 4260POPC   C3B63055  -6.415   5.270   8.301
 4260POPC   C4B63056  -6.225   5.330   8.318
 4261POPC   NC363057  18.836  14.545  -5.068
 4261POPC   PO463058  18.733  14.493  -4.905
 4261POPC   GL163059  18.630  14.441  -4.742
 4261POPC   GL263060  18.546  14.439  -4.795
 4261POPC   C1A63061  18.527  14.389  -4.578
 4261POPC   D2A63062  18.424  14.336  -4.415
 4261POPC   C3A63063  18.321  14.284  -4.251
 4261POPC   C4A63064  18.218  14.232  -4.088
 4261POPC   C1B63065  18.558  14.196  -4.620
 4261POPC   C2B63066  18.455  14.143  -4.457
 4261POPC   C3B63067  18.352  14.091  -4.293
 4261POPC   C4B63068  18.249  14.039  -4.130
 4262POPC   NC363069  10.499  -7.997  11.030
 4262POPC   PO463070  10.494  -7.797  11.018
 4262POPC   GL163071  10.489  -7.597  11.006
 4262POPC   GL263072  10.560  -7.600  10.935
 4262POPC   C1A63073  10.484  -7.398  10.994
 4262POPC   D2A63074  10.478  -7.198  10.981
 4262POPC   C3A63075  10.473  -6.999  10.969
 4262POPC   C4A63076  10.468  -6.799  10.957
 4262POPC   C1B63077  10.343  -7.410  10.852
 4262POPC   C2B63078  10.338  -7.211  10.840
 4262POPC   C3B63079  10.332  -7.011  10.828
 4262POPC   C4B63080  10.327  -6.811  10.815
 4263POPC   NC363081  13.462  25.678   1.852
 4263POPC   PO463082  13.422  25.502   1.937
 4263POPC   GL163083  13.382  25.326   2.022
 4263POPC   GL263084  13.479  25.311   2.039
 4263POPC   C1A63085  13.341  25.150   2.108
 4263POPC   D2A63086  13.301  24.973   2.193
 4263POPC   C3A63087  13.260  24.797   2.279
 4263POPC   C4A63088  13.220  24.621   2.364
 4263POPC   C1B63089  13.324  25.240   2.285
 4263POPC   C2B63090  13.283  25.064   2.371
 4263POPC   C3B63091  13.243  24.887   2.456
 4263POPC   C4B63092  13.203  24.711   2.542
 4264POPC   NC363093  17.271  -2.040  21.166
 4264POPC   PO463094  17.187  -1.907  21.042
 4264POPC   GL163095  17.103  -1.774  20.918
 4264POPC   GL263096  17.099  -1.844  20.847
 4264POPC   C1A63097  17.019  -1.641  20.794
 4264POPC   D2A63098  16.936  -1.509  20.670
 4264POPC   C3A63099  16.852  -1.376  20.546
 4264POPC   C4A63100  16.768  -1.243  20.422
 4264POPC   C1B63101  16.838  -1.696  20.858
 4264POPC   C2B63102  16.754  -1.563  20.734
 4264POPC   C3B63103  16.670  -1.430  20.610
 4264POPC   C4B63104  16.587  -1.297  20.486
 4265POPC   NC363105  21.340   1.620  -1.121
 4265POPC   PO463106  21.212   1.711  -0.997
 4265POPC   GL163107  21.084   1.802  -0.873
 4265POPC   GL263108  21.008   1.774  -0.931
 4265POPC   C1A63109  20.957   1.893  -0.749
 4265POPC   D2A63110  20.829   1.985  -0.624
 4265POPC   C3A63111  20.702   2.076  -0.500
 4265POPC   C4A63112  20.574   2.167  -0.376
 4265POPC   C1B63113  20.939   1.725  -0.643
 4265POPC   C2B63114  20.812   1.816  -0.518
 4265POPC   C3B63115  20.684   1.907  -0.394
 4265POPC   C4B63116  20.556   1.998  -0.270
 4266POPC   NC363117  18.592  20.267  21.982
 4266POPC   PO463118  18.493  20.157  21.848
 4266POPC   GL163119  18.394  20.047  21.714
 4266POPC   GL263120  18.474  20.049  21.654
 4266POPC   C1A63121  18.295  19.936  21.580
 4266POPC   D2A63122  18.197  19.826  21.445
 4266POPC   C3A63123  18.098  19.715  21.311
 4266POPC   C4A63124  17.999  19.605  21.177
 4266POPC   C1B63125  18.365  19.770  21.666
 4266POPC   C2B63126  18.266  19.659  21.532
 4266POPC   C3B63127  18.167  19.549  21.397
 4266POPC   C4B63128  18.068  19.438  21.263
 4267POPC   NC363129  26.025   3.336   5.361
 4267POPC   PO463130  25.845   3.410   5.407
 4267POPC   GL163131  25.665   3.484   5.453
 4267POPC   GL263132  25.637   3.476   5.357
 4267POPC   C1A63133  25.485   3.558   5.499
 4267POPC   D2A63134  25.305   3.633   5.544
 4267POPC   C3A63135  25.125   3.707   5.590
 4267POPC   C4A63136  24.945   3.781   5.636
 4267POPC   C1B63137  25.418   3.373   5.534
 4267POPC   C2B63138  25.238   3.448   5.580
 4267POPC   C3B63139  25.058   3.522   5.626
 4267POPC   C4B63140  24.878   3.596   5.672
 4268POPC   NC363141   8.393  24.420  -0.728
 4268POPC   PO463142   8.411  24.261  -0.608
 4268POPC   GL163143   8.429  24.102  -0.488
 4268POPC   GL263144   8.462  24.161  -0.415
 4268POPC   C1A63145   8.447  23.943  -0.368
 4268POPC   D2A63146   8.465  23.784  -0.249
 4268POPC   C3A63147   8.483  23.625  -0.129
 4268POPC   C4A63148   8.501  23.466  -0.009
 4268POPC   C1B63149   8.259  23.969  -0.305
 4268POPC   C2B63150   8.277  23.810  -0.186
 4268POPC   C3B63151   8.295  23.651  -0.066
 4268POPC   C4B63152   8.313  23.492   0.054
 4269POPC   NC363153  16.374  -0.915  22.756
 4269POPC   PO463154  16.305  -0.791  22.615
 4269POPC   GL163155  16.236  -0.667  22.474
 4269POPC   GL263156  16.248  -0.739  22.405
 4269POPC   C1A63157  16.167  -0.543  22.333
 4269POPC   D2A63158  16.098  -0.419  22.192
 4269POPC   C3A63159  16.029  -0.295  22.051
 4269POPC   C4A63160  15.960  -0.171  21.910
 4269POPC   C1B63161  15.981  -0.608  22.367
 4269POPC   C2B63162  15.912  -0.484  22.226
 4269POPC   C3B63163  15.843  -0.360  22.085
 4269POPC   C4B63164  15.774  -0.236  21.944
 4270POPC   NC363165  -3.471   9.280  -2.134
 4270POPC   PO463166  -3.323   9.287  -2.000
 4270POPC   GL163167  -3.175   9.294  -1.866
 4270POPC   GL263168  -3.218   9.372  -1.822
 4270POPC   C1A63169  -3.026   9.301  -1.732
 4270POPC   D2A63170  -2.878   9.308  -1.598
 4270POPC   C3A63171  -2.729   9.315  -1.464
 4270POPC   C4A63172  -2.581   9.322  -1.330
 4270POPC   C1B63173  -3.128   9.177  -1.613
 4270POPC   C2B63174  -2.979   9.184  -1.479
 4270POPC   C3B63175  -2.831   9.191  -1.345
 4270POPC   C4B63176  -2.683   9.198  -1.211
 4271POPC   NC363177  11.632  -7.879  11.735
 4271POPC   PO463178  11.617  -7.681  11.715
 4271POPC   GL163179  11.602  -7.483  11.695
 4271POPC   GL263180  11.692  -7.480  11.652
 4271POPC   C1A63181  11.587  -7.284  11.674
 4271POPC   D2A63182  11.571  -7.086  11.654
 4271POPC   C3A63183  11.556  -6.887  11.633
 4271POPC   C4A63184  11.541  -6.689  11.613
 4271POPC   C1B63185  11.504  -7.309  11.494
 4271POPC   C2B63186  11.488  -7.111  11.474
 4271POPC   C3B63187  11.473  -6.912  11.453
 4271POPC   C4B63188  11.458  -6.714  11.433
 4272POPC   NC363189   3.507  25.611  16.355
 4272POPC   PO463190   3.579  25.438  16.285
 4272POPC   GL163191   3.651  25.265  16.215
 4272POPC   GL263192   3.643  25.225  16.306
 4272POPC   C1A63193   3.723  25.092  16.144
 4272POPC   D2A63194   3.794  24.919  16.074
 4272POPC   C3A63195   3.866  24.746  16.003
 4272POPC   C4A63196   3.938  24.573  15.933
 4272POPC   C1B63197   3.537  25.032  16.103
 4272POPC   C2B63198   3.608  24.859  16.032
 4272POPC   C3B63199   3.680  24.686  15.962
 4272POPC   C4B63200   3.752  24.513  15.891
 4273POPC   NC363201  20.172  -1.403  19.371
 4273POPC   PO463202  20.059  -1.277  19.264
 4273POPC   GL163203  19.946  -1.151  19.157
 4273POPC   GL263204  19.981  -1.074  19.210
 4273POPC   C1A63205  19.833  -1.026  19.050
 4273POPC   D2A63206  19.720  -0.900  18.943
 4273POPC   C3A63207  19.607  -0.775  18.836
 4273POPC   C4A63208  19.494  -0.649  18.729
 4273POPC   C1B63209  19.982  -1.004  18.919
 4273POPC   C2B63210  19.869  -0.878  18.812
 4273POPC   C3B63211  19.756  -0.752  18.705
 4273POPC   C4B63212  19.643  -0.627  18.598
 4274POPC   NC363213  26.901   4.015  10.464
 4274POPC   PO463214  26.712   4.081  10.455
 4274POPC   GL163215  26.523   4.147  10.446
 4274POPC   GL263216  26.498   4.068  10.390
 4274POPC   C1A63217  26.335   4.213  10.438
 4274POPC   D2A63218  26.146   4.279  10.429
 4274POPC   C3A63219  25.958   4.345  10.421
 4274POPC   C4A63220  25.769   4.411  10.412
 4274POPC   C1B63221  26.291   4.109  10.603
 4274POPC   C2B63222  26.102   4.175  10.594
 4274POPC   C3B63223  25.914   4.241  10.586
 4274POPC   C4B63224  25.725   4.307  10.577
 4275POPC   NC363225   3.795   3.933  25.845
 4275POPC   PO463226   3.858   3.999  25.667
 4275POPC   GL163227   3.921   4.065  25.489
 4275POPC   GL263228   3.921   4.159  25.524
 4275POPC   C1A63229   3.984   4.131  25.311
 4275POPC   D2A63230   4.047   4.198  25.133
 4275POPC   C3A63231   4.110   4.264  24.955
 4275POPC   C4A63232   4.173   4.330  24.777
 4275POPC   C1B63233   4.174   4.109  25.370
 4275POPC   C2B63234   4.237   4.175  25.192
 4275POPC   C3B63235   4.300   4.241  25.014
 4275POPC   C4B63236   4.363   4.307  24.836
 4276POPC   NC363237   6.940  14.866  27.032
 4276POPC   PO463238   6.973  14.819  26.840
 4276POPC   GL163239   7.006  14.772  26.648
 4276POPC   GL263240   7.076  14.706  26.677
 4276POPC   C1A63241   7.039  14.725  26.457
 4276POPC   D2A63242   7.073  14.678  26.265
 4276POPC   C3A63243   7.106  14.631  26.074
 4276POPC   C4A63244   7.139  14.584  25.882
 4276POPC   C1B63245   6.899  14.583  26.467
 4276POPC   C2B63246   6.932  14.536  26.276
 4276POPC   C3B63247   6.965  14.489  26.084
 4276POPC   C4B63248   6.999  14.442  25.893
 4277POPC   NC363249   3.668   6.949  -6.780
 4277POPC   PO463250   3.735   6.981  -6.594
 4277POPC   GL163251   3.802   7.013  -6.408
 4277POPC   GL263252   3.803   6.914  -6.392
 4277POPC   C1A63253   3.870   7.044  -6.223
 4277POPC   D2A63254   3.937   7.076  -6.037
 4277POPC   C3A63255   4.005   7.107  -5.852
 4277POPC   C4A63256   4.072   7.139  -5.666
 4277POPC   C1B63257   4.058   7.033  -6.289
 4277POPC   C2B63258   4.125   7.065  -6.104
 4277POPC   C3B63259   4.193   7.097  -5.918
 4277POPC   C4B63260   4.260   7.128  -5.733
 4278POPC   NC363261  23.105  13.800  -1.711
 4278POPC   PO463262  22.956  13.763  -1.582
 4278POPC   GL163263  22.807  13.726  -1.453
 4278POPC   GL263264  22.745  13.711  -1.530
 4278POPC   C1A63265  22.658  13.690  -1.325
 4278POPC   D2A63266  22.510  13.653  -1.196
 4278POPC   C3A63267  22.361  13.617  -1.068
 4278POPC   C4A63268  22.212  13.580  -0.939
 4278POPC   C1B63269  22.706  13.496  -1.324
 4278POPC   C2B63270  22.558  13.459  -1.196
 4278POPC   C3B63271  22.409  13.422  -1.067
 4278POPC   C4B63272  22.260  13.386  -0.939
 4279POPC   NC363273  -1.669  19.702  -0.051
 4279POPC   PO463274  -1.540  19.593   0.057
 4279POPC   GL163275  -1.411  19.484   0.165
 4279POPC   GL263276  -1.466  19.501   0.247
 4279POPC   C1A63277  -1.283  19.376   0.273
 4279POPC   D2A63278  -1.154  19.267   0.382
 4279POPC   C3A63279  -1.026  19.159   0.490
 4279POPC   C4A63280  -0.897  19.050   0.598
 4279POPC   C1B63281  -1.389  19.211   0.234
 4279POPC   C2B63282  -1.261  19.102   0.343
 4279POPC   C3B63283  -1.132  18.994   0.451
 4279POPC   C4B63284  -1.003  18.885   0.559
 4280POPC   NC363285  -7.832   6.475  10.541
 4280POPC   PO463286  -7.637   6.517  10.531
 4280POPC   GL163287  -7.442   6.559  10.521
 4280POPC   GL263288  -7.420   6.471  10.562
 4280POPC   C1A63289  -7.247   6.602  10.511
 4280POPC   D2A63290  -7.051   6.644  10.500
 4280POPC   C3A63291  -6.856   6.687  10.490
 4280POPC   C4A63292  -6.661   6.729  10.480
 4280POPC   C1B63293  -7.238   6.519  10.329
 4280POPC   C2B63294  -7.043   6.562  10.318
 4280POPC   C3B63295  -6.848   6.604  10.308
 4280POPC   C4B63296  -6.653   6.646  10.298
 4281POPC   NC363297  -8.178   8.826  10.510
 4281POPC   PO463298  -7.979   8.840  10.501
 4281POPC   GL163299  -7.780   8.854  10.492
 4281POPC   GL263300  -7.780   8.910  10.575
 4281POPC   C1A63301  -7.580   8.868  10.483
 4281POPC   D2A63302  -7.381   8.882  10.473
 4281POPC   C3A63303  -7.181   8.896  10.464
 4281POPC   C4A63304  -6.982   8.910  10.455
 4281POPC   C1B63305  -7.564   8.702  10.593
 4281POPC   C2B63306  -7.364   8.716  10.584
 4281POPC   C3B63307  -7.165   8.730  10.575
 4281POPC   C4B63308  -6.965   8.744  10.566
 4282POPC   NC363309  18.161  23.863   1.933
 4282POPC   PO463310  18.069  23.711   2.026
 4282POPC   GL163311  17.977  23.559   2.119
 4282POPC   GL263312  17.925  23.540   2.035
 4282POPC   C1A63313  17.885  23.408   2.211
 4282POPC   D2A63314  17.793  23.256   2.304
 4282POPC   C3A63315  17.701  23.105   2.396
 4282POPC   C4A63316  17.609  22.953   2.489
 4282POPC   C1B63317  18.029  23.283   2.150
 4282POPC   C2B63318  17.937  23.132   2.243
 4282POPC   C3B63319  17.845  22.980   2.336
 4282POPC   C4B63320  17.753  22.828   2.428
 4283POPC   NC363321   6.726  -0.474  24.348
 4283POPC   PO463322   6.759  -0.361  24.186
 4283POPC   GL163323   6.792  -0.248  24.024
 4283POPC   GL263324   6.887  -0.280  24.021
 4283POPC   C1A63325   6.825  -0.135  23.863
 4283POPC   D2A63326   6.859  -0.022  23.701
 4283POPC   C3A63327   6.892   0.091  23.540
 4283POPC   C4A63328   6.925   0.204  23.378
 4283POPC   C1B63329   6.770  -0.287  23.745
 4283POPC   C2B63330   6.803  -0.174  23.584
 4283POPC   C3B63331   6.836  -0.061  23.422
 4283POPC   C4B63332   6.869   0.052  23.260
 4284POPC   NC363333  19.677  23.433   2.938
 4284POPC   PO463334  19.567  23.289   3.023
 4284POPC   GL163335  19.457  23.145   3.108
 4284POPC   GL263336  19.414  23.126   3.020
 4284POPC   C1A63337  19.347  23.001   3.193
 4284POPC   D2A63338  19.237  22.858   3.278
 4284POPC   C3A63339  19.127  22.714   3.363
 4284POPC   C4A63340  19.017  22.570   3.448
 4284POPC   C1B63341  19.490  22.868   3.151
 4284POPC   C2B63342  19.380  22.724   3.236
 4284POPC   C3B63343  19.270  22.580   3.321
 4284POPC   C4B63344  19.160  22.436   3.406
 4285POPC   NC363345  22.752   3.762  -1.028
 4285POPC   PO463346  22.612   3.836  -0.905
 4285POPC   GL163347  22.472   3.910  -0.782
 4285POPC   GL263348  22.401   3.867  -0.838
 4285POPC   C1A63349  22.333   3.983  -0.659
 4285POPC   D2A63350  22.193   4.057  -0.537
 4285POPC   C3A63351  22.054   4.130  -0.414
 4285POPC   C4A63352  21.914   4.204  -0.291
 4285POPC   C1B63353  22.344   3.818  -0.548
 4285POPC   C2B63354  22.204   3.891  -0.425
 4285POPC   C3B63355  22.064   3.965  -0.302
 4285POPC   C4B63356  21.925   4.038  -0.179
 4286POPC   NC363357  -7.115  16.167   9.427
 4286POPC   PO463358  -6.927  16.099   9.431
 4286POPC   GL163359  -6.739  16.031   9.435
 4286POPC   GL263360  -6.705  16.123   9.414
 4286POPC   C1A63361  -6.551  15.963   9.440
 4286POPC   D2A63362  -6.363  15.895   9.444
 4286POPC   C3A63363  -6.175  15.827   9.449
 4286POPC   C4A63364  -5.987  15.759   9.453
 4286POPC   C1B63365  -6.540  16.006   9.635
 4286POPC   C2B63366  -6.352  15.938   9.639
 4286POPC   C3B63367  -6.164  15.870   9.644
 4286POPC   C4B63368  -5.976  15.802   9.648
 4287POPC   NC363369  -5.095  17.807  16.418
 4287POPC   PO463370  -4.932  17.718  16.345
 4287POPC   GL163371  -4.769  17.629  16.272
 4287POPC   GL263372  -4.725  17.634  16.362
 4287POPC   C1A63373  -4.605  17.540  16.199
 4287POPC   D2A63374  -4.442  17.450  16.126
 4287POPC   C3A63375  -4.278  17.361  16.053
 4287POPC   C4A63376  -4.115  17.272  15.980
 4287POPC   C1B63377  -4.682  17.361  16.247
 4287POPC   C2B63378  -4.518  17.272  16.174
 4287POPC   C3B63379  -4.355  17.183  16.101
 4287POPC   C4B63380  -4.191  17.093  16.028
 4288POPC   NC363381   3.441  23.833   0.336
 4288POPC   PO463382   3.511  23.679   0.443
 4288POPC   GL163383   3.581  23.525   0.550
 4288POPC   GL263384   3.589  23.585   0.630
 4288POPC   C1A63385   3.651  23.371   0.657
 4288POPC   D2A63386   3.721  23.218   0.764
 4288POPC   C3A63387   3.791  23.064   0.871
 4288POPC   C4A63388   3.861  22.910   0.978
 4288POPC   C1B63389   3.464  23.324   0.711
 4288POPC   C2B63390   3.534  23.171   0.818
 4288POPC   C3B63391   3.604  23.017   0.925
 4288POPC   C4B63392   3.674  22.863   1.032
 4289POPC   NC363393  24.040  19.359   3.926
 4289POPC   PO463394  23.882  19.253   3.986
 4289POPC   GL163395  23.724  19.147   4.046
 4289POPC   GL263396  23.776  19.062   4.035
 4289POPC   C1A63397  23.565  19.040   4.106
 4289POPC   D2A63398  23.407  18.934   4.165
 4289POPC   C3A63399  23.248  18.827   4.225
 4289POPC   C4A63400  23.090  18.721   4.285
 4289POPC   C1B63401  23.627  19.054   4.295
 4289POPC   C2B63402  23.469  18.948   4.355
 4289POPC   C3B63403  23.310  18.842   4.415
 4289POPC   C4B63404  23.152  18.735   4.475
 4290POPC   NC363405   4.547  -4.103  -0.069
 4290POPC   PO463406   4.605  -3.949   0.044
 4290POPC   GL163407   4.663  -3.795   0.157
 4290POPC   GL263408   4.739  -3.777   0.094
 4290POPC   C1A63409   4.722  -3.641   0.271
 4290POPC   D2A63410   4.780  -3.487   0.384
 4290POPC   C3A63411   4.839  -3.333   0.498
 4290POPC   C4A63412   4.897  -3.179   0.611
 4290POPC   C1B63413   4.604  -3.519   0.166
 4290POPC   C2B63414   4.662  -3.365   0.279
 4290POPC   C3B63415   4.720  -3.211   0.392
 4290POPC   C4B63416   4.779  -3.057   0.506
 4291POPC   NC363417  27.674  12.577  10.747
 4291POPC   PO463418  27.476  12.553  10.736
 4291POPC   GL163419  27.278  12.529  10.725
 4291POPC   GL263420  27.275  12.588  10.644
 4291POPC   C1A63421  27.080  12.505  10.714
 4291POPC   D2A63422  26.881  12.482  10.702
 4291POPC   C3A63423  26.683  12.458  10.691
 4291POPC   C4A63424  26.485  12.434  10.680
 4291POPC   C1B63425  27.105  12.345  10.597
 4291POPC   C2B63426  26.907  12.321  10.586
 4291POPC   C3B63427  26.709  12.298  10.574
 4291POPC   C4B63428  26.511  12.274  10.563
 4292POPC   NC363429  12.510  -7.223  14.716
 4292POPC   PO463430  12.480  -7.032  14.663
 4292POPC   GL163431  12.450  -6.841  14.610
 4292POPC   GL263432  12.512  -6.853  14.533
 4292POPC   C1A63433  12.420  -6.651  14.557
 4292POPC   D2A63434  12.389  -6.460  14.505
 4292POPC   C3A63435  12.359  -6.270  14.452
 4292POPC   C4A63436  12.329  -6.079  14.399
 4292POPC   C1B63437  12.266  -6.707  14.442
 4292POPC   C2B63438  12.236  -6.517  14.389
 4292POPC   C3B63439  12.206  -6.326  14.336
 4292POPC   C4B63440  12.176  -6.135  14.283
 4293POPC   NC363441  -4.770   3.436  18.354
 4293POPC   PO463442  -4.610   3.513  18.262
 4293POPC   GL163443  -4.450   3.590  18.170
 4293POPC   GL263444  -4.422   3.498  18.142
 4293POPC   C1A63445  -4.290   3.667  18.078
 4293POPC   D2A63446  -4.130   3.745  17.987
 4293POPC   C3A63447  -3.970   3.822  17.895
 4293POPC   C4A63448  -3.810   3.899  17.803
 4293POPC   C1B63449  -4.396   3.686  17.910
 4293POPC   C2B63450  -4.236   3.763  17.818
 4293POPC   C3B63451  -4.076   3.840  17.726
 4293POPC   C4B63452  -3.916   3.917  17.634
 4294POPC   NC363453  21.908   1.922  20.645
 4294POPC   PO463454  21.776   2.009  20.522
 4294POPC   GL163455  21.644   2.096  20.399
 4294POPC   GL263456  21.701   2.073  20.321
 4294POPC   C1A63457  21.512   2.183  20.277
 4294POPC   D2A63458  21.380   2.270  20.154
 4294POPC   C3A63459  21.248   2.357  20.032
 4294POPC   C4A63460  21.116   2.444  19.909
 4294POPC   C1B63461  21.415   2.009  20.258
 4294POPC   C2B63462  21.283   2.096  20.135
 4294POPC   C3B63463  21.151   2.183  20.012
 4294POPC   C4B63464  21.019   2.270  19.890
 4295POPC   NC363465  24.042  -1.159   9.135
 4295POPC   PO463466  23.884  -1.037   9.146
 4295POPC   GL163467  23.726  -0.915   9.157
 4295POPC   GL263468  23.704  -0.934   9.061
 4295POPC   C1A63469  23.568  -0.793   9.168
 4295POPC   D2A63470  23.409  -0.672   9.180
 4295POPC   C3A63471  23.251  -0.550   9.191
 4295POPC   C4A63472  23.093  -0.428   9.202
 4295POPC   C1B63473  23.453  -0.947   9.225
 4295POPC   C2B63474  23.295  -0.826   9.236
 4295POPC   C3B63475  23.137  -0.704   9.247
 4295POPC   C4B63476  22.978  -0.582   9.258
 4296POPC   NC363477   4.075  24.284   0.600
 4296POPC   PO463478   4.138  24.126   0.706
 4296POPC   GL163479   4.201  23.968   0.812
 4296POPC   GL263480   4.235  24.030   0.883
 4296POPC   C1A63481   4.263  23.811   0.918
 4296POPC   D2A63482   4.326  23.653   1.024
 4296POPC   C3A63483   4.388  23.496   1.130
 4296POPC   C4A63484   4.451  23.338   1.236
 4296POPC   C1B63485   4.086  23.803   1.011
 4296POPC   C2B63486   4.149  23.645   1.117
 4296POPC   C3B63487   4.212  23.488   1.223
 4296POPC   C4B63488   4.274  23.330   1.329
 4297POPC   NC363489  -5.817  11.715   1.097
 4297POPC   PO463490  -5.642  11.699   1.192
 4297POPC   GL163491  -5.467  11.683   1.287
 4297POPC   GL263492  -5.495  11.594   1.324
 4297POPC   C1A63493  -5.291  11.667   1.382
 4297POPC   D2A63494  -5.116  11.650   1.476
 4297POPC   C3A63495  -4.940  11.634   1.571
 4297POPC   C4A63496  -4.765  11.618   1.666
 4297POPC   C1B63497  -5.213  11.576   1.222
 4297POPC   C2B63498  -5.038  11.559   1.316
 4297POPC   C3B63499  -4.862  11.543   1.411
 4297POPC   C4B63500  -4.687  11.527   1.506
 4298POPC   NC363501  -3.054  22.196  13.209
 4298POPC   PO463502  -2.907  22.066  13.170
 4298POPC   GL163503  -2.760  21.936  13.131
 4298POPC   GL263504  -2.714  22.005  13.075
 4298POPC   C1A63505  -2.614  21.806  13.092
 4298POPC   D2A63506  -2.467  21.675  13.052
 4298POPC   C3A63507  -2.321  21.545  13.013
 4298POPC   C4A63508  -2.174  21.415  12.974
 4298POPC   C1B63509  -2.514  21.869  13.253
 4298POPC   C2B63510  -2.367  21.739  13.214
 4298POPC   C3B63511  -2.221  21.609  13.174
 4298POPC   C4B63512  -2.074  21.479  13.135
 4299POPC   NC363513  27.281  13.516   6.607
 4299POPC   PO463514  27.088  13.477   6.641
 4299POPC   GL163515  26.895  13.438   6.675
 4299POPC   GL263516  26.874  13.457   6.579
 4299POPC   C1A63517  26.702  13.399   6.710
 4299POPC   D2A63518  26.508  13.361   6.744
 4299POPC   C3A63519  26.315  13.322   6.779
 4299POPC   C4A63520  26.122  13.283   6.813
 4299POPC   C1B63521  26.733  13.207   6.666
 4299POPC   C2B63522  26.539  13.168   6.700
 4299POPC   C3B63523  26.346  13.129   6.735
 4299POPC   C4B63524  26.153  13.090   6.769
 4300POPC   NC363525   8.742  26.792  16.487
 4300POPC   PO463526   8.757  26.607  16.413
 4300POPC   GL163527   8.772  26.422  16.339
 4300POPC   GL263528   8.837  26.454  16.271
 4300POPC   C1A63529   8.786  26.237  16.265
 4300POPC   D2A63530   8.801  26.051  16.192
 4300POPC   C3A63531   8.815  25.866  16.118
 4300POPC   C4A63532   8.830  25.681  16.044
 4300POPC   C1B63533   8.937  26.198  16.391
 4300POPC   C2B63534   8.951  26.013  16.318
 4300POPC   C3B63535   8.966  25.828  16.244
 4300POPC   C4B63536   8.981  25.643  16.170
 4301POPC   NC363537  -5.858   8.661   1.166
 4301POPC   PO463538  -5.683   8.676   1.262
 4301POPC   GL163539  -5.508   8.691   1.358
 4301POPC   GL263540  -5.503   8.592   1.364
 4301POPC   C1A63541  -5.333   8.706   1.453
 4301POPC   D2A63542  -5.158   8.722   1.549
 4301POPC   C3A63543  -4.983   8.737   1.644
 4301POPC   C4A63544  -4.808   8.752   1.740
 4301POPC   C1B63545  -5.237   8.699   1.278
 4301POPC   C2B63546  -5.062   8.715   1.374
 4301POPC   C3B63547  -4.887   8.730   1.469
 4301POPC   C4B63548  -4.712   8.745   1.565
 4302POPC   NC363549  19.229  19.279  22.247
 4302POPC   PO463550  19.122  19.182  22.109
 4302POPC   GL163551  19.015  19.085  21.971
 4302POPC   GL263552  19.074  19.005  21.981
 4302POPC   C1A63553  18.908  18.988  21.832
 4302POPC   D2A63554  18.801  18.891  21.694
 4302POPC   C3A63555  18.694  18.794  21.555
 4302POPC   C4A63556  18.587  18.697  21.417
 4302POPC   C1B63557  18.787  18.917  21.975
 4302POPC   C2B63558  18.680  18.820  21.837
 4302POPC   C3B63559  18.573  18.723  21.698
 4302POPC   C4B63560  18.466  18.626  21.560
 4303POPC   NC363561  18.766  -5.416  12.897
 4303POPC   PO463562  18.667  -5.245  12.864
 4303POPC   GL163563  18.568  -5.074  12.831
 4303POPC   GL263564  18.652  -5.032  12.796
 4303POPC   C1A63565  18.469  -4.903  12.798
 4303POPC   D2A63566  18.371  -4.733  12.766
 4303POPC   C3A63567  18.272  -4.562  12.733
 4303POPC   C4A63568  18.173  -4.391  12.700
 4303POPC   C1B63569  18.424  -4.965  12.614
 4303POPC   C2B63570  18.325  -4.795  12.581
 4303POPC   C3B63571  18.226  -4.624  12.548
 4303POPC   C4B63572  18.127  -4.453  12.515
 4304POPC   NC363573   9.328  -8.013   9.209
 4304POPC   PO463574   9.336  -7.813   9.217
 4304POPC   GL163575   9.344  -7.613   9.225
 4304POPC   GL263576   9.424  -7.614   9.166
 4304POPC   C1A63577   9.351  -7.413   9.233
 4304POPC   D2A63578   9.359  -7.214   9.240
 4304POPC   C3A63579   9.366  -7.014   9.248
 4304POPC   C4A63580   9.374  -6.814   9.256
 4304POPC   C1B63581   9.233  -7.403   9.072
 4304POPC   C2B63582   9.241  -7.203   9.079
 4304POPC   C3B63583   9.248  -7.003   9.087
 4304POPC   C4B63584   9.256  -6.803   9.095
 4305POPC   NC363585  22.161  18.245  -0.424
 4305POPC   PO463586  22.025  18.150  -0.312
 4305POPC   GL163587  21.889  18.055  -0.200
 4305POPC   GL263588  21.822  18.064  -0.273
 4305POPC   C1A63589  21.754  17.960  -0.088
 4305POPC   D2A63590  21.618  17.865   0.025
 4305POPC   C3A63591  21.483  17.770   0.137
 4305POPC   C4A63592  21.347  17.675   0.249
 4305POPC   C1B63593  21.813  17.785  -0.164
 4305POPC   C2B63594  21.678  17.690  -0.051
 4305POPC   C3B63595  21.542  17.595   0.061
 4305POPC   C4B63596  21.407  17.500   0.173
 4306POPC   NC363597  -0.058  24.995  11.695
 4306POPC   PO463598   0.050  24.828  11.680
 4306POPC   GL163599   0.158  24.661  11.665
 4306POPC   GL263600   0.240  24.715  11.645
 4306POPC   C1A63601   0.266  24.493  11.649
 4306POPC   D2A63602   0.375  24.326  11.634
 4306POPC   C3A63603   0.483  24.158  11.618
 4306POPC   C4A63604   0.591  23.991  11.603
 4306POPC   C1B63605   0.307  24.502  11.845
 4306POPC   C2B63606   0.415  24.334  11.829
 4306POPC   C3B63607   0.524  24.167  11.814
 4306POPC   C4B63608   0.632  23.999  11.799
 4307POPC   NC363609  19.826  24.833   7.704
 4307POPC   PO463610  19.720  24.664   7.723
 4307POPC   GL163611  19.614  24.495   7.742
 4307POPC   GL263612  19.681  24.447   7.686
 4307POPC   C1A63613  19.509  24.326   7.762
 4307POPC   D2A63614  19.403  24.158   7.781
 4307POPC   C3A63615  19.298  23.989   7.801
 4307POPC   C4A63616  19.192  23.820   7.820
 4307POPC   C1B63617  19.613  24.280   7.926
 4307POPC   C2B63618  19.508  24.111   7.945
 4307POPC   C3B63619  19.402  23.942   7.965
 4307POPC   C4B63620  19.296  23.774   7.984
 4308POPC   NC363621  -0.292  24.237  14.391
 4308POPC   PO463622  -0.185  24.078  14.334
 4308POPC   GL163623  -0.078  23.919  14.277
 4308POPC   GL263624   0.004  23.959  14.318
 4308POPC   C1A63625   0.028  23.759  14.220
 4308POPC   D2A63626   0.135  23.600  14.164
 4308POPC   C3A63627   0.241  23.440  14.107
 4308POPC   C4A63628   0.348  23.281  14.050
 4308POPC   C1B63629  -0.014  23.669  14.394
 4308POPC   C2B63630   0.093  23.510  14.337
 4308POPC   C3B63631   0.199  23.350  14.280
 4308POPC   C4B63632   0.306  23.191  14.224
 4309POPC   NC363633   5.835   1.101  -5.335
 4309POPC   PO463634   5.879   1.200  -5.167
 4309POPC   GL163635   5.923   1.299  -4.999
 4309POPC   GL263636   6.002   1.239  -4.985
 4309POPC   C1A63637   5.968   1.398  -4.831
 4309POPC   D2A63638   6.012   1.496  -4.663
 4309POPC   C3A63639   6.057   1.595  -4.495
 4309POPC   C4A63640   6.101   1.694  -4.327
 4309POPC   C1B63641   6.082   1.524  -4.936
 4309POPC   C2B63642   6.127   1.623  -4.768
 4309POPC   C3B63643   6.171   1.722  -4.600
 4309POPC   C4B63644   6.215   1.820  -4.432
 4310POPC   NC363645  12.054  25.704  18.547
 4310POPC   PO463646  12.025  25.532  18.450
 4310POPC   GL163647  11.996  25.360  18.353
 4310POPC   GL263648  12.092  25.360  18.323
 4310POPC   C1A63649  11.968  25.188  18.255
 4310POPC   D2A63650  11.939  25.015  18.158
 4310POPC   C3A63651  11.911  24.843  18.060
 4310POPC   C4A63652  11.882  24.671  17.963
 4310POPC   C1B63653  12.019  25.086  18.420
 4310POPC   C2B63654  11.990  24.914  18.322
 4310POPC   C3B63655  11.961  24.742  18.225
 4310POPC   C4B63656  11.933  24.569  18.128
 4311POPC   NC363657   4.814  25.828  16.946
 4311POPC   PO463658   4.870  25.651  16.871
 4311POPC   GL163659   4.926  25.474  16.796
 4311POPC   GL263660   5.021  25.494  16.820
 4311POPC   C1A63661   4.982  25.298  16.720
 4311POPC   D2A63662   5.037  25.121  16.645
 4311POPC   C3A63663   5.093  24.945  16.569
 4311POPC   C4A63664   5.149  24.768  16.494
 4311POPC   C1B63665   4.953  25.212  16.899
 4311POPC   C2B63666   5.009  25.036  16.823
 4311POPC   C3B63667   5.064  24.859  16.748
 4311POPC   C4B63668   5.120  24.683  16.673
 4312POPC   NC363669  12.794   6.277  27.351
 4312POPC   PO463670  12.759   6.316  27.158
 4312POPC   GL163671  12.724   6.355  26.965
 4312POPC   GL263672  12.776   6.274  26.939
 4312POPC   C1A63673  12.689   6.394  26.772
 4312POPC   D2A63674  12.654   6.434  26.579
 4312POPC   C3A63675  12.619   6.473  26.386
 4312POPC   C4A63676  12.584   6.512  26.193
 4312POPC   C1B63677  12.521   6.286  26.780
 4312POPC   C2B63678  12.486   6.325  26.587
 4312POPC   C3B63679  12.451   6.364  26.394
 4312POPC   C4B63680  12.416   6.403  26.201
 4313POPC   NC363681   7.984  21.528  23.662
 4313POPC   PO463682   8.008  21.396  23.513
 4313POPC   GL163683   8.032  21.264  23.364
 4313POPC   GL263684   8.113  21.314  23.333
 4313POPC   C1A63685   8.057  21.133  23.216
 4313POPC   D2A63686   8.081  21.001  23.067
 4313POPC   C3A63687   8.106  20.870  22.919
 4313POPC   C4A63688   8.130  20.738  22.770
 4313POPC   C1B63689   8.172  21.020  23.335
 4313POPC   C2B63690   8.196  20.889  23.186
 4313POPC   C3B63691   8.221  20.757  23.037
 4313POPC   C4B63692   8.245  20.625  22.889
 4314POPC   NC363693   6.303  -7.059  14.791
 4314POPC   PO463694   6.342  -6.870  14.737
 4314POPC   GL163695   6.381  -6.681  14.683
 4314POPC   GL263696   6.471  -6.709  14.650
 4314POPC   C1A63697   6.419  -6.492  14.630
 4314POPC   D2A63698   6.458  -6.304  14.576
 4314POPC   C3A63699   6.496  -6.115  14.523
 4314POPC   C4A63700   6.535  -5.926  14.469
 4314POPC   C1B63701   6.342  -6.528  14.449
 4314POPC   C2B63702   6.380  -6.339  14.395
 4314POPC   C3B63703   6.419  -6.150  14.342
 4314POPC   C4B63704   6.457  -5.962  14.288
 4315POPC   NC363705  10.517  12.536  -7.939
 4315POPC   PO463706  10.510  12.505  -7.742
 4315POPC   GL163707  10.503  12.474  -7.545
 4315POPC   GL263708  10.550  12.386  -7.557
 4315POPC   C1A63709  10.496  12.442  -7.347
 4315POPC   D2A63710  10.490  12.411  -7.150
 4315POPC   C3A63711  10.483  12.379  -6.952
 4315POPC   C4A63712  10.476  12.348  -6.755
 4315POPC   C1B63713  10.673  12.534  -7.327
 4315POPC   C2B63714  10.666  12.502  -7.129
 4315POPC   C3B63715  10.659  12.471  -6.932
 4315POPC   C4B63716  10.653  12.440  -6.734
 4316POPC   NC363717  21.445  -3.593  12.645
 4316POPC   PO463718  21.318  -3.442  12.614
 4316POPC   GL163719  21.191  -3.291  12.583
 4316POPC   GL263720  21.234  -3.239  12.657
 4316POPC   C1A63721  21.063  -3.140  12.553
 4316POPC   D2A63722  20.936  -2.989  12.522
 4316POPC   C3A63723  20.808  -2.838  12.492
 4316POPC   C4A63724  20.681  -2.687  12.461
 4316POPC   C1B63725  21.190  -3.060  12.420
 4316POPC   C2B63726  21.063  -2.909  12.390
 4316POPC   C3B63727  20.935  -2.758  12.359
 4316POPC   C4B63728  20.808  -2.607  12.329
 4317POPC   NC363729   5.359  27.362   7.628
 4317POPC   PO463730   5.408  27.170   7.652
 4317POPC   GL163731   5.457  26.978   7.676
 4317POPC   GL263732   5.447  26.988   7.775
 4317POPC   C1A63733   5.505  26.785   7.701
 4317POPC   D2A63734   5.554  26.593   7.725
 4317POPC   C3A63735   5.602  26.400   7.750
 4317POPC   C4A63736   5.651  26.208   7.774
 4317POPC   C1B63737   5.312  26.735   7.687
 4317POPC   C2B63738   5.361  26.542   7.712
 4317POPC   C3B63739   5.409  26.350   7.736
 4317POPC   C4B63740   5.458  26.158   7.760
 4318POPC   NC363741  15.370  24.823   1.263
 4318POPC   PO463742  15.309  24.657   1.356
 4318POPC   GL163743  15.248  24.491   1.449
 4318POPC   GL263744  15.305  24.514   1.528
 4318POPC   C1A63745  15.187  24.325   1.542
 4318POPC   D2A63746  15.125  24.159   1.636
 4318POPC   C3A63747  15.064  23.993   1.729
 4318POPC   C4A63748  15.003  23.827   1.822
 4318POPC   C1B63749  15.035  24.427   1.624
 4318POPC   C2B63750  14.974  24.261   1.717
 4318POPC   C3B63751  14.912  24.095   1.810
 4318POPC   C4B63752  14.851  23.929   1.904
 4319POPC   NC363753  26.698  10.535  16.489
 4319POPC   PO463754  26.511  10.524  16.418
 4319POPC   GL163755  26.324  10.513  16.347
 4319POPC   GL263756  26.347  10.427  16.300
 4319POPC   C1A63757  26.138  10.502  16.275
 4319POPC   D2A63758  25.951  10.490  16.204
 4319POPC   C3A63759  25.765  10.479  16.132
 4319POPC   C4A63760  25.578  10.468  16.061
 4319POPC   C1B63761  26.082  10.398  16.437
 4319POPC   C2B63762  25.896  10.387  16.366
 4319POPC   C3B63763  25.709  10.376  16.294
 4319POPC   C4B63764  25.522  10.364  16.223
 4320POPC   NC363765  13.496  19.970  24.527
 4320POPC   PO463766  13.456  19.862  24.363
 4320POPC   GL163767  13.416  19.754  24.199
 4320POPC   GL263768  13.513  19.732  24.190
 4320POPC   C1A63769  13.377  19.646  24.035
 4320POPC   D2A63770  13.337  19.539  23.872
 4320POPC   C3A63771  13.298  19.431  23.708
 4320POPC   C4A63772  13.258  19.323  23.544
 4320POPC   C1B63773  13.351  19.484  24.149
 4320POPC   C2B63774  13.311  19.376  23.985
 4320POPC   C3B63775  13.271  19.268  23.821
 4320POPC   C4B63776  13.232  19.160  23.657
 4321POPC   NC363777  10.507  -5.458   0.598
 4321POPC   PO463778  10.501  -5.287   0.702
 4321POPC   GL163779  10.495  -5.116   0.806
 4321POPC   GL263780  10.507  -5.167   0.891
 4321POPC   C1A63781  10.489  -4.945   0.910
 4321POPC   D2A63782  10.482  -4.775   1.013
 4321POPC   C3A63783  10.476  -4.604   1.117
 4321POPC   C4A63784  10.470  -4.433   1.221
 4321POPC   C1B63785  10.687  -4.928   0.892
 4321POPC   C2B63786  10.681  -4.757   0.996
 4321POPC   C3B63787  10.675  -4.586   1.100
 4321POPC   C4B63788  10.668  -4.415   1.203
 4322POPC   NC363789   1.093   7.939  25.654
 4322POPC   PO463790   1.192   7.968  25.483
 4322POPC   GL163791   1.291   7.997  25.312
 4322POPC   GL263792   1.320   7.902  25.312
 4322POPC   C1A63793   1.390   8.026  25.140
 4322POPC   D2A63794   1.488   8.056  24.969
 4322POPC   C3A63795   1.587   8.085  24.797
 4322POPC   C4A63796   1.686   8.114  24.626
 4322POPC   C1B63797   1.226   7.975  25.037
 4322POPC   C2B63798   1.325   8.004  24.866
 4322POPC   C3B63799   1.424   8.033  24.694
 4322POPC   C4B63800   1.523   8.062  24.523
 4323POPC   NC363801   7.624  22.738  22.455
 4323POPC   PO463802   7.652  22.598  22.315
 4323POPC   GL163803   7.680  22.458  22.175
 4323POPC   GL263804   7.714  22.528  22.112
 4323POPC   C1A63805   7.708  22.318  22.035
 4323POPC   D2A63806   7.737  22.179  21.894
 4323POPC   C3A63807   7.765  22.039  21.754
 4323POPC   C4A63808   7.793  21.899  21.614
 4323POPC   C1B63809   7.894  22.288  22.102
 4323POPC   C2B63810   7.922  22.148  21.962
 4323POPC   C3B63811   7.951  22.009  21.822
 4323POPC   C4B63812   7.979  21.869  21.681
 4324POPC   NC363813  24.035  18.949  16.652
 4324POPC   PO463814  23.880  18.843  16.581
 4324POPC   GL163815  23.725  18.737  16.510
 4324POPC   GL263816  23.704  18.812  16.447
 4324POPC   C1A63817  23.571  18.632  16.440
 4324POPC   D2A63818  23.416  18.526  16.369
 4324POPC   C3A63819  23.262  18.421  16.299
 4324POPC   C4A63820  23.107  18.315  16.228
 4324POPC   C1B63821  23.690  18.550  16.302
 4324POPC   C2B63822  23.535  18.444  16.231
 4324POPC   C3B63823  23.381  18.338  16.161
 4324POPC   C4B63824  23.226  18.233  16.090
 4325POPC   NC363825   0.276  25.050   8.019
 4325POPC   PO463826   0.384  24.883   8.042
 4325POPC   GL163827   0.492  24.716   8.065
 4325POPC   GL263828   0.478  24.721   8.164
 4325POPC   C1A63829   0.600  24.550   8.088
 4325POPC   D2A63830   0.709  24.383   8.112
 4325POPC   C3A63831   0.817  24.217   8.135
 4325POPC   C4A63832   0.925  24.050   8.158
 4325POPC   C1B63833   0.434  24.440   8.071
 4325POPC   C2B63834   0.543  24.273   8.094
 4325POPC   C3B63835   0.651  24.106   8.117
 4325POPC   C4B63836   0.759  23.940   8.140
 4326POPC   NC363837  27.380   5.998  11.631
 4326POPC   PO463838  27.185   6.041  11.612
 4326POPC   GL163839  26.990   6.084  11.593
 4326POPC   GL263840  26.988   6.036  11.506
 4326POPC   C1A63841  26.796   6.126  11.575
 4326POPC   D2A63842  26.601   6.169  11.556
 4326POPC   C3A63843  26.407   6.211  11.538
 4326POPC   C4A63844  26.212   6.254  11.519
 4326POPC   C1B63845  26.749   5.956  11.669
 4326POPC   C2B63846  26.555   5.998  11.650
 4326POPC   C3B63847  26.360   6.041  11.631
 4326POPC   C4B63848  26.166   6.084  11.613
 4327POPC   NC363849   2.285  25.410   4.509
 4327POPC   PO463850   2.376  25.242   4.569
 4327POPC   GL163851   2.467  25.074   4.629
 4327POPC   GL263852   2.556  25.116   4.609
 4327POPC   C1A63853   2.559  24.907   4.689
 4327POPC   D2A63854   2.650  24.739   4.749
 4327POPC   C3A63855   2.742  24.572   4.809
 4327POPC   C4A63856   2.833  24.404   4.869
 4327POPC   C1B63857   2.568  24.979   4.875
 4327POPC   C2B63858   2.660  24.811   4.935
 4327POPC   C3B63859   2.751  24.643   4.995
 4327POPC   C4B63860   2.842  24.476   5.055
 4328POPC   NC363861  20.586  -0.202  20.246
 4328POPC   PO463862  20.469  -0.089  20.130
 4328POPC   GL163863  20.352   0.024  20.014
 4328POPC   GL263864  20.421   0.024  19.943
 4328POPC   C1A63865  20.234   0.138  19.899
 4328POPC   D2A63866  20.117   0.251  19.783
 4328POPC   C3A63867  19.999   0.365  19.668
 4328POPC   C4A63868  19.882   0.478  19.552
 4328POPC   C1B63869  20.152  -0.027  19.821
 4328POPC   C2B63870  20.035   0.086  19.705
 4328POPC   C3B63871  19.917   0.200  19.589
 4328POPC   C4B63872  19.800   0.313  19.474
 4329POPC   NC363873  26.851  12.024  15.601
 4329POPC   PO463874  26.662  11.997  15.541
 4329POPC   GL163875  26.473  11.970  15.481
 4329POPC   GL263876  26.469  12.065  15.450
 4329POPC   C1A63877  26.284  11.943  15.421
 4329POPC   D2A63878  26.095  11.915  15.362
 4329POPC   C3A63879  25.906  11.888  15.302
 4329POPC   C4A63880  25.717  11.861  15.242
 4329POPC   C1B63881  26.349  11.886  15.241
 4329POPC   C2B63882  26.160  11.859  15.181
 4329POPC   C3B63883  25.971  11.832  15.121
 4329POPC   C4B63884  25.782  11.804  15.062
 4330POPC   NC363885   2.361   1.445  23.994
 4330POPC   PO463886   2.450   1.537  23.840
 4330POPC   GL163887   2.539   1.629  23.686
 4330POPC   GL263888   2.546   1.713  23.740
 4330POPC   C1A63889   2.627   1.721  23.532
 4330POPC   D2A63890   2.716   1.813  23.378
 4330POPC   C3A63891   2.804   1.905  23.224
 4330POPC   C4A63892   2.893   1.997  23.070
 4330POPC   C1B63893   2.806   1.662  23.599
 4330POPC   C2B63894   2.895   1.754  23.445
 4330POPC   C3B63895   2.983   1.846  23.291
 4330POPC   C4B63896   3.072   1.938  23.137
 4331POPC   NC363897  -4.810  13.844   0.009
 4331POPC   PO463898  -4.646  13.800   0.115
 4331POPC   GL163899  -4.482  13.756   0.221
 4331POPC   GL263900  -4.532  13.683   0.268
 4331POPC   C1A63901  -4.318  13.712   0.327
 4331POPC   D2A63902  -4.155  13.669   0.434
 4331POPC   C3A63903  -3.991  13.625   0.540
 4331POPC   C4A63904  -3.827  13.581   0.646
 4331POPC   C1B63905  -4.262  13.583   0.186
 4331POPC   C2B63906  -4.098  13.539   0.292
 4331POPC   C3B63907  -3.934  13.495   0.399
 4331POPC   C4B63908  -3.770  13.451   0.505
 4332POPC   NC363909   0.947   8.210  25.611
 4332POPC   PO463910   1.047   8.235  25.440
 4332POPC   GL163911   1.147   8.260  25.269
 4332POPC   GL263912   1.224   8.208  25.306
 4332POPC   C1A63913   1.248   8.285  25.098
 4332POPC   D2A63914   1.348   8.310  24.926
 4332POPC   C3A63915   1.449   8.335  24.755
 4332POPC   C4A63916   1.549   8.360  24.584
 4332POPC   C1B63917   1.168   8.116  25.026
 4332POPC   C2B63918   1.268   8.141  24.855
 4332POPC   C3B63919   1.368   8.166  24.684
 4332POPC   C4B63920   1.469   8.191  24.512
 4333POPC   NC363921  24.292   7.300  -0.592
 4333POPC   PO463922  24.131   7.324  -0.476
 4333POPC   GL163923  23.970   7.348  -0.360
 4333POPC   GL263924  23.911   7.334  -0.439
 4333POPC   C1A63925  23.809   7.373  -0.243
 4333POPC   D2A63926  23.649   7.397  -0.127
 4333POPC   C3A63927  23.488   7.422  -0.010
 4333POPC   C4A63928  23.327   7.446   0.106
 4333POPC   C1B63929  23.807   7.176  -0.205
 4333POPC   C2B63930  23.646   7.201  -0.089
 4333POPC   C3B63931  23.486   7.225   0.028
 4333POPC   C4B63932  23.325   7.250   0.144
 4334POPC   NC363933  -6.181  16.608   5.174
 4334POPC   PO463934  -6.003  16.536   5.230
 4334POPC   GL163935  -5.825  16.464   5.286
 4334POPC   GL263936  -5.844  16.491   5.380
 4334POPC   C1A63937  -5.647  16.392   5.342
 4334POPC   D2A63938  -5.469  16.321   5.398
 4334POPC   C3A63939  -5.291  16.249   5.454
 4334POPC   C4A63940  -5.113  16.177   5.510
 4334POPC   C1B63941  -5.730  16.214   5.377
 4334POPC   C2B63942  -5.552  16.142   5.433
 4334POPC   C3B63943  -5.374  16.070   5.489
 4334POPC   C4B63944  -5.196  15.998   5.545
 4335POPC   NC363945  16.882  14.273  -6.179
 4335POPC   PO463946  16.806  14.226  -6.000
 4335POPC   GL163947  16.730  14.179  -5.821
 4335POPC   GL263948  16.681  14.102  -5.862
 4335POPC   C1A63949  16.653  14.132  -5.642
 4335POPC   D2A63950  16.577  14.086  -5.464
 4335POPC   C3A63951  16.500  14.039  -5.285
 4335POPC   C4A63952  16.424  13.992  -5.106
 4335POPC   C1B63953  16.810  14.014  -5.606
 4335POPC   C2B63954  16.734  13.967  -5.428
 4335POPC   C3B63955  16.657  13.920  -5.249
 4335POPC   C4B63956  16.581  13.873  -5.070
 4336POPC   NC363957  18.592  25.687  10.230
 4336POPC   PO463958  18.496  25.512  10.228
 4336POPC   GL163959  18.400  25.337  10.226
 4336POPC   GL263960  18.473  25.295  10.279
 4336POPC   C1A63961  18.303  25.162  10.224
 4336POPC   D2A63962  18.207  24.986  10.221
 4336POPC   C3A63963  18.110  24.811  10.219
 4336POPC   C4A63964  18.014  24.636  10.217
 4336POPC   C1B63965  18.209  25.212  10.393
 4336POPC   C2B63966  18.112  25.036  10.390
 4336POPC   C3B63967  18.016  24.861  10.388
 4336POPC   C4B63968  17.920  24.686  10.386
 4337POPC   NC363969  26.308  17.215   8.765
 4337POPC   PO463970  26.125  17.135   8.781
 4337POPC   GL163971  25.942  17.055   8.797
 4337POPC   GL263972  25.981  16.964   8.789
 4337POPC   C1A63973  25.759  16.976   8.813
 4337POPC   D2A63974  25.577  16.896   8.828
 4337POPC   C3A63975  25.394  16.817   8.844
 4337POPC   C4A63976  25.211  16.737   8.860
 4337POPC   C1B63977  25.780  16.967   9.011
 4337POPC   C2B63978  25.598  16.887   9.027
 4337POPC   C3B63979  25.415  16.808   9.043
 4337POPC   C4B63980  25.232  16.728   9.059
 4338POPC   NC363981   4.256  -6.340   4.638
 4338POPC   PO463982   4.316  -6.159   4.697
 4338POPC   GL163983   4.376  -5.978   4.756
 4338POPC   GL263984   4.345  -5.998   4.849
 4338POPC   C1A63985   4.436  -5.796   4.815
 4338POPC   D2A63986   4.495  -5.615   4.874
 4338POPC   C3A63987   4.555  -5.433   4.933
 4338POPC   C4A63988   4.615  -5.252   4.992
 4338POPC   C1B63989   4.616  -5.870   4.859
 4338POPC   C2B63990   4.676  -5.689   4.918
 4338POPC   C3B63991   4.736  -5.507   4.977
 4338POPC   C4B63992   4.795  -5.326   5.036
 4339POPC   NC363993  -5.511  15.680   2.490
 4339POPC   PO463994  -5.339  15.615   2.568
 4339POPC   GL163995  -5.167  15.550   2.646
 4339POPC   GL263996  -5.186  15.600   2.731
 4339POPC   C1A63997  -4.995  15.485   2.725
 4339POPC   D2A63998  -4.823  15.419   2.803
 4339POPC   C3A63999  -4.651  15.354   2.882
 4339POPC   C4A64000  -4.479  15.289   2.960
 4339POPC   C1B64001  -5.089  15.324   2.799
 4339POPC   C2B64002  -4.917  15.259   2.877
 4339POPC   C3B64003  -4.745  15.194   2.955
 4339POPC   C4B64004  -4.573  15.129   3.034
 4340POPC   NC364005  18.038  21.762  -1.021
 4340POPC   PO464006  17.943  21.628  -0.906
 4340POPC   GL164007  17.848  21.494  -0.791
 4340POPC   GL264008  17.930  21.437  -0.791
 4340POPC   C1A64009  17.753  21.361  -0.677
 4340POPC   D2A64010  17.658  21.227  -0.562
 4340POPC   C3A64011  17.563  21.094  -0.448
 4340POPC   C4A64012  17.468  20.960  -0.333
 4340POPC   C1B64013  17.818  21.455  -0.513
 4340POPC   C2B64014  17.723  21.322  -0.398
 4340POPC   C3B64015  17.628  21.188  -0.284
 4340POPC   C4B64016  17.533  21.055  -0.169
 4341POPC   NC364017  21.995  -0.123   1.193
 4341POPC   PO464018  21.861  -0.013   1.293
 4341POPC   GL164019  21.727   0.097   1.393
 4341POPC   GL264020  21.801   0.157   1.425
 4341POPC   C1A64021  21.594   0.207   1.493
 4341POPC   D2A64022  21.460   0.317   1.594
 4341POPC   C3A64023  21.327   0.427   1.694
 4341POPC   C4A64024  21.193   0.537   1.794
 4341POPC   C1B64025  21.569   0.324   1.333
 4341POPC   C2B64026  21.436   0.434   1.433
 4341POPC   C3B64027  21.302   0.544   1.533
 4341POPC   C4B64028  21.169   0.654   1.633
 4342POPC   NC364029  16.960  17.098  24.938
 4342POPC   PO464030  16.881  17.019  24.772
 4342POPC   GL164031  16.802  16.940  24.606
 4342POPC   GL264032  16.823  17.024  24.556
 4342POPC   C1A64033  16.723  16.861  24.440
 4342POPC   D2A64034  16.643  16.782  24.275
 4342POPC   C3A64035  16.564  16.703  24.109
 4342POPC   C4A64036  16.485  16.624  23.943
 4342POPC   C1B64037  16.901  16.786  24.391
 4342POPC   C2B64038  16.822  16.707  24.225
 4342POPC   C3B64039  16.743  16.628  24.059
 4342POPC   C4B64040  16.664  16.549  23.894
 4343POPC   NC364041   3.845  -5.184   2.130
 4343POPC   PO464042   3.907  -5.014   2.215
 4343POPC   GL164043   3.969  -4.844   2.300
 4343POPC   GL264044   3.930  -4.873   2.387
 4343POPC   C1A64045   4.032  -4.674   2.385
 4343POPC   D2A64046   4.094  -4.504   2.469
 4343POPC   C3A64047   4.157  -4.334   2.554
 4343POPC   C4A64048   4.219  -4.164   2.639
 4343POPC   C1B64049   4.205  -4.762   2.433
 4343POPC   C2B64050   4.267  -4.592   2.518
 4343POPC   C3B64051   4.330  -4.422   2.603
 4343POPC   C4B64052   4.392  -4.252   2.688
 4344POPC   NC364053  -1.125  22.811  16.343
 4344POPC   PO464054  -1.004  22.668  16.273
 4344POPC   GL164055  -0.883  22.525  16.203
 4344POPC   GL264056  -0.845  22.513  16.295
 4344POPC   C1A64057  -0.762  22.382  16.133
 4344POPC   D2A64058  -0.640  22.240  16.063
 4344POPC   C3A64059  -0.519  22.097  15.993
 4344POPC   C4A64060  -0.398  21.954  15.923
 4344POPC   C1B64061  -0.901  22.245  16.173
 4344POPC   C2B64062  -0.780  22.102  16.103
 4344POPC   C3B64063  -0.659  21.959  16.033
 4344POPC   C4B64064  -0.537  21.816  15.963
 4345POPC   NC364065  -3.742  16.683  19.796
 4345POPC   PO464066  -3.595  16.606  19.685
 4345POPC   GL164067  -3.448  16.529  19.574
 4345POPC   GL264068  -3.426  16.620  19.540
 4345POPC   C1A64069  -3.301  16.452  19.463
 4345POPC   D2A64070  -3.153  16.374  19.351
 4345POPC   C3A64071  -3.006  16.297  19.240
 4345POPC   C4A64072  -2.859  16.220  19.129
 4345POPC   C1B64073  -3.173  16.477  19.614
 4345POPC   C2B64074  -3.025  16.400  19.503
 4345POPC   C3B64075  -2.878  16.323  19.392
 4345POPC   C4B64076  -2.731  16.246  19.281
 4346POPC   NC364077  -3.804  21.809  10.200
 4346POPC   PO464078  -3.654  21.677  10.195
 4346POPC   GL164079  -3.504  21.545  10.190
 4346POPC   GL264080  -3.460  21.592  10.266
 4346POPC   C1A64081  -3.354  21.413  10.185
 4346POPC   D2A64082  -3.203  21.281  10.180
 4346POPC   C3A64083  -3.053  21.149  10.175
 4346POPC   C4A64084  -2.903  21.017  10.170
 4346POPC   C1B64085  -3.452  21.296  10.314
 4346POPC   C2B64086  -3.302  21.164  10.309
 4346POPC   C3B64087  -3.152  21.032  10.304
 4346POPC   C4B64088  -3.002  20.900  10.299
 4347POPC   NC364089  18.524  18.205  23.442
 4347POPC   PO464090  18.420  18.119  23.294
 4347POPC   GL164091  18.316  18.033  23.146
 4347POPC   GL264092  18.352  18.101  23.082
 4347POPC   C1A64093  18.211  17.948  22.999
 4347POPC   D2A64094  18.107  17.862  22.851
 4347POPC   C3A64095  18.002  17.777  22.704
 4347POPC   C4A64096  17.898  17.691  22.556
 4347POPC   C1B64097  18.366  17.828  22.959
 4347POPC   C2B64098  18.262  17.742  22.811
 4347POPC   C3B64099  18.157  17.656  22.664
 4347POPC   C4B64100  18.053  17.571  22.516
 4348POPC   NC364101  -3.654   2.660   0.337
 4348POPC   PO464102  -3.508   2.741   0.447
 4348POPC   GL164103  -3.362   2.822   0.557
 4348POPC   GL264104  -3.361   2.741   0.616
 4348POPC   C1A64105  -3.215   2.902   0.667
 4348POPC   D2A64106  -3.069   2.983   0.777
 4348POPC   C3A64107  -2.922   3.063   0.887
 4348POPC   C4A64108  -2.776   3.144   0.997
 4348POPC   C1B64109  -3.079   2.816   0.548
 4348POPC   C2B64110  -2.932   2.897   0.658
 4348POPC   C3B64111  -2.786   2.978   0.768
 4348POPC   C4B64112  -2.640   3.058   0.878
 4349POPC   NC364113  23.642  -0.655  14.630
 4349POPC   PO464114  23.490  -0.535  14.579
 4349POPC   GL164115  23.338  -0.415  14.528
 4349POPC   GL264116  23.358  -0.432  14.431
 4349POPC   C1A64117  23.186  -0.296  14.477
 4349POPC   D2A64118  23.035  -0.176  14.426
 4349POPC   C3A64119  22.883  -0.057  14.375
 4349POPC   C4A64120  22.731   0.063  14.324
 4349POPC   C1B64121  23.062  -0.453  14.479
 4349POPC   C2B64122  22.910  -0.333  14.428
 4349POPC   C3B64123  22.759  -0.213  14.377
 4349POPC   C4B64124  22.607  -0.094  14.326
 4350POPC   NC364125  12.963  14.625  27.063
 4350POPC   PO464126  12.931  14.569  26.874
 4350POPC   GL164127  12.899  14.513  26.685
 4350POPC   GL264128  12.996  14.490  26.675
 4350POPC   C1A64129  12.866  14.457  26.496
 4350POPC   D2A64130  12.834  14.400  26.306
 4350POPC   C3A64131  12.801  14.344  26.117
 4350POPC   C4A64132  12.769  14.288  25.928
 4350POPC   C1B64133  12.829  14.270  26.557
 4350POPC   C2B64134  12.797  14.214  26.368
 4350POPC   C3B64135  12.764  14.158  26.179
 4350POPC   C4B64136  12.732  14.101  25.990
 4351POPC   NC364137  24.142  12.598  -0.728
 4351POPC   PO464138  23.984  12.573  -0.608
 4351POPC   GL164139  23.826  12.548  -0.488
 4351POPC   GL264140  23.770  12.603  -0.550
 4351POPC   C1A64141  23.668  12.524  -0.367
 4351POPC   D2A64142  23.511  12.499  -0.247
 4351POPC   C3A64143  23.353  12.475  -0.126
 4351POPC   C4A64144  23.195  12.450  -0.006
 4351POPC   C1B64145  23.618  12.358  -0.467
 4351POPC   C2B64146  23.460  12.333  -0.347
 4351POPC   C3B64147  23.303  12.309  -0.226
 4351POPC   C4B64148  23.145  12.284  -0.106
 4352POPC   NC364149  -2.610  10.393  22.966
 4352POPC   PO464150  -2.468  10.391  22.825
 4352POPC   GL164151  -2.326  10.389  22.684
 4352POPC   GL264152  -2.280  10.314  22.732
 4352POPC   C1A64153  -2.184  10.386  22.543
 4352POPC   D2A64154  -2.042  10.384  22.403
 4352POPC   C3A64155  -1.900  10.381  22.262
 4352POPC   C4A64156  -1.758  10.379  22.121
 4352POPC   C1B64157  -2.290  10.254  22.438
 4352POPC   C2B64158  -2.148  10.251  22.297
 4352POPC   C3B64159  -2.006  10.249  22.157
 4352POPC   C4B64160  -1.864  10.246  22.016
 4353POPC   NC364161  27.655  11.311  12.278
 4353POPC   PO464162  27.457  11.298  12.255
 4353POPC   GL164163  27.259  11.285  12.232
 4353POPC   GL264164  27.266  11.329  12.142
 4353POPC   C1A64165  27.061  11.271  12.209
 4353POPC   D2A64166  26.862  11.258  12.185
 4353POPC   C3A64167  26.664  11.244  12.162
 4353POPC   C4A64168  26.466  11.231  12.139
 4353POPC   C1B64169  27.083  11.092  12.122
 4353POPC   C2B64170  26.885  11.079  12.099
 4353POPC   C3B64171  26.687  11.066  12.075
 4353POPC   C4B64172  26.488  11.052  12.052
 4354POPC   NC364173  20.104  -4.657   7.270
 4354POPC   PO464174  19.992  -4.494   7.300
 4354POPC   GL164175  19.880  -4.331   7.330
 4354POPC   GL264176  19.837  -4.344   7.240
 4354POPC   C1A64177  19.768  -4.168   7.360
 4354POPC   D2A64178  19.656  -4.005   7.390
 4354POPC   C3A64179  19.544  -3.842   7.420
 4354POPC   C4A64180  19.432  -3.679   7.450
 4354POPC   C1B64181  19.626  -4.281   7.444
 4354POPC   C2B64182  19.514  -4.118   7.474
 4354POPC   C3B64183  19.402  -3.955   7.504
 4354POPC   C4B64184  19.290  -3.792   7.534
 4355POPC   NC364185   2.444  26.039   6.406
 4355POPC   PO464186   2.536  25.866   6.445
 4355POPC   GL164187   2.628  25.693   6.484
 4355POPC   GL264188   2.716  25.741   6.492
 4355POPC   C1A64189   2.721  25.520   6.524
 4355POPC   D2A64190   2.813  25.347   6.563
 4355POPC   C3A64191   2.906  25.174   6.603
 4355POPC   C4A64192   2.998  25.001   6.642
 4355POPC   C1B64193   2.688  25.547   6.719
 4355POPC   C2B64194   2.780  25.374   6.759
 4355POPC   C3B64195   2.873  25.201   6.798
 4355POPC   C4B64196   2.965  25.028   6.837
 4356POPC   NC364197   9.341   0.514  25.277
 4356POPC   PO464198   9.348   0.616  25.105
 4356POPC   GL164199   9.355   0.718  24.933
 4356POPC   GL264200   9.404   0.792  24.979
 4356POPC   C1A64201   9.362   0.820  24.761
 4356POPC   D2A64202   9.368   0.923  24.590
 4356POPC   C3A64203   9.375   1.025  24.418
 4356POPC   C4A64204   9.382   1.127  24.246
 4356POPC   C1B64205   9.535   0.732  24.716
 4356POPC   C2B64206   9.542   0.835  24.544
 4356POPC   C3B64207   9.549   0.937  24.372
 4356POPC   C4B64208   9.556   1.039  24.201
 4357CHOL   ROH64209  -3.986   5.420  -0.422
 4357CHOL    R164210  -3.863   5.457  -0.327
 4357CHOL    R264211  -3.878   5.431  -0.095
 4357CHOL    R364212  -3.725   5.499  -0.220
 4357CHOL    R464213  -3.770   5.464  -0.012
 4357CHOL    R564214  -3.601   5.536  -0.125
 4357CHOL    C164215  -3.417   5.592   0.018
 4357CHOL    C264216  -3.232   5.648   0.161
 4358CHOL   ROH64217  25.264  11.978  18.785
 4358CHOL    R164218  25.125  11.960  18.708
 4358CHOL    R264219  25.066  11.757  18.611
 4358CHOL    R364220  24.968  11.941  18.622
 4358CHOL    R464221  24.944  11.741  18.544
 4358CHOL    R564222  24.829  11.923  18.545
 4358CHOL    C164223  24.619  11.897  18.430
 4358CHOL    C264224  24.410  11.870  18.315
 4359CHOL   ROH64225  -7.321   8.956  14.671
 4359CHOL    R164226  -7.167   8.966  14.630
 4359CHOL    R264227  -6.999   8.904  14.780
 4359CHOL    R364228  -6.993   8.976  14.584
 4359CHOL    R464229  -6.864   8.912  14.744
 4359CHOL    R564230  -6.839   8.986  14.543
 4359CHOL    C164231  -6.607   9.000  14.482
 4359CHOL    C264232  -6.375   9.015  14.421
 4360CHOL   ROH64233  25.720  12.029   2.007
 4360CHOL    R164234  25.579  12.011   2.079
 4360CHOL    R264235  25.426  11.851   2.006
 4360CHOL    R364236  25.419  11.991   2.161
 4360CHOL    R464237  25.302  11.835   2.070
 4360CHOL    R564238  25.278  11.973   2.233
 4360CHOL    C164239  25.066  11.946   2.342
 4360CHOL    C264240  24.854  11.919   2.451
 4361CHOL   ROH64241  25.209  18.020  14.254
 4361CHOL    R164242  25.072  17.946  14.217
 4361CHOL    R264243  24.912  18.049  14.083
 4361CHOL    R364244  24.918  17.863  14.176
 4361CHOL    R464245  24.792  17.985  14.051
 4361CHOL    R564246  24.781  17.789  14.140
 4361CHOL    C164247  24.576  17.677  14.085
 4361CHOL    C264248  24.370  17.566  14.030
 4362CHOL   ROH64249  -5.952   1.795  11.122
 4362CHOL    R164250  -5.810   1.867  11.110
 4362CHOL    R264251  -5.613   1.742  11.094
 4362CHOL    R364252  -5.649   1.948  11.097
 4362CHOL    R464253  -5.489   1.805  11.084
 4362CHOL    R564254  -5.507   2.019  11.085
 4362CHOL    C164255  -5.293   2.127  11.068
 4362CHOL    C264256  -5.080   2.235  11.050
 4363CHOL   ROH64257  24.324   9.716  -0.425
 4363CHOL    R164258  24.195   9.717  -0.330
 4363CHOL    R264259  23.993   9.624  -0.401
 4363CHOL    R364260  24.050   9.718  -0.223
 4363CHOL    R464261  23.880   9.625  -0.318
 4363CHOL    R564262  23.921   9.719  -0.129
 4363CHOL    C164263  23.728   9.720   0.014
 4363CHOL    C264264  23.534   9.721   0.156
 4364CHOL   ROH64265   9.910  12.641  27.593
 4364CHOL    R164266   9.911  12.617  27.435
 4364CHOL    R264267   9.966  12.408  27.345
 4364CHOL    R364268   9.913  12.590  27.257
 4364CHOL    R464269   9.967  12.387  27.207
 4364CHOL    R564270   9.914  12.566  27.098
 4364CHOL    C164271   9.917  12.530  26.861
 4364CHOL    C264272   9.919  12.494  26.624
 4365CHOL   ROH64273  21.957  -1.076  17.039
 4365CHOL    R164274  21.850  -0.975  16.977
 4365CHOL    R264275  21.842  -0.752  17.043
 4365CHOL    R364276  21.729  -0.861  16.907
 4365CHOL    R464277  21.748  -0.663  16.989
 4365CHOL    R564278  21.621  -0.760  16.845
 4365CHOL    C164279  21.460  -0.609  16.751
 4365CHOL    C264280  21.299  -0.458  16.658
 4366CHOL   ROH64281  16.559  -6.259  13.069
 4366CHOL    R164282  16.498  -6.114  13.040
 4366CHOL    R264283  16.580  -5.926  13.151
 4366CHOL    R364284  16.430  -5.951  13.008
 4366CHOL    R464285  16.526  -5.799  13.126
 4366CHOL    R564286  16.369  -5.805  12.979
 4366CHOL    C164287  16.278  -5.588  12.936
 4366CHOL    C264288  16.187  -5.370  12.893
 4367CHOL   ROH64289  20.720   3.133  -2.401
 4367CHOL    R164290  20.621   3.196  -2.292
 4367CHOL    R264291  20.698   3.349  -2.134
 4367CHOL    R364292  20.510   3.266  -2.169
 4367CHOL    R464293  20.612   3.403  -2.038
 4367CHOL    R564294  20.411   3.329  -2.060
 4367CHOL    C164295  20.263   3.422  -1.896
 4367CHOL    C264296  20.114   3.516  -1.733
 4368CHOL   ROH64297   7.886  -6.851  15.621
 4368CHOL    R164298   7.905  -6.702  15.567
 4368CHOL    R264299   8.115  -6.622  15.505
 4368CHOL    R364300   7.926  -6.534  15.505
 4368CHOL    R464301   8.131  -6.492  15.457
 4368CHOL    R564302   7.944  -6.384  15.451
 4368CHOL    C164303   7.973  -6.161  15.369
 4368CHOL    C264304   8.001  -5.937  15.288
 4369CHOL   ROH64305  24.606   7.274  19.522
 4369CHOL    R164306  24.474   7.300  19.436
 4369CHOL    R264307  24.473   7.270  19.205
 4369CHOL    R364308  24.325   7.330  19.339
 4369CHOL    R464309  24.357   7.293  19.129
 4369CHOL    R564310  24.192   7.356  19.253
 4369CHOL    C164311  23.994   7.395  19.124
 4369CHOL    C264312  23.796   7.435  18.995
 4370CHOL   ROH64313  -7.964   8.706   8.885
 4370CHOL    R164314  -7.805   8.717   8.895
 4370CHOL    R264315  -7.703   8.898   9.001
 4370CHOL    R364316  -7.625   8.729   8.906
 4370CHOL    R464317  -7.563   8.908   9.009
 4370CHOL    R564318  -7.466   8.740   8.915
 4370CHOL    C164319  -7.227   8.756   8.930
 4370CHOL    C264320  -6.988   8.773   8.945
 4371CHOL   ROH64321  15.227  24.839  18.225
 4371CHOL    R164322  15.178  24.706  18.151
 4371CHOL    R264323  15.252  24.496  18.219
 4371CHOL    R364324  15.122  24.557  18.067
 4371CHOL    R464325  15.209  24.380  18.154
 4371CHOL    R564326  15.073  24.424  17.993
 4371CHOL    C164327  14.999  24.225  17.881
 4371CHOL    C264328  14.925  24.026  17.769
 4372CHOL   ROH64329  17.150   6.737  -5.959
 4372CHOL    R164330  17.084   6.766  -5.816
 4372CHOL    R264331  16.858   6.820  -5.796
 4372CHOL    R364332  17.011   6.798  -5.655
 4372CHOL    R464333  16.801   6.845  -5.671
 4372CHOL    R564334  16.945   6.827  -5.512
 4372CHOL    C164335  16.847   6.870  -5.297
 4372CHOL    C264336  16.748   6.913  -5.083
 4373CHOL   ROH64337  11.931  18.722  25.349
 4373CHOL    R164338  11.909  18.646  25.210
 4373CHOL    R264339  12.089  18.559  25.090
 4373CHOL    R364340  11.883  18.561  25.054
 4373CHOL    R464341  12.069  18.493  24.968
 4373CHOL    R564342  11.861  18.485  24.915
 4373CHOL    C164343  11.827  18.371  24.706
 4373CHOL    C264344  11.794  18.257  24.497
 4374CHOL   ROH64345  20.770   1.099  20.881
 4374CHOL    R164346  20.672   1.177  20.782
 4374CHOL    R264347  20.733   1.219  20.561
 4374CHOL    R364348  20.561   1.266  20.671
 4374CHOL    R464349  20.647   1.288  20.474
 4374CHOL    R564350  20.463   1.344  20.571
 4374CHOL    C164351  20.316   1.462  20.423
 4374CHOL    C264352  20.168   1.579  20.274
 4375CHOL   ROH64353  12.002  27.664  10.959
 4375CHOL    R164354  11.985  27.505  10.950
 4375CHOL    R264355  12.148  27.362  11.036
 4375CHOL    R364356  11.966  27.326  10.940
 4375CHOL    R464357  12.133  27.223  11.028
 4375CHOL    R564358  11.950  27.167  10.931
 4375CHOL    C164359  11.924  26.929  10.917
 4375CHOL    C264360  11.899  26.691  10.903
 4376CHOL   ROH64361  10.482  -7.817   8.952
 4376CHOL    R164362  10.480  -7.657   8.959
 4376CHOL    R264363  10.566  -7.528   8.784
 4376CHOL    R364364  10.478  -7.477   8.967
 4376CHOL    R464365  10.564  -7.389   8.790
 4376CHOL    R564366  10.475  -7.318   8.973
 4376CHOL    C164367  10.472  -7.078   8.984
 4376CHOL    C264368  10.469  -6.838   8.994
 4377CHOL   ROH64369  15.826  -4.835  17.917
 4377CHOL    R164370  15.774  -4.701  17.847
 4377CHOL    R264371  15.913  -4.515  17.824
 4377CHOL    R364372  15.715  -4.550  17.768
 4377CHOL    R464373  15.867  -4.398  17.762
 4377CHOL    R564374  15.662  -4.417  17.698
 4377CHOL    C164375  15.584  -4.216  17.593
 4377CHOL    C264376  15.506  -4.015  17.488
 4378CHOL   ROH64377  13.194  17.869  -5.704
 4378CHOL    R164378  13.164  17.799  -5.563
 4378CHOL    R264379  13.321  17.657  -5.464
 4378CHOL    R364380  13.131  17.720  -5.405
 4378CHOL    R464381  13.295  17.596  -5.341
 4378CHOL    R564382  13.102  17.650  -5.264
 4378CHOL    C164383  13.057  17.545  -5.053
 4378CHOL    C264384  13.013  17.440  -4.842
 4379CHOL   ROH64385  19.500  22.223   1.346
 4379CHOL    R164386  19.412  22.115   1.425
 4379CHOL    R264387  19.399  21.894   1.350
 4379CHOL    R364388  19.314  21.993   1.513
 4379CHOL    R464389  19.322  21.799   1.419
 4379CHOL    R564390  19.226  21.884   1.592
 4379CHOL    C164391  19.094  21.722   1.709
 4379CHOL    C264392  18.963  21.560   1.827
 4380CHOL   ROH64393  -3.711  20.680   5.284
 4380CHOL    R164394  -3.590  20.585   5.328
 4380CHOL    R264395  -3.557  20.529   5.552
 4380CHOL    R364396  -3.455  20.477   5.378
 4380CHOL    R464397  -3.452  20.445   5.591
 4380CHOL    R564398  -3.334  20.382   5.422
 4380CHOL    C164399  -3.153  20.239   5.488
 4380CHOL    C264400  -2.972  20.096   5.554
 4381CHOL   ROH64401  -6.466  14.570   4.557
 4381CHOL    R164402  -6.319  14.528   4.605
 4381CHOL    R264403  -6.245  14.579   4.820
 4381CHOL    R364404  -6.154  14.481   4.660
 4381CHOL    R464405  -6.116  14.542   4.863
 4381CHOL    R564406  -6.008  14.439   4.708
 4381CHOL    C164407  -5.787  14.376   4.780
 4381CHOL    C264408  -5.567  14.313   4.853
 4382CHOL   ROH64409  25.194  18.818   7.980
 4382CHOL    R164410  25.057  18.739   8.000
 4382CHOL    R264411  24.958  18.622   7.824
 4382CHOL    R364412  24.902  18.649   8.023
 4382CHOL    R464413  24.838  18.553   7.841
 4382CHOL    R564414  24.765  18.570   8.043
 4382CHOL    C164415  24.558  18.451   8.073
 4382CHOL    C264416  24.352  18.332   8.103
 4383CHOL   ROH64417  -7.358   6.448   6.597
 4383CHOL    R164418  -7.204   6.481   6.627
 4383CHOL    R264419  -7.138   6.568   6.833
 4383CHOL    R364420  -7.032   6.519   6.661
 4383CHOL    R464421  -7.004   6.597   6.859
 4383CHOL    R564422  -6.878   6.552   6.691
 4383CHOL    C164423  -6.648   6.602   6.735
 4383CHOL    C264424  -6.417   6.652   6.780
 4384CHOL   ROH64425   6.456  -6.940   5.375
 4384CHOL    R164426   6.487  -6.789   5.417
 4384CHOL    R264427   6.660  -6.670   5.316
 4384CHOL    R364428   6.522  -6.619   5.464
 4384CHOL    R464429   6.687  -6.537   5.352
 4384CHOL    R564430   6.553  -6.467   5.506
 4384CHOL    C164431   6.600  -6.241   5.569
 4384CHOL    C264432   6.647  -6.014   5.632
 4385CHOL   ROH64433  -3.706  19.956  15.876
 4385CHOL    R164434  -3.583  19.867  15.824
 4385CHOL    R264435  -3.533  19.662  15.925
 4385CHOL    R364436  -3.446  19.767  15.767
 4385CHOL    R464437  -3.426  19.584  15.880
 4385CHOL    R564438  -3.323  19.677  15.715
 4385CHOL    C164439  -3.139  19.544  15.638
 4385CHOL    C264440  -2.955  19.410  15.560
 4386CHOL   ROH64441  17.922  -4.524   3.442
 4386CHOL    R164442  17.851  -4.392   3.499
 4386CHOL    R264443  17.964  -4.189   3.507
 4386CHOL    R364444  17.771  -4.245   3.564
 4386CHOL    R464445  17.902  -4.074   3.558
 4386CHOL    R564446  17.701  -4.113   3.622
 4386CHOL    C164447  17.594  -3.916   3.708
 4386CHOL    C264448  17.488  -3.718   3.794
 4387CHOL   ROH64449  14.970   6.935  -6.890
 4387CHOL    R164450  14.917   6.963  -6.742
 4387CHOL    R264451  14.887   7.181  -6.664
 4387CHOL    R364452  14.857   6.995  -6.575
 4387CHOL    R464453  14.840   7.205  -6.534
 4387CHOL    R564454  14.804   7.023  -6.426
 4387CHOL    C164455  14.725   7.065  -6.204
 4387CHOL    C264456  14.646   7.107  -5.982
 4388CHOL   ROH64457   6.136  -5.930   2.781
 4388CHOL    R164458   6.169  -5.787   2.845
 4388CHOL    R264459   6.378  -5.743   2.939
 4388CHOL    R364460   6.206  -5.627   2.918
 4388CHOL    R464461   6.407  -5.618   2.995
 4388CHOL    R564462   6.239  -5.484   2.982
 4388CHOL    C164463   6.288  -5.270   3.078
 4388CHOL    C264464   6.338  -5.056   3.175
 4389CHOL   ROH64465  18.617   2.907  -3.919
 4389CHOL    R164466  18.536   2.967  -3.795
 4389CHOL    R264467  18.603   3.166  -3.693
 4389CHOL    R364468  18.445   3.035  -3.655
 4389CHOL    R464469  18.532   3.219  -3.584
 4389CHOL    R564470  18.364   3.096  -3.530
 4389CHOL    C164471  18.243   3.186  -3.344
 4389CHOL    C264472  18.122   3.276  -3.158
 4390CHOL   ROH64473  19.942  -2.892   2.727
 4390CHOL    R164474  19.853  -2.776   2.792
 4390CHOL    R264475  19.720  -2.638   2.659
 4390CHOL    R364476  19.754  -2.645   2.865
 4390CHOL    R464477  19.643  -2.536   2.715
 4390CHOL    R564478  19.665  -2.529   2.929
 4390CHOL    C164479  19.532  -2.354   3.027
 4390CHOL    C264480  19.399  -2.180   3.124
 4391CHOL   ROH64481  14.905  14.029  26.608
 4391CHOL    R164482  14.865  13.990  26.458
 4391CHOL    R264483  14.952  14.106  26.276
 4391CHOL    R364484  14.819  13.945  26.290
 4391CHOL    R464485  14.917  14.071  26.145
 4391CHOL    R564486  14.779  13.906  26.140
 4391CHOL    C164487  14.719  13.847  25.915
 4391CHOL    C264488  14.658  13.788  25.691
 4392CHOL   ROH64489   5.151  -6.267  15.710
 4392CHOL    R164490   5.194  -6.122  15.659
 4392CHOL    R264491   5.311  -6.095  15.459
 4392CHOL    R364492   5.243  -5.958  15.602
 4392CHOL    R464493   5.349  -5.968  15.414
 4392CHOL    R564494   5.286  -5.813  15.551
 4392CHOL    C164495   5.351  -5.595  15.474
 4392CHOL    C264496   5.416  -5.377  15.397
 4393CHOL   ROH64497   7.647  27.478   7.063
 4393CHOL    R164498   7.665  27.321   7.087
 4393CHOL    R264499   7.797  27.192   6.944
 4393CHOL    R364500   7.686  27.144   7.114
 4393CHOL    R464501   7.813  27.055   6.965
 4393CHOL    R564502   7.704  26.987   7.138
 4393CHOL    C164503   7.732  26.751   7.175
 4393CHOL    C264504   7.760  26.516   7.211
 4394CHOL   ROH64505   4.818  21.925  22.157
 4394CHOL    R164506   4.861  21.817  22.047
 4394CHOL    R264507   5.069  21.713  22.056
 4394CHOL    R364508   4.908  21.696  21.923
 4394CHOL    R464509   5.106  21.618  21.959
 4394CHOL    R564510   4.951  21.588  21.813
 4394CHOL    C164511   5.015  21.426  21.648
 4394CHOL    C264512   5.079  21.264  21.483
 4395CHOL   ROH64513  26.135   4.203  14.454
 4395CHOL    R164514  25.988   4.254  14.414
 4395CHOL    R264515  25.958   4.455  14.302
 4395CHOL    R364516  25.824   4.310  14.370
 4395CHOL    R464517  25.829   4.500  14.267
 4395CHOL    R564518  25.677   4.361  14.330
 4395CHOL    C164519  25.457   4.437  14.271
 4395CHOL    C264520  25.237   4.513  14.212
 4396CHOL   ROH64521   6.428   7.236  27.221
 4396CHOL    R164522   6.458   7.261  27.066
 4396CHOL    R264523   6.675   7.247  26.982
 4396CHOL    R364524   6.492   7.288  26.891
 4396CHOL    R464525   6.701   7.268  26.846
 4396CHOL    R564526   6.521   7.313  26.736
 4396CHOL    C164527   6.566   7.350  26.503
 4396CHOL    C264528   6.611   7.387  26.270
 4397CHOL   ROH64529   8.076   5.222  -7.142
 4397CHOL    R164530   8.088   5.265  -6.988
 4397CHOL    R264531   8.230   5.438  -6.923
 4397CHOL    R364532   8.102   5.312  -6.815
 4397CHOL    R464533   8.240   5.475  -6.788
 4397CHOL    R564534   8.114   5.355  -6.662
 4397CHOL    C164535   8.132   5.419  -6.431
 4397CHOL    C264536   8.150   5.483  -6.200
 4398CHOL   ROH64537  -1.848   4.180  21.989
 4398CHOL    R164538  -1.746   4.234  21.878
 4398CHOL    R264539  -1.540   4.131  21.843
 4398CHOL    R364540  -1.632   4.296  21.753
 4398CHOL    R464541  -1.451   4.178  21.746
 4398CHOL    R564542  -1.530   4.350  21.643
 4398CHOL    C164543  -1.377   4.432  21.476
 4398CHOL    C264544  -1.225   4.513  21.310
 4399CHOL   ROH64545  -3.824   0.074   4.164
 4399CHOL    R164546  -3.700   0.164   4.211
 4399CHOL    R264547  -3.582   0.113   4.405
 4399CHOL    R364548  -3.561   0.264   4.263
 4399CHOL    R464549  -3.473   0.191   4.446
 4399CHOL    R564550  -3.437   0.354   4.310
 4399CHOL    C164551  -3.251   0.488   4.380
 4399CHOL    C264552  -3.065   0.623   4.450
 4400CHOL   ROH64553   8.459  26.143  17.433
 4400CHOL    R164554   8.472  25.998  17.366
 4400CHOL    R264555   8.477  25.806  17.498
 4400CHOL    R364556   8.487  25.835  17.292
 4400CHOL    R464557   8.489  25.679  17.440
 4400CHOL    R564558   8.501  25.691  17.225
 4400CHOL    C164559   8.520  25.473  17.125
 4400CHOL    C264560   8.540  25.256  17.025
 4401CHOL   ROH64561   8.794  26.813   3.968
 4401CHOL    R164562   8.803  26.662   4.020
 4401CHOL    R264563   8.993  26.532   3.980
 4401CHOL    R364564   8.813  26.492   4.077
 4401CHOL    R464565   9.001  26.400   4.025
 4401CHOL    R564566   8.822  26.341   4.129
 4401CHOL    C164567   8.835  26.114   4.206
 4401CHOL    C264568   8.848  25.887   4.284
 4402CHOL   ROH64569  -5.554  13.868   1.810
 4402CHOL    R164570  -5.414  13.830   1.877
 4402CHOL    R264571  -5.384  13.840   2.108
 4402CHOL    R364572  -5.256  13.787   1.952
 4402CHOL    R464573  -5.262  13.807   2.167
 4402CHOL    R564574  -5.115  13.750   2.019
 4402CHOL    C164575  -4.905  13.693   2.119
 4402CHOL    C264576  -4.695  13.636   2.220
 4403CHOL   ROH64577  12.117  20.034  24.515
 4403CHOL    R164578  12.095  19.945  24.384
 4403CHOL    R264579  12.255  19.942  24.213
 4403CHOL    R364580  12.071  19.845  24.236
 4403CHOL    R464581  12.235  19.864  24.098
 4403CHOL    R564582  12.049  19.757  24.105
 4403CHOL    C164583  12.016  19.623  23.907
 4403CHOL    C264584  11.984  19.490  23.710
 4404CHOL   ROH64585  -4.119  15.960  19.389
 4404CHOL    R164586  -3.995  15.906  19.304
 4404CHOL    R264587  -3.839  15.760  19.397
 4404CHOL    R364588  -3.855  15.846  19.208
 4404CHOL    R464589  -3.731  15.713  19.323
 4404CHOL    R564590  -3.731  15.792  19.123
 4404CHOL    C164591  -3.544  15.712  18.995
 4404CHOL    C264592  -3.358  15.632  18.867
 4405CHOL   ROH64593  -0.181   2.276  22.420
 4405CHOL    R164594  -0.090   2.342  22.306
 4405CHOL    R264595   0.142   2.350  22.329
 4405CHOL    R364596   0.013   2.415  22.178
 4405CHOL    R464597   0.222   2.408  22.229
 4405CHOL    R564598   0.105   2.481  22.065
 4405CHOL    C164599   0.242   2.579  21.894
 4405CHOL    C264600   0.379   2.678  21.723
 4406CHOL   ROH64601  17.314  -2.403  20.397
 4406CHOL    R164602  17.246  -2.293  20.303
 4406CHOL    R264603  17.221  -2.331  20.074
 4406CHOL    R364604  17.168  -2.170  20.197
 4406CHOL    R464605  17.161  -2.235  19.991
 4406CHOL    R564606  17.100  -2.061  20.102
 4406CHOL    C164607  16.997  -1.896  19.961
 4406CHOL    C264608  16.895  -1.732  19.820
 4407CHOL   ROH64609  14.779  -7.177   9.063
 4407CHOL    R164610  14.731  -7.025   9.073
 4407CHOL    R264611  14.764  -6.900   9.267
 4407CHOL    R364612  14.676  -6.853   9.083
 4407CHOL    R464613  14.722  -6.767   9.275
 4407CHOL    R564614  14.628  -6.701   9.093
 4407CHOL    C164615  14.556  -6.473   9.107
 4407CHOL    C264616  14.483  -6.244   9.122
 4408CHOL   ROH64617  12.995  -1.259  -3.555
 4408CHOL    R164618  12.967  -1.159  -3.433
 4408CHOL    R264619  13.119  -0.991  -3.379
 4408CHOL    R364620  12.937  -1.047  -3.296
 4408CHOL    R464621  13.095  -0.903  -3.272
 4408CHOL    R564622  12.909  -0.947  -3.173
 4408CHOL    C164623  12.868  -0.798  -2.990
 4408CHOL    C264624  12.826  -0.648  -2.807
 4409CHOL   ROH64625   3.333  25.986  14.384
 4409CHOL    R164626   3.395  25.844  14.344
 4409CHOL    R264627   3.438  25.682  14.506
 4409CHOL    R364628   3.464  25.684  14.299
 4409CHOL    R464629   3.492  25.558  14.471
 4409CHOL    R564630   3.526  25.542  14.259
 4409CHOL    C164631   3.619  25.329  14.199
 4409CHOL    C264632   3.711  25.116  14.139
 4410CHOL   ROH64633  -0.954  -4.135   8.263
 4410CHOL    R164634  -0.856  -4.009   8.276
 4410CHOL    R264635  -0.629  -4.038   8.324
 4410CHOL    R364636  -0.745  -3.868   8.291
 4410CHOL    R464637  -0.544  -3.928   8.336
 4410CHOL    R564638  -0.647  -3.742   8.304
 4410CHOL    C164639  -0.500  -3.554   8.323
 4410CHOL    C264640  -0.352  -3.366   8.342
 4411CHOL   ROH64641   6.391  -7.451  11.512
 4411CHOL    R164642   6.420  -7.294  11.499
 4411CHOL    R264643   6.517  -7.175  11.675
 4411CHOL    R364644   6.454  -7.118  11.484
 4411CHOL    R464645   6.542  -7.038  11.663
 4411CHOL    R564646   6.483  -6.961  11.471
 4411CHOL    C164647   6.527  -6.727  11.451
 4411CHOL    C264648   6.571  -6.492  11.431
 4412CHOL   ROH64649   8.439  16.692  26.437
 4412CHOL    R164650   8.448  16.636  26.287
 4412CHOL    R264651   8.568  16.752  26.124
 4412CHOL    R364652   8.459  16.574  26.119
 4412CHOL    R464653   8.576  16.704  25.993
 4412CHOL    R564654   8.468  16.518  25.969
 4412CHOL    C164655   8.483  16.435  25.744
 4412CHOL    C264656   8.497  16.352  25.520
 4413CHOL   ROH64657  -1.063  23.872   7.998
 4413CHOL    R164658  -0.968  23.744   8.017
 4413CHOL    R264659  -0.929  23.655   8.229
 4413CHOL    R364660  -0.862  23.601   8.039
 4413CHOL    R464661  -0.846  23.544   8.246
 4413CHOL    R564662  -0.767  23.473   8.058
 4413CHOL    C164663  -0.625  23.282   8.087
 4413CHOL    C264664  -0.483  23.091   8.116
 4414CHOL   ROH64665  -0.198  24.541   8.376
 4414CHOL    R164666  -0.108  24.410   8.393
 4414CHOL    R264667  -0.113  24.287   8.591
 4414CHOL    R364668  -0.007  24.262   8.413
 4414CHOL    R464669  -0.034  24.172   8.607
 4414CHOL    R564670   0.082  24.130   8.430
 4414CHOL    C164671   0.217  23.933   8.456
 4414CHOL    C264672   0.352  23.736   8.482
 4415CHOL   ROH64673  -7.130   9.952   4.630
 4415CHOL    R164674  -6.977   9.951   4.676
 4415CHOL    R264675  -6.882   9.760   4.771
 4415CHOL    R364676  -6.805   9.949   4.728
 4415CHOL    R464677  -6.748   9.759   4.812
 4415CHOL    R564678  -6.652   9.948   4.774
 4415CHOL    C164679  -6.422   9.946   4.844
 4415CHOL    C264680  -6.192   9.944   4.913
 4416CHOL   ROH64681  26.980   8.869  14.984
 4416CHOL    R164682  26.826   8.879  14.942
 4416CHOL    R264683  26.733   8.727  14.791
 4416CHOL    R364684  26.653   8.890  14.894
 4416CHOL    R464685  26.599   8.736  14.754
 4416CHOL    R564686  26.499   8.900  14.852
 4416CHOL    C164687  26.268   8.915  14.788
 4416CHOL    C264688  26.037   8.930  14.724
 4417CHOL   ROH64689  22.938  15.610  20.682
 4417CHOL    R164690  22.826  15.561  20.579
 4417CHOL    R264691  22.883  15.440  20.388
 4417CHOL    R364692  22.699  15.505  20.464
 4417CHOL    R464693  22.785  15.397  20.298
 4417CHOL    R564694  22.587  15.455  20.361
 4417CHOL    C164695  22.419  15.381  20.207
 4417CHOL    C264696  22.250  15.307  20.053
 4418CHOL   ROH64697   7.436  -6.923  15.225
 4418CHOL    R164698   7.460  -6.772  15.176
 4418CHOL    R264699   7.667  -6.704  15.094
 4418CHOL    R364700   7.487  -6.603  15.122
 4418CHOL    R464701   7.688  -6.572  15.052
 4418CHOL    R564702   7.511  -6.452  15.073
 4418CHOL    C164703   7.546  -6.227  15.000
 4418CHOL    C264704   7.582  -6.001  14.927
 4419CHOL   ROH64705  -2.605  12.552  22.442
 4419CHOL    R164706  -2.493  12.529  22.330
 4419CHOL    R264707  -2.347  12.348  22.342
 4419CHOL    R364708  -2.368  12.503  22.204
 4419CHOL    R464709  -2.249  12.328  22.244
 4419CHOL    R564710  -2.256  12.480  22.092
 4419CHOL    C164711  -2.088  12.445  21.923
 4419CHOL    C264712  -1.921  12.411  21.755
 4420CHOL   ROH64713  20.935  -1.643   2.088
 4420CHOL    R164714  20.836  -1.540   2.160
 4420CHOL    R264715  20.915  -1.338   2.247
 4420CHOL    R364716  20.725  -1.424   2.241
 4420CHOL    R464717  20.828  -1.248   2.310
 4420CHOL    R564718  20.626  -1.320   2.312
 4420CHOL    C164719  20.477  -1.166   2.420
 4420CHOL    C264720  20.328  -1.011   2.528
 4421CHOL   ROH64721   3.501  -6.240  13.840
 4421CHOL    R164722   3.558  -6.094  13.806
 4421CHOL    R264723   3.782  -6.063  13.748
 4421CHOL    R364724   3.622  -5.930  13.769
 4421CHOL    R464725   3.832  -5.936  13.719
 4421CHOL    R564726   3.679  -5.784  13.735
 4421CHOL    C164727   3.764  -5.566  13.685
 4421CHOL    C264728   3.850  -5.347  13.634
 4422CHOL   ROH64729  -1.397   7.374  -3.668
 4422CHOL    R164730  -1.295   7.394  -3.546
 4422CHOL    R264731  -1.163   7.217  -3.471
 4422CHOL    R364732  -1.181   7.416  -3.409
 4422CHOL    R464733  -1.074   7.234  -3.364
 4422CHOL    R564734  -1.080   7.435  -3.287
 4422CHOL    C164735  -0.927   7.465  -3.104
 4422CHOL    C264736  -0.775   7.495  -2.921
 4423CHOL   ROH64737  -2.766  19.702  18.008
 4423CHOL    R164738  -2.653  19.615  17.935
 4423CHOL    R264739  -2.541  19.445  18.049
 4423CHOL    R364740  -2.526  19.517  17.853
 4423CHOL    R464741  -2.442  19.369  17.985
 4423CHOL    R564742  -2.413  19.431  17.780
 4423CHOL    C164743  -2.244  19.300  17.671
 4423CHOL    C264744  -2.074  19.170  17.562
 4424CHOL   ROH64745  -7.085  10.282  15.543
 4424CHOL    R164746  -6.934  10.279  15.491
 4424CHOL    R264747  -6.799  10.469  15.506
 4424CHOL    R364748  -6.763  10.276  15.433
 4424CHOL    R464749  -6.666  10.466  15.460
 4424CHOL    R564750  -6.612  10.274  15.382
 4424CHOL    C164751  -6.385  10.269  15.304
 4424CHOL    C264752  -6.158  10.265  15.226
 4425CHOL   ROH64753  12.979  16.473  -6.369
 4425CHOL    R164754  12.951  16.415  -6.223
 4425CHOL    R264755  12.882  16.194  -6.193
 4425CHOL    R364756  12.920  16.349  -6.058
 4425CHOL    R464757  12.857  16.143  -6.065
 4425CHOL    R564758  12.892  16.290  -5.912
 4425CHOL    C164759  12.851  16.203  -5.692
 4425CHOL    C264760  12.809  16.115  -5.472
 4426CHOL   ROH64761  -2.010  18.337  -0.518
 4426CHOL    R164762  -1.903  18.263  -0.425
 4426CHOL    R264763  -1.708  18.371  -0.357
 4426CHOL    R364764  -1.782  18.179  -0.321
 4426CHOL    R464765  -1.614  18.306  -0.276
 4426CHOL    R564766  -1.675  18.104  -0.229
 4426CHOL    C164767  -1.514  17.993  -0.090
 4426CHOL    C264768  -1.353  17.881   0.049
 4427CHOL   ROH64769  19.768  -2.714  17.665
 4427CHOL    R164770  19.677  -2.601  17.597
 4427CHOL    R264771  19.768  -2.396  17.534
 4427CHOL    R364772  19.575  -2.474  17.520
 4427CHOL    R464773  19.689  -2.297  17.474
 4427CHOL    R564774  19.485  -2.361  17.452
 4427CHOL    C164775  19.348  -2.192  17.350
 4427CHOL    C264776  19.212  -2.023  17.248
 4428CHOL   ROH64777  13.953  26.012   3.408
 4428CHOL    R164778  13.917  25.867   3.464
 4428CHOL    R264779  14.026  25.677   3.386
 4428CHOL    R364780  13.875  25.704   3.528
 4428CHOL    R464781  13.994  25.550   3.435
 4428CHOL    R564782  13.839  25.558   3.584
 4428CHOL    C164783  13.784  25.341   3.669
 4428CHOL    C264784  13.730  25.123   3.754
 4429CHOL   ROH64785  -3.116  15.278  21.035
 4429CHOL    R164786  -3.003  15.229  20.933
 4429CHOL    R264787  -2.841  15.074  20.997
 4429CHOL    R364788  -2.876  15.174  20.817
 4429CHOL    R464789  -2.743  15.031  20.908
 4429CHOL    R564790  -2.764  15.125  20.715
 4429CHOL    C164791  -2.594  15.052  20.561
 4429CHOL    C264792  -2.425  14.979  20.408
 4430CHOL   ROH64793  -3.985  17.332  18.545
 4430CHOL    R164794  -3.862  17.263  18.469
 4430CHOL    R264795  -3.663  17.379  18.434
 4430CHOL    R364796  -3.724  17.186  18.382
 4430CHOL    R464797  -3.555  17.319  18.367
 4430CHOL    R564798  -3.601  17.117  18.306
 4430CHOL    C164799  -3.417  17.015  18.191
 4430CHOL    C264800  -3.233  16.912  18.077
 4431CHOL   ROH64801  22.868   2.115   0.618
 4431CHOL    R164802  22.754   2.186   0.705
 4431CHOL    R264803  22.763   2.414   0.752
 4431CHOL    R364804  22.625   2.265   0.803
 4431CHOL    R464805  22.663   2.476   0.828
 4431CHOL    R564806  22.511   2.336   0.889
 4431CHOL    C164807  22.340   2.442   1.020
 4431CHOL    C264808  22.168   2.548   1.150
 4432CHOL   ROH64809  12.396  -6.176  17.201
 4432CHOL    R164810  12.370  -6.032  17.137
 4432CHOL    R264811  12.513  -5.853  17.182
 4432CHOL    R364812  12.340  -5.869  17.066
 4432CHOL    R464813  12.490  -5.727  17.127
 4432CHOL    R564814  12.314  -5.724  17.002
 4432CHOL    C164815  12.275  -5.508  16.907
 4432CHOL    C264816  12.235  -5.291  16.812
 4433CHOL   ROH64817  26.447  13.064  15.647
 4433CHOL    R164818  26.297  13.035  15.598
 4433CHOL    R264819  26.193  13.176  15.444
 4433CHOL    R364820  26.129  13.003  15.543
 4433CHOL    R464821  26.062  13.151  15.401
 4433CHOL    R564822  25.980  12.975  15.493
 4433CHOL    C164823  25.755  12.932  15.420
 4433CHOL    C264824  25.531  12.889  15.346
 4434CHOL   ROH64825  23.976  18.185  17.273
 4434CHOL    R164826  23.850  18.109  17.210
 4434CHOL    R264827  23.870  17.987  17.012
 4434CHOL    R364828  23.708  18.024  17.139
 4434CHOL    R464829  23.760  17.920  16.957
 4434CHOL    R564830  23.583  17.948  17.076
 4434CHOL    C164831  23.394  17.834  16.981
 4434CHOL    C264832  23.205  17.720  16.887
 4435CHOL   ROH64833   3.385   3.349  25.228
 4435CHOL    R164834   3.443   3.407  25.091
 4435CHOL    R264835   3.517   3.264  24.922
 4435CHOL    R364836   3.509   3.472  24.936
 4435CHOL    R464837   3.568   3.314  24.802
 4435CHOL    R564838   3.567   3.529  24.799
 4435CHOL    C164839   3.654   3.616  24.593
 4435CHOL    C264840   3.742   3.703  24.387
 4436CHOL   ROH64841  23.156   0.786   2.320
 4436CHOL    R164842  23.038   0.868   2.390
 4436CHOL    R264843  23.070   1.090   2.456
 4436CHOL    R364844  22.906   0.961   2.469
 4436CHOL    R464845  22.967   1.162   2.517
 4436CHOL    R564846  22.788   1.044   2.539
 4436CHOL    C164847  22.611   1.167   2.644
 4436CHOL    C264848  22.435   1.291   2.749
 4437CHOL   ROH64849  23.219   5.730  -1.163
 4437CHOL    R164850  23.100   5.770  -1.063
 4437CHOL    R264851  22.923   5.902  -1.135
 4437CHOL    R364852  22.967   5.814  -0.951
 4437CHOL    R464853  22.819   5.937  -1.048
 4437CHOL    R564854  22.848   5.854  -0.851
 4437CHOL    C164855  22.670   5.913  -0.702
 4437CHOL    C264856  22.492   5.972  -0.552
 4438CHOL   ROH64857  11.667  27.476   6.915
 4438CHOL    R164858  11.651  27.319   6.944
 4438CHOL    R264859  11.801  27.206   7.082
 4438CHOL    R364860  11.632  27.143   6.976
 4438CHOL    R464861  11.786  27.069   7.107
 4438CHOL    R564862  11.616  26.986   7.005
 4438CHOL    C164863  11.592  26.752   7.047
 4438CHOL    C264864  11.567  26.517   7.090
 4439CHOL   ROH64865   1.150  -3.238  18.198
 4439CHOL    R164866   1.228  -3.119  18.124
 4439CHOL    R264867   1.332  -2.950  18.245
 4439CHOL    R364868   1.315  -2.986  18.040
 4439CHOL    R464869   1.400  -2.846  18.180
 4439CHOL    R564870   1.392  -2.868  17.966
 4439CHOL    C164871   1.509  -2.690  17.855
 4439CHOL    C264872   1.625  -2.512  17.743
 4440CHOL   ROH64873  16.652  -5.136  16.550
 4440CHOL    R164874  16.593  -4.999  16.492
 4440CHOL    R264875  16.666  -4.793  16.574
 4440CHOL    R364876  16.527  -4.845  16.427
 4440CHOL    R464877  16.615  -4.673  16.523
 4440CHOL    R564878  16.469  -4.708  16.369
 4440CHOL    C164879  16.380  -4.502  16.282
 4440CHOL    C264880  16.292  -4.296  16.195
 4441CHOL   ROH64881  10.676  26.973  15.409
 4441CHOL    R164882  10.666  26.820  15.363
 4441CHOL    R264883  10.856  26.702  15.297
 4441CHOL    R364884  10.655  26.648  15.311
 4441CHOL    R464885  10.847  26.568  15.256
 4441CHOL    R564886  10.644  26.495  15.264
 4441CHOL    C164887  10.629  26.266  15.195
 4441CHOL    C264888  10.614  26.037  15.126
 4442CHOL   ROH64889  16.532   0.213  23.322
 4442CHOL    R164890  16.472   0.302  23.203
 4442CHOL    R264891  16.512   0.247  22.980
 4442CHOL    R364892  16.405   0.402  23.070
 4442CHOL    R464893  16.460   0.325  22.876
 4442CHOL    R564894  16.345   0.491  22.951
 4442CHOL    C164895  16.255   0.624  22.773
 4442CHOL    C264896  16.165   0.758  22.595
 4443CHOL   ROH64897  21.927  16.581  -1.505
 4443CHOL    R164898  21.820  16.522  -1.401
 4443CHOL    R264899  21.750  16.301  -1.414
 4443CHOL    R364900  21.700  16.457  -1.285
 4443CHOL    R464901  21.656  16.249  -1.323
 4443CHOL    R564902  21.593  16.398  -1.181
 4443CHOL    C164903  21.433  16.310  -1.025
 4443CHOL    C264904  21.272  16.222  -0.870
 4444CHOL   ROH64905  11.397  14.495  -7.256
 4444CHOL    R164906  11.382  14.453  -7.102
 4444CHOL    R264907  11.379  14.229  -7.039
 4444CHOL    R364908  11.366  14.406  -6.929
 4444CHOL    R464909  11.366  14.192  -6.904
 4444CHOL    R564910  11.351  14.365  -6.776
 4444CHOL    C164911  11.329  14.302  -6.545
 4444CHOL    C264912  11.307  14.239  -6.314
 4445CHOL   ROH64913   6.901  14.729  -7.049
 4445CHOL    R164914   6.927  14.686  -6.897
 4445CHOL    R264915   7.084  14.798  -6.766
 4445CHOL    R364916   6.956  14.638  -6.726
 4445CHOL    R464917   7.107  14.760  -6.633
 4445CHOL    R564918   6.981  14.596  -6.574
 4445CHOL    C164919   7.020  14.531  -6.346
 4445CHOL    C264920   7.059  14.467  -6.118
 4446CHOL   ROH64921  -6.606  16.261   7.124
 4446CHOL    R164922  -6.459  16.206   7.154
 4446CHOL    R264923  -6.317  16.319   7.302
 4446CHOL    R364924  -6.293  16.145   7.189
 4446CHOL    R464925  -6.188  16.271   7.329
 4446CHOL    R564926  -6.145  16.090   7.219
 4446CHOL    C164927  -5.924  16.009   7.265
 4446CHOL    C264928  -5.703  15.927   7.310
 4447CHOL   ROH64929  16.034  14.383  26.149
 4447CHOL    R164930  15.980  14.341  26.004
 4447CHOL    R264931  15.993  14.489  25.824
 4447CHOL    R364932  15.920  14.294  25.841
 4447CHOL    R464933  15.946  14.452  25.697
 4447CHOL    R564934  15.866  14.253  25.696
 4447CHOL    C164935  15.785  14.190  25.479
 4447CHOL    C264936  15.705  14.127  25.262
 4448CHOL   ROH64937  16.103   9.507  -6.767
 4448CHOL    R164938  16.044   9.514  -6.618
 4448CHOL    R264939  15.815   9.534  -6.581
 4448CHOL    R364940  15.978   9.522  -6.451
 4448CHOL    R464941  15.764   9.540  -6.451
 4448CHOL    R564942  15.919   9.529  -6.303
 4448CHOL    C164943  15.831   9.540  -6.080
 4448CHOL    C264944  15.743   9.550  -5.857
 4449CHOL   ROH64945  -7.381   6.800   6.363
 4449CHOL    R164946  -7.227   6.828   6.396
 4449CHOL    R264947  -7.162   6.909   6.605
 4449CHOL    R364948  -7.054   6.860   6.433
 4449CHOL    R464949  -7.027   6.933   6.634
 4449CHOL    R564950  -6.900   6.888   6.466
 4449CHOL    C164951  -6.668   6.930   6.515
 4449CHOL    C264952  -6.437   6.972   6.565
 4450CHOL   ROH64953  17.705  23.819  17.956
 4450CHOL    R164954  17.632  23.696  17.885
 4450CHOL    R264955  17.610  23.687  17.653
 4450CHOL    R364956  17.550  23.557  17.805
 4450CHOL    R464957  17.546  23.579  17.591
 4450CHOL    R564958  17.477  23.433  17.734
 4450CHOL    C164959  17.368  23.248  17.627
 4450CHOL    C264960  17.258  23.063  17.520
 4451CHOL   ROH64961  -6.092   6.095  17.077
 4451CHOL    R164962  -5.947   6.126  17.016
 4451CHOL    R264963  -5.760   6.006  17.087
 4451CHOL    R364964  -5.784   6.160  16.948
 4451CHOL    R464965  -5.633   6.033  17.034
 4451CHOL    R564966  -5.639   6.190  16.887
 4451CHOL    C164967  -5.422   6.236  16.797
 4451CHOL    C264968  -5.205   6.282  16.706
 4452CHOL   ROH64969  17.428  -5.964  12.520
 4452CHOL    R164970  17.359  -5.822  12.497
 4452CHOL    R264971  17.480  -5.624  12.520
 4452CHOL    R364972  17.281  -5.661  12.471
 4452CHOL    R464973  17.420  -5.499  12.500
 4452CHOL    R564974  17.212  -5.519  12.448
 4452CHOL    C164975  17.108  -5.305  12.413
 4452CHOL    C264976  17.005  -5.092  12.379
 4453CHOL   ROH64977   0.750  23.702  16.785
 4453CHOL    R164978   0.830  23.576  16.727
 4453CHOL    R264979   0.984  23.602  16.553
 4453CHOL    R364980   0.920  23.435  16.661
 4453CHOL    R464981   1.054  23.492  16.502
 4453CHOL    R564982   1.001  23.310  16.602
 4453CHOL    C164983   1.121  23.121  16.515
 4453CHOL    C264984   1.241  22.933  16.427
 4454CHOL   ROH64985   4.442  23.075  -0.895
 4454CHOL    R164986   4.488  22.955  -0.799
 4454CHOL    R264987   4.575  22.998  -0.587
 4454CHOL    R364988   4.540  22.820  -0.692
 4454CHOL    R464989   4.616  22.893  -0.504
 4454CHOL    R564990   4.586  22.701  -0.597
 4454CHOL    C164991   4.655  22.521  -0.453
 4454CHOL    C264992   4.724  22.341  -0.310
 4455CHOL   ROH64993  16.024  13.574  -6.460
 4455CHOL    R164994  15.971  13.542  -6.312
 4455CHOL    R264995  15.841  13.353  -6.270
 4455CHOL    R364996  15.912  13.506  -6.146
 4455CHOL    R464997  15.795  13.325  -6.140
 4455CHOL    R564998  15.859  13.474  -5.998
 4455CHOL    C164999  15.781  13.426  -5.777
 4455CHOL    C265000  15.702  13.378  -5.555
 4456CHOL   ROH65001  -0.911  23.753  13.780
 4456CHOL    R165002  -0.818  23.629  13.742
 4456CHOL    R265003  -0.632  23.656  13.604
 4456CHOL    R365004  -0.713  23.488  13.699
 4456CHOL    R465005  -0.551  23.547  13.570
 4456CHOL    R565006  -0.620  23.364  13.661
 4456CHOL    C165007  -0.481  23.177  13.603
 4456CHOL    C265008  -0.342  22.991  13.546
 4457CHOL   ROH65009  23.001  -2.106   9.378
 4457CHOL    R165010  22.883  -1.998   9.384
 4457CHOL    R265011  22.731  -1.975   9.209
 4457CHOL    R365012  22.751  -1.876   9.392
 4457CHOL    R465013  22.628  -1.881   9.215
 4457CHOL    R565014  22.634  -1.767   9.398
 4457CHOL    C165015  22.457  -1.605   9.408
 4457CHOL    C265016  22.281  -1.443   9.417
 4458CHOL   ROH65017   9.858  -6.533   3.130
 4458CHOL    R165018   9.862  -6.386   3.192
 4458CHOL    R265019  10.003  -6.334   3.371
 4458CHOL    R365020   9.866  -6.220   3.263
 4458CHOL    R465021  10.007  -6.205   3.425
 4458CHOL    R565022   9.870  -6.072   3.325
 4458CHOL    C165023   9.876  -5.851   3.419
 4458CHOL    C265024   9.882  -5.630   3.512
 4459CHOL   ROH65025  14.199  -0.234  -4.040
 4459CHOL    R165026  14.163  -0.141  -3.915
 4459CHOL    R265027  14.257   0.072  -3.893
 4459CHOL    R365028  14.123  -0.035  -3.774
 4459CHOL    R465029  14.225   0.154  -3.784
 4459CHOL    R565030  14.087   0.058  -3.649
 4459CHOL    C165031  14.033   0.198  -3.462
 4459CHOL    C265032  13.979   0.338  -3.275
 4460CHOL   ROH65033  13.514  -7.100  13.634
 4460CHOL    R165034  13.481  -6.947  13.600
 4460CHOL    R265035  13.563  -6.848  13.405
 4460CHOL    R365036  13.444  -6.775  13.561
 4460CHOL    R465037  13.534  -6.714  13.375
 4460CHOL    R565038  13.411  -6.623  13.526
 4460CHOL    C165039  13.362  -6.393  13.475
 4460CHOL    C265040  13.312  -6.164  13.423
 4461CHOL   ROH65041  16.331  25.761  15.211
 4461CHOL    R165042  16.275  25.620  15.161
 4461CHOL    R265043  16.397  25.489  15.011
 4461CHOL    R365044  16.212  25.461  15.105
 4461CHOL    R465045  16.348  25.365  14.967
 4461CHOL    R565046  16.156  25.319  15.055
 4461CHOL    C165047  16.072  25.108  14.979
 4461CHOL    C265048  15.988  24.896  14.904
 4462CHOL   ROH65049  21.264   1.143  -0.503
 4462CHOL    R165050  21.161   1.220  -0.408
 4462CHOL    R265051  21.220   1.423  -0.308
 4462CHOL    R365052  21.046   1.307  -0.300
 4462CHOL    R465053  21.130   1.490  -0.224
 4462CHOL    R565054  20.944   1.385  -0.205
 4462CHOL    C165055  20.790   1.500  -0.062
 4462CHOL    C265056  20.636   1.616   0.081
 4463CHOL   ROH65057   7.889  -2.696  22.364
 4463CHOL    R165058   7.906  -2.581  22.254
 4463CHOL    R265059   7.962  -2.634  22.034
 4463CHOL    R365060   7.925  -2.452  22.130
 4463CHOL    R465061   7.977  -2.533  21.937
 4463CHOL    R565062   7.942  -2.338  22.020
 4463CHOL    C165063   7.967  -2.165  21.854
 4463CHOL    C265064   7.993  -1.993  21.689
 4464CHOL   ROH65065   7.316   0.023  24.543
 4464CHOL    R165066   7.337   0.108  24.409
 4464CHOL    R265067   7.551   0.152  24.328
 4464CHOL    R365068   7.361   0.204  24.259
 4464CHOL    R465069   7.570   0.227  24.211
 4464CHOL    R565070   7.382   0.290  24.126
 4464CHOL    C165071   7.414   0.417  23.925
 4464CHOL    C265072   7.446   0.545  23.725
 4465CHOL   ROH65073  -0.487  12.841  -4.256
 4465CHOL    R165074  -0.394  12.818  -4.128
 4465CHOL    R265075  -0.352  12.992  -3.978
 4465CHOL    R365076  -0.289  12.792  -3.984
 4465CHOL    R465077  -0.270  12.972  -3.866
 4465CHOL    R565078  -0.196  12.770  -3.856
 4465CHOL    C165079  -0.057  12.735  -3.663
 4465CHOL    C265080   0.082  12.701  -3.471
 4466CHOL   ROH65081  12.047  27.608   8.115
 4466CHOL    R165082  12.028  27.450   8.132
 4466CHOL    R265083  12.181  27.323   8.254
 4466CHOL    R365084  12.007  27.272   8.151
 4466CHOL    R465085  12.165  27.185   8.269
 4466CHOL    R565086  11.988  27.115   8.168
 4466CHOL    C165087  11.960  26.878   8.193
 4466CHOL    C265088  11.931  26.641   8.219
 4467CHOL   ROH65089  20.931  17.276  -2.058
 4467CHOL    R165090  20.834  17.211  -1.949
 4467CHOL    R265091  20.892  17.014  -1.838
 4467CHOL    R365092  20.724  17.137  -1.827
 4467CHOL    R465093  20.807  16.957  -1.743
 4467CHOL    R565094  20.627  17.072  -1.718
 4467CHOL    C165095  20.480  16.974  -1.555
 4467CHOL    C265096  20.334  16.876  -1.392
 4468CHOL   ROH65097  14.101  26.712  14.484
 4468CHOL    R165098  14.065  26.561  14.445
 4468CHOL    R265099  14.175  26.452  14.271
 4468CHOL    R365100  14.024  26.391  14.402
 4468CHOL    R465101  14.143  26.320  14.237
 4468CHOL    R565102  13.988  26.240  14.363
 4468CHOL    C165103  13.933  26.014  14.305
 4468CHOL    C265104  13.879  25.788  14.247
 4469CHOL   ROH65105  -0.197  18.204  22.115
 4469CHOL    R165106  -0.107  18.132  22.004
 4469CHOL    R265107   0.126  18.155  22.006
 4469CHOL    R365108  -0.005  18.052  21.879
 4469CHOL    R465109   0.205  18.092  21.909
 4469CHOL    R565110   0.085  17.980  21.769
 4469CHOL    C165111   0.221  17.872  21.602
 4469CHOL    C265112   0.357  17.765  21.436
 4470CHOL   ROH65113  14.042  26.532   4.928
 4470CHOL    R165114  14.005  26.384   4.976
 4470CHOL    R265115  14.170  26.236   5.047
 4470CHOL    R365116  13.963  26.217   5.029
 4470CHOL    R465117  14.138  26.106   5.089
 4470CHOL    R565118  13.926  26.069   5.077
 4470CHOL    C165119  13.870  25.847   5.149
 4470CHOL    C265120  13.815  25.625   5.220
 4471CHOL   ROH65121  20.456  15.450  -3.351
 4471CHOL    R165122  20.363  15.401  -3.230
 4471CHOL    R265123  20.206  15.231  -3.260
 4471CHOL    R365124  20.259  15.346  -3.094
 4471CHOL    R465125  20.125  15.189  -3.154
 4471CHOL    R565126  20.166  15.298  -2.973
 4471CHOL    C165127  20.028  15.224  -2.792
 4471CHOL    C265128  19.889  15.151  -2.610
 4472CHOL   ROH65129  -2.822   9.364  -2.539
 4472CHOL    R165130  -2.707   9.368  -2.428
 4472CHOL    R265131  -2.684   9.553  -2.286
 4472CHOL    R365132  -2.578   9.374  -2.302
 4472CHOL    R465133  -2.584   9.557  -2.189
 4472CHOL    R565134  -2.464   9.378  -2.191
 4472CHOL    C165135  -2.291   9.385  -2.024
 4472CHOL    C265136  -2.119   9.391  -1.857
 4473CHOL   ROH65137  26.759   6.552   5.366
 4473CHOL    R165138  26.606   6.581   5.404
 4473CHOL    R265139  26.450   6.635   5.239
 4473CHOL    R365140  26.434   6.614   5.446
 4473CHOL    R465141  26.316   6.660   5.272
 4473CHOL    R565142  26.281   6.643   5.484
 4473CHOL    C165143  26.052   6.687   5.541
 4473CHOL    C265144  25.823   6.730   5.597
 4474CHOL   ROH65145  22.153  -0.981  16.846
 4474CHOL    R165146  22.044  -0.881  16.786
 4474CHOL    R265147  22.051  -0.653  16.833
 4474CHOL    R365148  21.920  -0.768  16.719
 4474CHOL    R465149  21.955  -0.565  16.781
 4474CHOL    R565150  21.811  -0.668  16.659
 4474CHOL    C165151  21.647  -0.518  16.569
 4474CHOL    C265152  21.483  -0.368  16.479
 4475CHOL   ROH65153  24.228   0.475   5.254
 4475CHOL    R165154  24.099   0.561   5.293
 4475CHOL    R265155  24.022   0.731   5.153
 4475CHOL    R365156  23.954   0.658   5.337
 4475CHOL    R465157  23.909   0.807   5.187
 4475CHOL    R565158  23.825   0.744   5.376
 4475CHOL    C165159  23.632   0.874   5.435
 4475CHOL    C265160  23.438   1.003   5.493
 4476CHOL   ROH65161  -7.722   7.315   7.887
 4476CHOL    R165162  -7.565   7.339   7.906
 4476CHOL    R265163  -7.484   7.489   8.065
 4476CHOL    R365164  -7.388   7.366   7.927
 4476CHOL    R465165  -7.347   7.510   8.082
 4476CHOL    R565166  -7.231   7.390   7.946
 4476CHOL    C165167  -6.995   7.426   7.974
 4476CHOL    C265168  -6.760   7.462   8.002
 4477CHOL   ROH65169  14.243  26.917   6.501
 4477CHOL    R165170  14.204  26.766   6.535
 4477CHOL    R265171  14.364  26.597   6.534
 4477CHOL    R365172  14.159  26.595   6.573
 4477CHOL    R465173  14.330  26.464   6.564
 4477CHOL    R565174  14.120  26.444   6.608
 4477CHOL    C165175  14.061  26.217   6.659
 4477CHOL    C265176  14.002  25.990   6.710
 4478CHOL   ROH65177  20.650  17.849  -1.947
 4478CHOL    R165178  20.555  17.778  -1.839
 4478CHOL    R265179  20.623  17.585  -1.728
 4478CHOL    R365180  20.448  17.699  -1.719
 4478CHOL    R465181  20.540  17.523  -1.634
 4478CHOL    R565182  20.353  17.628  -1.611
 4478CHOL    C165183  20.210  17.522  -1.450
 4478CHOL    C265184  20.068  17.416  -1.288
 4479CHOL   ROH65185  24.981   0.639   8.535
 4479CHOL    R165186  24.845   0.722   8.549
 4479CHOL    R265187  24.803   0.908   8.415
 4479CHOL    R365188  24.691   0.815   8.565
 4479CHOL    R465189  24.683   0.980   8.428
 4479CHOL    R565190  24.555   0.897   8.579
 4479CHOL    C165191  24.351   1.022   8.601
 4479CHOL    C265192  24.146   1.146   8.622
 4480CHOL   ROH65193  16.491  25.563   4.379
 4480CHOL    R165194  16.436  25.422   4.429
 4480CHOL    R265195  16.492  25.224   4.318
 4480CHOL    R365196  16.373  25.262   4.486
 4480CHOL    R465197  16.443  25.101   4.362
 4480CHOL    R565198  16.318  25.121   4.536
 4480CHOL    C165199  16.235  24.909   4.611
 4480CHOL    C265200  16.152  24.697   4.687
 4481CHOL   ROH65201  24.517  19.673   7.140
 4481CHOL    R165202  24.385  19.587   7.167
 4481CHOL    R265203  24.370  19.365   7.096
 4481CHOL    R365204  24.237  19.489   7.197
 4481CHOL    R465205  24.255  19.289   7.120
 4481CHOL    R565206  24.105  19.403   7.224
 4481CHOL    C165207  23.907  19.273   7.264
 4481CHOL    C265208  23.709  19.144   7.305
 4482CHOL   ROH65209  -5.701   2.962   4.748
 4482CHOL    R165210  -5.561   3.028   4.788
 4482CHOL    R265211  -5.416   2.922   4.936
 4482CHOL    R365212  -5.404   3.103   4.833
 4482CHOL    R465213  -5.294   2.980   4.971
 4482CHOL    R565214  -5.264   3.169   4.873
 4482CHOL    C165215  -5.054   3.269   4.932
 4482CHOL    C265216  -4.844   3.369   4.992
 4483CHOL   ROH65217  17.027  20.242  22.708
 4483CHOL    R165218  16.963  20.152  22.592
 4483CHOL    R265219  17.059  20.145  22.379
 4483CHOL    R365220  16.892  20.051  22.462
 4483CHOL    R465221  17.004  20.066  22.278
 4483CHOL    R565222  16.829  19.961  22.346
 4483CHOL    C165223  16.733  19.825  22.172
 4483CHOL    C265224  16.638  19.690  21.998
 4484CHOL   ROH65225  -5.075   8.045  19.539
 4484CHOL    R165226  -4.942   8.059  19.452
 4484CHOL    R265227  -4.757   8.177  19.533
 4484CHOL    R365228  -4.791   8.075  19.354
 4484CHOL    R465229  -4.641   8.189  19.457
 4484CHOL    R565230  -4.658   8.089  19.267
 4484CHOL    C165231  -4.458   8.111  19.136
 4484CHOL    C265232  -4.258   8.132  19.006
 4485CHOL   ROH65233  17.699  25.125  15.239
 4485CHOL    R165234  17.628  24.991  15.187
 4485CHOL    R265235  17.627  24.936  14.961
 4485CHOL    R365236  17.548  24.841  15.130
 4485CHOL    R465237  17.564  24.819  14.916
 4485CHOL    R565238  17.477  24.707  15.078
 4485CHOL    C165239  17.370  24.507  15.001
 4485CHOL    C265240  17.263  24.307  14.923
 4486CHOL   ROH65241   0.564  17.338  23.209
 4486CHOL    R165242   0.649  17.273  23.090
 4486CHOL    R265243   0.882  17.267  23.100
 4486CHOL    R365244   0.746  17.201  22.956
 4486CHOL    R465245   0.957  17.210  22.996
 4486CHOL    R565246   0.831  17.136  22.838
 4486CHOL    C165247   0.959  17.039  22.659
 4486CHOL    C265248   1.087  16.942  22.481
 4487CHOL   ROH65249  13.666   6.053  -7.086
 4487CHOL    R165250  13.631   6.089  -6.934
 4487CHOL    R265251  13.565   6.305  -6.875
 4487CHOL    R365252  13.592   6.131  -6.763
 4487CHOL    R465253  13.534   6.337  -6.742
 4487CHOL    R565254  13.557   6.167  -6.611
 4487CHOL    C165255  13.505   6.222  -6.384
 4487CHOL    C265256  13.452   6.276  -6.156
 4488CHOL   ROH65257  18.719  -3.864  16.950
 4488CHOL    R165258  18.637  -3.740  16.890
 4488CHOL    R265259  18.741  -3.534  16.855
 4488CHOL    R365260  18.546  -3.601  16.822
 4488CHOL    R465261  18.669  -3.426  16.802
 4488CHOL    R565262  18.464  -3.477  16.762
 4488CHOL    C165263  18.342  -3.291  16.672
 4488CHOL    C265264  18.219  -3.105  16.582
 4489CHOL   ROH65265   6.413  17.006  26.051
 4489CHOL    R165266   6.440  16.942  25.907
 4489CHOL    R265267   6.524  16.725  25.886
 4489CHOL    R365268   6.470  16.870  25.745
 4489CHOL    R465269   6.548  16.669  25.759
 4489CHOL    R565270   6.496  16.806  25.600
 4489CHOL    C165271   6.537  16.709  25.384
 4489CHOL    C265272   6.577  16.613  25.168
 4490CHOL   ROH65273  20.117  -1.686   1.124
 4490CHOL    R165274  20.025  -1.582   1.204
 4490CHOL    R265275  19.834  -1.491   1.107
 4490CHOL    R365276  19.922  -1.466   1.295
 4490CHOL    R465277  19.754  -1.400   1.178
 4490CHOL    R565278  19.830  -1.362   1.376
 4490CHOL    C165279  19.693  -1.207   1.496
 4490CHOL    C265280  19.555  -1.052   1.617
 4491CHOL   ROH65281  11.667  20.356  -4.467
 4491CHOL    R165282  11.652  20.261  -4.339
 4491CHOL    R265283  11.811  20.262  -4.169
 4491CHOL    R365284  11.634  20.154  -4.195
 4491CHOL    R465285  11.798  20.179  -4.057
 4491CHOL    R565286  11.619  20.060  -4.068
 4491CHOL    C165287  11.596  19.917  -3.876
 4491CHOL    C265288  11.573  19.775  -3.684
 4492CHOL   ROH65289   7.423  12.720  27.324
 4492CHOL    R165290   7.450  12.699  27.168
 4492CHOL    R265291   7.590  12.529  27.092
 4492CHOL    R365292   7.480  12.675  26.992
 4492CHOL    R465293   7.614  12.510  26.955
 4492CHOL    R565294   7.507  12.654  26.835
 4492CHOL    C165295   7.548  12.623  26.601
 4492CHOL    C265296   7.589  12.592  26.367
 4493CHOL   ROH65297  -7.397  14.086   7.956
 4493CHOL    R165298  -7.242  14.051   7.978
 4493CHOL    R265299  -7.139  14.090   8.184
 4493CHOL    R365300  -7.069  14.012   8.004
 4493CHOL    R465301  -7.004  14.059   8.204
 4493CHOL    R565302  -6.914  13.976   8.026
 4493CHOL    C165303  -6.682  13.924   8.060
 4493CHOL    C265304  -6.450  13.871   8.093
 4494CHOL   ROH65305  -0.174  14.146  24.021
 4494CHOL    R165306  -0.083  14.107  23.895
 4494CHOL    R265307   0.147  14.076  23.919
 4494CHOL    R365308   0.020  14.064  23.754
 4494CHOL    R465309   0.227  14.042  23.809
 4494CHOL    R565310   0.111  14.026  23.628
 4494CHOL    C165311   0.248  13.968  23.440
 4494CHOL    C265312   0.385  13.910  23.252
 4495CHOL   ROH65313  -5.836  11.849  18.277
 4495CHOL    R165314  -5.697  11.833  18.199
 4495CHOL    R265315  -5.532  11.996  18.214
 4495CHOL    R365316  -5.541  11.814  18.112
 4495CHOL    R465317  -5.410  11.982  18.146
 4495CHOL    R565318  -5.402  11.798  18.034
 4495CHOL    C165319  -5.194  11.774  17.917
 4495CHOL    C265320  -4.985  11.749  17.801
 4496CHOL   ROH65321  21.297  21.953   3.328
 4496CHOL    R165322  21.195  21.847   3.391
 4496CHOL    R265323  21.228  21.618   3.364
 4496CHOL    R365324  21.080  21.728   3.462
 4496CHOL    R465325  21.139  21.525   3.419
 4496CHOL    R565326  20.979  21.622   3.525
 4496CHOL    C165327  20.826  21.463   3.620
 4496CHOL    C265328  20.673  21.304   3.715
 4497CHOL   ROH65329  -1.378  -0.509   0.796
 4497CHOL    R165330  -1.280  -0.416   0.882
 4497CHOL    R265331  -1.111  -0.508   1.014
 4497CHOL    R365332  -1.171  -0.311   0.979
 4497CHOL    R465333  -1.026  -0.426   1.089
 4497CHOL    R565334  -1.073  -0.217   1.064
 4497CHOL    C165335  -0.927  -0.078   1.193
 4497CHOL    C265336  -0.780   0.062   1.322
 4498CHOL   ROH65337   2.160   1.455  23.618
 4498CHOL    R165338   2.234   1.529  23.497
 4498CHOL    R265339   2.316   1.746  23.521
 4498CHOL    R365340   2.318   1.612  23.361
 4498CHOL    R465341   2.381   1.811  23.415
 4498CHOL    R565342   2.392   1.686  23.240
 4498CHOL    C165343   2.504   1.796  23.059
 4498CHOL    C265344   2.616   1.907  22.877
 4499CHOL   ROH65345   9.125  17.481  -6.259
 4499CHOL    R165346   9.130  17.415  -6.113
 4499CHOL    R265347   9.130  17.548  -5.922
 4499CHOL    R365348   9.136  17.341  -5.950
 4499CHOL    R465349   9.134  17.490  -5.794
 4499CHOL    R565350   9.141  17.275  -5.804
 4499CHOL    C165351   9.148  17.176  -5.586
 4499CHOL    C265352   9.155  17.077  -5.367
 4500CHOL   ROH65353  19.465   0.829  -1.994
 4500CHOL    R165354  19.374   0.908  -1.889
 4500CHOL    R265355  19.149   0.949  -1.932
 4500CHOL    R365356  19.272   0.998  -1.771
 4500CHOL    R465357  19.069   1.018  -1.840
 4500CHOL    R565358  19.181   1.077  -1.666
 4500CHOL    C165359  19.045   1.196  -1.508
 4500CHOL    C265360  18.909   1.315  -1.350
 4501CHOL   ROH65361  11.226  12.556  -7.694
 4501CHOL    R165362  11.214  12.530  -7.537
 4501CHOL    R265363  11.237  12.315  -7.448
 4501CHOL    R365364  11.200  12.501  -7.359
 4501CHOL    R465365  11.226  12.292  -7.311
 4501CHOL    R565366  11.188  12.474  -7.202
 4501CHOL    C165367  11.170  12.435  -6.966
 4501CHOL    C265368  11.152  12.396  -6.730
 4502CHOL   ROH65369  15.696   8.883  -6.883
 4502CHOL    R165370  15.639   8.895  -6.734
 4502CHOL    R265371  15.416   8.845  -6.686
 4502CHOL    R365372  15.575   8.910  -6.566
 4502CHOL    R465373  15.366   8.856  -6.556
 4502CHOL    R565374  15.518   8.922  -6.418
 4502CHOL    C165375  15.432   8.941  -6.194
 4502CHOL    C265376  15.346   8.959  -5.971
 4503CHOL   ROH65377  17.530   4.595  -5.225
 4503CHOL    R165378  17.461   4.640  -5.088
 4503CHOL    R265379  17.560   4.800  -4.950
 4503CHOL    R365380  17.383   4.691  -4.934
 4503CHOL    R465381  17.500   4.839  -4.830
 4503CHOL    R565382  17.314   4.735  -4.797
 4503CHOL    C165383  17.210   4.803  -4.591
 4503CHOL    C265384  17.107   4.870  -4.385
 4504CHOL   ROH65385  -6.587  10.213  16.876
 4504CHOL    R165386  -6.439  10.216  16.816
 4504CHOL    R265387  -6.316  10.414  16.808
 4504CHOL    R365388  -6.272  10.219  16.748
 4504CHOL    R465389  -6.187  10.417  16.756
 4504CHOL    R565390  -6.124  10.223  16.688
 4504CHOL    C165391  -5.902  10.227  16.597
 4504CHOL    C265392  -5.680  10.232  16.507
 4505CHOL   ROH65393   8.844  -6.092  17.670
 4505CHOL    R165394   8.855  -5.948  17.601
 4505CHOL    R265395   9.049  -5.882  17.490
 4505CHOL    R365396   8.866  -5.786  17.523
 4505CHOL    R465397   9.058  -5.757  17.429
 4505CHOL    R565398   8.877  -5.642  17.454
 4505CHOL    C165399   8.893  -5.427  17.350
 4505CHOL    C265400   8.909  -5.211  17.246
 4506CHOL   ROH65401   6.878  23.358  21.330
 4506CHOL    R165402   6.907  23.241  21.225
 4506CHOL    R265403   6.975  23.290  21.007
 4506CHOL    R365404   6.940  23.110  21.106
 4506CHOL    R465405   7.000  23.188  20.914
 4506CHOL    R565406   6.969  22.993  21.000
 4506CHOL    C165407   7.013  22.818  20.842
 4506CHOL    C265408   7.056  22.643  20.684
 4507CHOL   ROH65409   2.612   9.400  26.274
 4507CHOL    R165410   2.673   9.401  26.126
 4507CHOL    R265411   2.834   9.245  26.061
 4507CHOL    R365412   2.742   9.403  25.960
 4507CHOL    R465413   2.887   9.246  25.932
 4507CHOL    R565414   2.803   9.404  25.812
 4507CHOL    C165415   2.895   9.406  25.590
 4507CHOL    C265416   2.986   9.408  25.368
 4508CHOL   ROH65417  20.043   0.286  20.892
 4508CHOL    R165418  19.952   0.373  20.794
 4508CHOL    R265419  19.926   0.314  20.569
 4508CHOL    R365420  19.849   0.472  20.683
 4508CHOL    R465421  19.846   0.391  20.484
 4508CHOL    R565422  19.758   0.559  20.585
 4508CHOL    C165423  19.620   0.690  20.438
 4508CHOL    C265424  19.483   0.821  20.290
 4509CHOL   ROH65425   6.264   2.334  25.584
 4509CHOL    R165426   6.292   2.399  25.440
 4509CHOL    R265427   6.509   2.451  25.373
 4509CHOL    R365428   6.324   2.472  25.279
 4509CHOL    R465429   6.534   2.508  25.247
 4509CHOL    R565430   6.352   2.537  25.136
 4509CHOL    C165431   6.394   2.634  24.920
 4509CHOL    C265432   6.436   2.732  24.705
 4510CHOL   ROH65433   0.687  22.297  19.113
 4510CHOL    R165434   0.769  22.186  19.031
 4510CHOL    R265435   1.002  22.192  19.023
 4510CHOL    R365436   0.861  22.062  18.940
 4510CHOL    R465437   1.074  22.095  18.951
 4510CHOL    R565438   0.943  21.952  18.858
 4510CHOL    C165439   1.067  21.786  18.736
 4510CHOL    C265440   1.190  21.620  18.613
 4511CHOL   ROH65441  15.229  -3.204  20.663
 4511CHOL    R165442  15.184  -3.087  20.563
 4511CHOL    R265443  15.171  -3.124  20.333
 4511CHOL    R365444  15.133  -2.956  20.452
 4511CHOL    R465445  15.131  -3.022  20.246
 4511CHOL    R565446  15.087  -2.839  20.352
 4511CHOL    C165447  15.020  -2.664  20.203
 4511CHOL    C265448  14.952  -2.489  20.053
 4512CHOL   ROH65449  22.148   8.930  22.846
 4512CHOL    R165450  22.038   8.938  22.730
 4512CHOL    R265451  22.093   9.014  22.517
 4512CHOL    R365452  21.913   8.947  22.601
 4512CHOL    R465453  21.996   9.021  22.416
 4512CHOL    R565454  21.803   8.955  22.485
 4512CHOL    C165455  21.637   8.968  22.312
 4512CHOL    C265456  21.472   8.980  22.138
 4513CHOL   ROH65457  26.523   5.303   5.548
 4513CHOL    R165458  26.373   5.343   5.587
 4513CHOL    R265459  26.212   5.379   5.423
 4513CHOL    R365460  26.204   5.388   5.631
 4513CHOL    R465461  26.080   5.414   5.457
 4513CHOL    R565462  26.054   5.427   5.670
 4513CHOL    C165463  25.830   5.487   5.729
 4513CHOL    C265464  25.605   5.547   5.788
 4514CHOL   ROH65465  20.819  18.614  -1.238
 4514CHOL    R165466  20.722  18.535  -1.138
 4514CHOL    R265467  20.807  18.377  -0.989
 4514CHOL    R365468  20.613  18.446  -1.026
 4514CHOL    R465469  20.722  18.308  -0.901
 4514CHOL    R565470  20.516  18.367  -0.926
 4514CHOL    C165471  20.371  18.248  -0.776
 4514CHOL    C265472  20.225  18.130  -0.626
 4515CHOL   ROH65473  18.512  17.304  23.673
 4515CHOL    R165474  18.427  17.242  23.552
 4515CHOL    R265475  18.398  17.360  23.353
 4515CHOL    R365476  18.331  17.172  23.417
 4515CHOL    R465477  18.323  17.306  23.248
 4515CHOL    R565478  18.246  17.110  23.296
 4515CHOL    C165479  18.119  17.018  23.115
 4515CHOL    C265480  17.992  16.925  22.934
 4516CHOL   ROH65481  -1.277   9.968  -3.943
 4516CHOL    R165482  -1.178   9.966  -3.818
 4516CHOL    R265483  -1.168  10.145  -3.669
 4516CHOL    R365484  -1.066   9.964  -3.676
 4516CHOL    R465485  -1.081  10.144  -3.559
 4516CHOL    R565486  -0.966   9.962  -3.551
 4516CHOL    C165487  -0.817   9.958  -3.363
 4516CHOL    C265488  -0.668   9.955  -3.175
 4517CHOL   ROH65489  18.778  -2.546  19.007
 4517CHOL    R165490  18.697  -2.438  18.922
 4517CHOL    R265491  18.808  -2.275  18.797
 4517CHOL    R365492  18.606  -2.315  18.826
 4517CHOL    R465493  18.737  -2.180  18.723
 4517CHOL    R565494  18.525  -2.207  18.741
 4517CHOL    C165495  18.403  -2.044  18.613
 4517CHOL    C265496  18.281  -1.882  18.486
 4518CHOL   ROH65497  -3.041  11.504  -2.261
 4518CHOL    R165498  -2.926  11.494  -2.150
 4518CHOL    R265499  -2.942  11.613  -1.950
 4518CHOL    R365500  -2.798  11.483  -2.025
 4518CHOL    R465501  -2.842  11.604  -1.853
 4518CHOL    R565502  -2.683  11.473  -1.913
 4518CHOL    C165503  -2.511  11.457  -1.747
 4518CHOL    C265504  -2.339  11.442  -1.580
 4519CHOL   ROH65505  13.379  13.053  -7.299
 4519CHOL    R165506  13.347  13.024  -7.145
 4519CHOL    R265507  13.180  12.873  -7.083
 4519CHOL    R365508  13.312  12.990  -6.972
 4519CHOL    R465509  13.153  12.847  -6.949
 4519CHOL    R565510  13.281  12.961  -6.818
 4519CHOL    C165511  13.233  12.917  -6.586
 4519CHOL    C265512  13.186  12.873  -6.355
 4520CHOL   ROH65513  23.614  10.336  21.316
 4520CHOL    R165514  23.491  10.334  21.213
 4520CHOL    R265515  23.498  10.458  21.016
 4520CHOL    R365516  23.353  10.331  21.098
 4520CHOL    R465517  23.390  10.456  20.926
 4520CHOL    R565518  23.231  10.329  20.995
 4520CHOL    C165519  23.046  10.326  20.842
 4520CHOL    C265520  22.862  10.322  20.688
 4521CHOL   ROH65521  16.147  25.689  15.606
 4521CHOL    R165522  16.091  25.549  15.553
 4521CHOL    R265523  16.229  25.399  15.440
 4521CHOL    R365524  16.028  25.391  15.494
 4521CHOL    R465525  16.180  25.276  15.394
 4521CHOL    R565526  15.971  25.251  15.441
 4521CHOL    C165527  15.887  25.040  15.363
 4521CHOL    C265528  15.803  24.830  15.284
 4522CHOL   ROH65529   4.514  -0.111  23.726
 4522CHOL    R165530   4.560  -0.020  23.603
 4522CHOL    R265531   4.759  -0.062  23.489
 4522CHOL    R365532   4.611   0.082  23.464
 4522CHOL    R465533   4.799   0.017  23.381
 4522CHOL    R565534   4.657   0.173  23.341
 4522CHOL    C165535   4.725   0.310  23.155
 4522CHOL    C265536   4.793   0.447  22.970
 4523CHOL   ROH65537  25.582   7.167   1.929
 4523CHOL    R165538  25.440   7.189   2.000
 4523CHOL    R265539  25.372   7.401   2.068
 4523CHOL    R365540  25.281   7.214   2.081
 4523CHOL    R465541  25.248   7.421   2.131
 4523CHOL    R565542  25.139   7.236   2.152
 4523CHOL    C165543  24.927   7.269   2.259
 4523CHOL    C265544  24.715   7.302   2.366
 4524CHOL   ROH65545  16.834  21.362  -1.992
 4524CHOL    R165546  16.769  21.260  -1.887
 4524CHOL    R265547  16.898  21.097  -1.782
 4524CHOL    R365548  16.695  21.145  -1.770
 4524CHOL    R465549  16.841  21.008  -1.691
 4524CHOL    R565550  16.630  21.043  -1.665
 4524CHOL    C165551  16.532  20.891  -1.508
 4524CHOL    C265552  16.434  20.738  -1.351
 4525CHOL   ROH65553  -4.889   7.496  19.712
 4525CHOL    R165554  -4.758   7.515  19.622
 4525CHOL    R265555  -4.604   7.684  19.669
 4525CHOL    R365556  -4.610   7.537  19.522
 4525CHOL    R465557  -4.489   7.701  19.591
 4525CHOL    R565558  -4.479   7.556  19.432
 4525CHOL    C165559  -4.282   7.585  19.298
 4525CHOL    C265560  -4.085   7.614  19.163
 4526CHOL   ROH65561  27.395   9.931  13.104
 4526CHOL    R165562  27.237   9.930  13.080
 4526CHOL    R265563  27.135  10.088  12.942
 4526CHOL    R365564  27.059   9.928  13.053
 4526CHOL    R465565  26.996  10.087  12.921
 4526CHOL    R565566  26.900   9.926  13.029
 4526CHOL    C165567  26.663   9.924  12.993
 4526CHOL    C265568  26.426   9.922  12.957
 4527CHOL   ROH65569  16.315  -6.302  13.339
 4527CHOL    R165570  16.257  -6.156  13.307
 4527CHOL    R265571  16.371  -5.964  13.373
 4527CHOL    R365572  16.191  -5.993  13.272
 4527CHOL    R465573  16.321  -5.837  13.346
 4527CHOL    R565574  16.133  -5.847  13.240
 4527CHOL    C165575  16.046  -5.629  13.192
 4527CHOL    C265576  15.958  -5.410  13.145
 4528CHOL   ROH65577   8.829   1.541  25.590
 4528CHOL    R165578   8.840   1.615  25.448
 4528CHOL    R265579   9.016   1.762  25.403
 4528CHOL    R365580   8.853   1.698  25.289
 4528CHOL    R465581   9.026   1.826  25.279
 4528CHOL    R565582   8.864   1.771  25.147
 4528CHOL    C165583   8.882   1.882  24.935
 4528CHOL    C265584   8.899   1.993  24.723
 4529CHOL   ROH65585  22.684  -2.266  12.022
 4529CHOL    R165586  22.570  -2.156  11.999
 4529CHOL    R265587  22.564  -2.028  11.804
 4529CHOL    R365588  22.443  -2.031  11.974
 4529CHOL    R465589  22.465  -1.931  11.784
 4529CHOL    R565590  22.329  -1.921  11.951
 4529CHOL    C165591  22.159  -1.755  11.917
 4529CHOL    C265592  21.988  -1.590  11.883
 4530CHOL   ROH65593   1.324   2.723  -3.934
 4530CHOL    R165594   1.403   2.791  -3.813
 4530CHOL    R265595   1.339   2.755  -3.592
 4530CHOL    R365596   1.493   2.868  -3.677
 4530CHOL    R465597   1.408   2.815  -3.486
 4530CHOL    R565598   1.572   2.936  -3.556
 4530CHOL    C165599   1.691   3.038  -3.374
 4530CHOL    C265600   1.810   3.140  -3.192
 4531CHOL   ROH65601  11.053  11.485  27.708
 4531CHOL    R165602  11.043  11.470  27.549
 4531CHOL    R265603  11.165  11.609  27.407
 4531CHOL    R365604  11.032  11.453  27.370
 4531CHOL    R465605  11.157  11.596  27.268
 4531CHOL    R565606  11.022  11.438  27.211
 4531CHOL    C165607  11.007  11.415  26.972
 4531CHOL    C265608  10.992  11.393  26.734
 4532CHOL   ROH65609  24.896   0.597  12.243
 4532CHOL    R165610  24.762   0.681  12.221
 4532CHOL    R265611  24.589   0.600  12.086
 4532CHOL    R365612  24.611   0.776  12.197
 4532CHOL    R465613  24.472   0.674  12.067
 4532CHOL    R565614  24.476   0.860  12.175
 4532CHOL    C165615  24.275   0.987  12.143
 4532CHOL    C265616  24.074   1.113  12.111
 4533CHOL   ROH65617  27.303   6.462   8.877
 4533CHOL    R165618  27.146   6.489   8.886
 4533CHOL    R265619  27.059   6.705   8.871
 4533CHOL    R365620  26.968   6.519   8.897
 4533CHOL    R465621  26.922   6.728   8.879
 4533CHOL    R565622  26.811   6.545   8.907
 4533CHOL    C165623  26.575   6.586   8.921
 4533CHOL    C265624  26.339   6.626   8.935
 4534CHOL   ROH65625  26.246   4.524  14.445
 4534CHOL    R165626  26.099   4.573  14.405
 4534CHOL    R265627  26.058   4.793  14.342
 4534CHOL    R365628  25.933   4.627  14.361
 4534CHOL    R465629  25.930   4.836  14.307
 4534CHOL    R565630  25.786   4.676  14.321
 4534CHOL    C165631  25.565   4.749  14.261
 4534CHOL    C265632  25.344   4.822  14.202
 4535CHOL   ROH65633  14.398   5.817  -6.833
 4535CHOL    R165634  14.353   5.855  -6.684
 4535CHOL    R265635  14.290   6.072  -6.630
 4535CHOL    R365636  14.302   5.897  -6.517
 4535CHOL    R465637  14.250   6.106  -6.499
 4535CHOL    R565638  14.257   5.935  -6.368
 4535CHOL    C165639  14.189   5.992  -6.145
 4535CHOL    C265640  14.122   6.048  -5.922
 4536CHOL   ROH65641  20.323  19.405  -1.049
 4536CHOL    R165642  20.230  19.318  -0.953
 4536CHOL    R265643  20.318  19.144  -0.824
 4536CHOL    R365644  20.124  19.220  -0.844
 4536CHOL    R465645  20.236  19.068  -0.740
 4536CHOL    R565646  20.031  19.133  -0.748
 4536CHOL    C165647  19.891  19.002  -0.604
 4536CHOL    C265648  19.751  18.872  -0.459
 4537CHOL   ROH65649  -1.491  23.077   5.868
 4537CHOL    R165650  -1.392  22.956   5.904
 4537CHOL    R265651  -1.161  22.983   5.893
 4537CHOL    R365652  -1.281  22.821   5.944
 4537CHOL    R465653  -1.074  22.878   5.925
 4537CHOL    R565654  -1.183  22.700   5.980
 4537CHOL    C165655  -1.034  22.519   6.034
 4537CHOL    C265656  -0.886  22.338   6.088
 4538CHOL   ROH65657  -5.704   9.403   1.213
 4538CHOL    R165658  -5.564   9.410   1.290
 4538CHOL    R265659  -5.466   9.217   1.377
 4538CHOL    R365660  -5.406   9.417   1.376
 4538CHOL    R465661  -5.343   9.223   1.445
 4538CHOL    R565662  -5.266   9.423   1.453
 4538CHOL    C165663  -5.056   9.433   1.568
 4538CHOL    C265664  -4.846   9.443   1.683
 4539CHOL   ROH65665  -7.815  10.004   7.484
 4539CHOL    R165666  -7.658  10.000   7.512
 4539CHOL    R265667  -7.557  10.160   7.650
 4539CHOL    R365668  -7.480   9.997   7.545
 4539CHOL    R465669  -7.419  10.157   7.675
 4539CHOL    R565670  -7.323   9.993   7.573
 4539CHOL    C165671  -7.087   9.988   7.616
 4539CHOL    C265672  -6.851   9.982   7.658
 4540CHOL   ROH65673  13.451  17.211  -5.960
 4540CHOL    R165674  13.420  17.147  -5.817
 4540CHOL    R265675  13.592  17.083  -5.673
 4540CHOL    R365676  13.384  17.074  -5.656
 4540CHOL    R465677  13.565  17.027  -5.548
 4540CHOL    R565678  13.353  17.010  -5.513
 4540CHOL    C165679  13.306  16.914  -5.298
 4540CHOL    C265680  13.259  16.817  -5.084
 4541CHOL   ROH65681  14.289  27.285  10.558
 4541CHOL    R165682  14.249  27.130  10.553
 4541CHOL    R265683  14.179  27.030  10.355
 4541CHOL    R365684  14.204  26.956  10.548
 4541CHOL    R465685  14.144  26.895  10.351
 4541CHOL    R565686  14.164  26.801  10.544
 4541CHOL    C165687  14.104  26.569  10.537
 4541CHOL    C265688  14.044  26.336  10.530
 4542CHOL   ROH65689  -0.551   7.509  -4.350
 4542CHOL    R165690  -0.457   7.527  -4.222
 4542CHOL    R265691  -0.547   7.537  -4.007
 4542CHOL    R365692  -0.351   7.548  -4.078
 4542CHOL    R465693  -0.465   7.553  -3.895
 4542CHOL    R565694  -0.257   7.566  -3.950
 4542CHOL    C165695  -0.116   7.593  -3.757
 4542CHOL    C265696   0.025   7.621  -3.565
 4543CHOL   ROH65697  23.723   5.175  -0.286
 4543CHOL    R165698  23.600   5.219  -0.194
 4543CHOL    R265699  23.417   5.333  -0.283
 4543CHOL    R365700  23.462   5.269  -0.089
 4543CHOL    R465701  23.310   5.372  -0.202
 4543CHOL    R565702  23.339   5.314   0.003
 4543CHOL    C165703  23.155   5.380   0.142
 4543CHOL    C265704  22.970   5.446   0.280
 4544CHOL   ROH65705  22.445  -2.183  13.409
 4544CHOL    R165706  22.331  -2.075  13.378
 4544CHOL    R265707  22.360  -1.913  13.214
 4544CHOL    R365708  22.202  -1.955  13.344
 4544CHOL    R465709  22.260  -1.819  13.187
 4544CHOL    R565710  22.088  -1.847  13.313
 4544CHOL    C165711  21.916  -1.686  13.268
 4544CHOL    C265712  21.744  -1.524  13.222
 4545CHOL   ROH65713  -1.342  23.539   7.277
 4545CHOL    R165714  -1.245  23.414   7.301
 4545CHOL    R265715  -1.039  23.400   7.193
 4545CHOL    R365716  -1.136  23.273   7.328
 4545CHOL    R465717  -0.954  23.291   7.214
 4545CHOL    R565718  -1.039  23.148   7.352
 4545CHOL    C165719  -0.894  22.961   7.388
 4545CHOL    C265720  -0.748  22.774   7.424
 4546CHOL   ROH65721   3.592   2.568  24.964
 4546CHOL    R165722   3.648   2.632  24.829
 4546CHOL    R265723   3.751   2.500  24.666
 4546CHOL    R365724   3.711   2.705  24.676
 4546CHOL    R465725   3.800   2.557  24.548
 4546CHOL    R565726   3.767   2.769  24.541
 4546CHOL    C165727   3.851   2.866  24.338
 4546CHOL    C265728   3.935   2.963  24.135
 4547CHOL   ROH65729  12.349  -1.609  -3.397
 4547CHOL    R165730  12.326  -1.506  -3.276
 4547CHOL    R265731  12.507  -1.412  -3.163
 4547CHOL    R365732  12.301  -1.391  -3.140
 4547CHOL    R465733  12.487  -1.323  -3.057
 4547CHOL    R565734  12.278  -1.289  -3.020
 4547CHOL    C165735  12.244  -1.135  -2.838
 4547CHOL    C265736  12.210  -0.981  -2.657
 4548CHOL   ROH65737  11.201  23.280  21.757
 4548CHOL    R165738  11.185  23.161  21.652
 4548CHOL    R265739  11.202  22.938  21.719
 4548CHOL    R365740  11.167  23.027  21.533
 4548CHOL    R465741  11.188  22.834  21.626
 4548CHOL    R565742  11.151  22.907  21.427
 4548CHOL    C165743  11.127  22.729  21.269
 4548CHOL    C265744  11.103  22.550  21.111
 4549CHOL   ROH65745  25.508   4.906   2.870
 4549CHOL    R165746  25.368   4.951   2.932
 4549CHOL    R265747  25.260   5.145   2.860
 4549CHOL    R365748  25.210   5.001   3.003
 4549CHOL    R465749  25.138   5.184   2.914
 4549CHOL    R565750  25.069   5.046   3.065
 4549CHOL    C165751  24.859   5.113   3.159
 4549CHOL    C265752  24.649   5.180   3.252
 4550CHOL   ROH65753  24.093  18.299   3.033
 4550CHOL    R165754  23.965  18.222   3.092
 4550CHOL    R265755  23.990  18.037   3.231
 4550CHOL    R365756  23.822  18.136   3.158
 4550CHOL    R465757  23.878  17.970   3.283
 4550CHOL    R565758  23.694  18.060   3.216
 4550CHOL    C165759  23.502  17.945   3.305
 4550CHOL    C265760  23.311  17.830   3.393
 4551CHOL   ROH65761  10.754   1.450  25.587
 4551CHOL    R165762  10.750   1.527  25.447
 4551CHOL    R265763  10.939   1.633  25.362
 4551CHOL    R365764  10.744   1.614  25.289
 4551CHOL    R465765  10.935   1.701  25.239
 4551CHOL    R565766  10.740   1.691  25.149
 4551CHOL    C165767  10.733   1.807  24.939
 4551CHOL    C265768  10.727   1.922  24.729
 4552CHOL   ROH65769  22.581  21.720   5.616
 4552CHOL    R165770  22.463  21.620   5.657
 4552CHOL    R265771  22.442  21.411   5.554
 4552CHOL    R365772  22.331  21.507   5.703
 4552CHOL    R465773  22.339  21.323   5.590
 4552CHOL    R565774  22.213  21.406   5.744
 4552CHOL    C165775  22.036  21.256   5.805
 4552CHOL    C265776  21.860  21.106   5.867
 4553CHOL   ROH65777  24.139   8.113  20.425
 4553CHOL    R165778  24.010   8.133  20.333
 4553CHOL    R265779  24.022   8.258  20.136
 4553CHOL    R365780  23.865   8.155  20.228
 4553CHOL    R465781  23.909   8.275  20.055
 4553CHOL    R565782  23.736   8.175  20.136
 4553CHOL    C165783  23.543   8.205  19.997
 4553CHOL    C265784  23.349   8.235  19.859
 4554CHOL   ROH65785   9.581  11.391  27.736
 4554CHOL    R165786   9.587  11.377  27.577
 4554CHOL    R265787   9.609  11.565  27.441
 4554CHOL    R365788   9.594  11.361  27.398
 4554CHOL    R465789   9.614  11.553  27.301
 4554CHOL    R565790   9.600  11.347  27.239
 4554CHOL    C165791   9.610  11.326  27.000
 4554CHOL    C265792   9.619  11.305  26.761
 4555CHOL   ROH65793  14.720  25.921   3.715
 4555CHOL    R165794  14.678  25.777   3.769
 4555CHOL    R265795  14.648  25.597   3.623
 4555CHOL    R365796  14.630  25.614   3.830
 4555CHOL    R465797  14.611  25.471   3.670
 4555CHOL    R565798  14.588  25.470   3.884
 4555CHOL    C165799  14.525  25.253   3.966
 4555CHOL    C265800  14.461  25.036   4.047
 4556CHOL   ROH65801   4.953  -5.742  16.886
 4556CHOL    R165802   4.997  -5.601  16.824
 4556CHOL    R265803   5.067  -5.584  16.602
 4556CHOL    R365804   5.048  -5.443  16.755
 4556CHOL    R465805   5.106  -5.461  16.548
 4556CHOL    R565806   5.092  -5.302  16.693
 4556CHOL    C165807   5.159  -5.091  16.600
 4556CHOL    C265808   5.225  -4.880  16.508
 4557CHOL   ROH65809   7.432  -3.304  -1.729
 4557CHOL    R165810   7.455  -3.185  -1.625
 4557CHOL    R265811   7.501  -3.229  -1.400
 4557CHOL    R365812   7.481  -3.051  -1.507
 4557CHOL    R465813   7.521  -3.125  -1.309
 4557CHOL    R565814   7.504  -2.932  -1.403
 4557CHOL    C165815   7.539  -2.753  -1.247
 4557CHOL    C265816   7.573  -2.575  -1.090
 4558CHOL   ROH65817   4.575  16.840  25.640
 4558CHOL    R165818   4.623  16.778  25.500
 4558CHOL    R265819   4.843  16.708  25.470
 4558CHOL    R365820   4.677  16.709  25.344
 4558CHOL    R465821   4.886  16.654  25.348
 4558CHOL    R565822   4.726  16.647  25.204
 4558CHOL    C165823   4.798  16.554  24.995
 4558CHOL    C265824   4.870  16.462  24.785
 4559CHOL   ROH65825  18.003  -5.862   8.977
 4559CHOL    R165826  17.930  -5.720   8.986
 4559CHOL    R265827  18.039  -5.525   8.918
 4559CHOL    R365828  17.849  -5.560   8.996
 4559CHOL    R465829  17.976  -5.401   8.926
 4559CHOL    R565830  17.776  -5.418   9.005
 4559CHOL    C165831  17.667  -5.204   9.018
 4559CHOL    C265832  17.558  -4.991   9.032
 4560CHOL   ROH65833  24.363   7.649  -0.212
 4560CHOL    R165834  24.233   7.664  -0.121
 4560CHOL    R265835  24.019   7.650  -0.213
 4560CHOL    R365836  24.086   7.681  -0.018
 4560CHOL    R465837  23.905   7.663  -0.133
 4560CHOL    R565838  23.956   7.696   0.073
 4560CHOL    C165839  23.760   7.718   0.211
 4560CHOL    C265840  23.564   7.740   0.348
 4561CHOL   ROH65841   6.661  -0.129  24.326
 4561CHOL    R165842   6.688  -0.041  24.195
 4561CHOL    R265843   6.889  -0.060  24.077
 4561CHOL    R365844   6.718   0.058  24.048
 4561CHOL    R465845   6.912   0.017  23.963
 4561CHOL    R565846   6.745   0.146  23.916
 4561CHOL    C165847   6.786   0.277  23.720
 4561CHOL    C265848   6.827   0.409  23.523
 4562CHOL   ROH65849  26.324  15.064  14.542
 4562CHOL    R165850  26.175  15.022  14.500
 4562CHOL    R265851  26.134  14.822  14.387
 4562CHOL    R365852  26.008  14.976  14.452
 4562CHOL    R465853  26.004  14.786  14.350
 4562CHOL    R565854  25.860  14.934  14.410
 4562CHOL    C165855  25.637  14.872  14.346
 4562CHOL    C265856  25.414  14.809  14.282
 4563CHOL   ROH65857  -2.832  17.448  -0.222
 4563CHOL    R165858  -2.718  17.379  -0.133
 4563CHOL    R265859  -2.535  17.501  -0.057
 4563CHOL    R365860  -2.591  17.301  -0.033
 4563CHOL    R465861  -2.436  17.441   0.021
 4563CHOL    R565862  -2.477  17.232   0.056
 4563CHOL    C165863  -2.307  17.129   0.189
 4563CHOL    C265864  -2.136  17.026   0.323
 4564CHOL   ROH65865  -1.249   2.097  21.387
 4564CHOL    R165866  -1.150   2.165  21.281
 4564CHOL    R265867  -0.919   2.142  21.300
 4564CHOL    R365868  -1.039   2.243  21.162
 4564CHOL    R465869  -0.833   2.202  21.208
 4564CHOL    R565870  -0.940   2.311  21.057
 4564CHOL    C165871  -0.792   2.414  20.898
 4564CHOL    C265872  -0.644   2.516  20.739
 4565CHOL   ROH65873  -7.751  12.822   8.910
 4565CHOL    R165874  -7.594  12.797   8.924
 4565CHOL    R265875  -7.511  12.588   8.988
 4565CHOL    R365876  -7.417  12.768   8.941
 4565CHOL    R465877  -7.374  12.566   9.001
 4565CHOL    R565878  -7.259  12.743   8.955
 4565CHOL    C165879  -7.024  12.705   8.977
 4565CHOL    C265880  -6.788  12.667   8.998
 4566CHOL   ROH65881  15.538  25.672   3.735
 4566CHOL    R165882  15.490  25.529   3.789
 4566CHOL    R265883  15.516  25.337   3.659
 4566CHOL    R365884  15.436  25.368   3.849
 4566CHOL    R465885  15.474  25.212   3.706
 4566CHOL    R565886  15.388  25.226   3.903
 4566CHOL    C165887  15.316  25.011   3.984
 4566CHOL    C265888  15.244  24.797   4.064
 4567CHOL   ROH65889   8.115  -6.578   3.526
 4567CHOL    R165890   8.131  -6.430   3.585
 4567CHOL    R265891   8.295  -6.381   3.744
 4567CHOL    R365892   8.150  -6.263   3.650
 4567CHOL    R465893   8.309  -6.252   3.795
 4567CHOL    R565894   8.166  -6.115   3.709
 4567CHOL    C165895   8.190  -5.893   3.797
 4567CHOL    C265896   8.215  -5.671   3.885
 4568CHOL   ROH65897  -3.652   6.911  21.208
 4568CHOL    R165898  -3.531   6.937  21.107
 4568CHOL    R265899  -3.350   7.072  21.169
 4568CHOL    R365900  -3.394   6.967  20.994
 4568CHOL    R465901  -3.244   7.095  21.081
 4568CHOL    R565902  -3.272   6.993  20.893
 4568CHOL    C165903  -3.090   7.032  20.742
 4568CHOL    C265904  -2.908   7.072  20.591
 4569CHOL   ROH65905  -1.749  11.210  -3.494
 4569CHOL    R165906  -1.646  11.199  -3.372
 4569CHOL    R265907  -1.649  11.355  -3.198
 4569CHOL    R365908  -1.531  11.187  -3.234
 4569CHOL    R465909  -1.559  11.346  -3.092
 4569CHOL    R565910  -1.428  11.176  -3.112
 4569CHOL    C165911  -1.274  11.160  -2.929
 4569CHOL    C265912  -1.120  11.143  -2.745
 4570CHOL   ROH65913  -6.824   4.514  12.944
 4570CHOL    R165914  -6.674   4.563  12.917
 4570CHOL    R265915  -6.541   4.644  13.091
 4570CHOL    R365916  -6.505   4.618  12.887
 4570CHOL    R465917  -6.410   4.687  13.067
 4570CHOL    R565918  -6.356   4.667  12.860
 4570CHOL    C165919  -6.131   4.741  12.819
 4570CHOL    C265920  -5.906   4.815  12.778
 4571CHOL   ROH65921   3.175  22.761  20.462
 4571CHOL    R165922   3.232  22.646  20.366
 4571CHOL    R265923   3.322  22.698  20.157
 4571CHOL    R365924   3.297  22.517  20.259
 4571CHOL    R465925   3.372  22.597  20.073
 4571CHOL    R565926   3.354  22.402  20.163
 4571CHOL    C165927   3.440  22.230  20.019
 4571CHOL    C265928   3.526  22.058  19.876
 4572CHOL   ROH65929   7.746   4.509  -6.900
 4572CHOL    R165930   7.761   4.557  -6.748
 4572CHOL    R265931   7.690   4.422  -6.572
 4572CHOL    R365932   7.778   4.612  -6.577
 4572CHOL    R465933   7.703   4.465  -6.439
 4572CHOL    R565934   7.793   4.660  -6.425
 4572CHOL    C165935   7.816   4.732  -6.198
 4572CHOL    C265936   7.838   4.805  -5.970
 4573CHOL   ROH65937  -3.766  18.534   2.209
 4573CHOL    R165938  -3.641  18.461   2.277
 4573CHOL    R265939  -3.596  18.487   2.505
 4573CHOL    R365940  -3.501  18.378   2.355
 4573CHOL    R465941  -3.487  18.423   2.565
 4573CHOL    R565942  -3.377  18.305   2.423
 4573CHOL    C165943  -3.190  18.195   2.526
 4573CHOL    C265944  -3.003  18.085   2.628
 4574CHOL   ROH65945  19.480   4.966  -4.224
 4574CHOL    R165946  19.395   5.011  -4.096
 4574CHOL    R265947  19.166   4.967  -4.083
 4574CHOL    R365948  19.299   5.062  -3.953
 4574CHOL    R465949  19.092   5.007  -3.971
 4574CHOL    R565950  19.214   5.107  -3.825
 4574CHOL    C165951  19.086   5.175  -3.633
 4574CHOL    C265952  18.959   5.242  -3.442
 4575CHOL   ROH65953  25.032   0.598   9.518
 4575CHOL    R165954  24.895   0.681   9.525
 4575CHOL    R265955  24.749   0.686   9.343
 4575CHOL    R365956  24.742   0.774   9.532
 4575CHOL    R465957  24.630   0.758   9.349
 4575CHOL    R565958  24.605   0.857   9.539
 4575CHOL    C165959  24.400   0.981   9.548
 4575CHOL    C265960  24.195   1.106   9.558
 4576CHOL   ROH65961  16.429  22.015  -1.570
 4576CHOL    R165962  16.367  21.906  -1.470
 4576CHOL    R265963  16.469  21.698  -1.441
 4576CHOL    R365964  16.297  21.784  -1.359
 4576CHOL    R465965  16.414  21.603  -1.354
 4576CHOL    R565966  16.234  21.675  -1.259
 4576CHOL    C165967  16.141  21.512  -1.110
 4576CHOL    C265968  16.048  21.349  -0.960
 4577CHOL   ROH65969   8.570  -2.151  -3.108
 4577CHOL    R165970   8.584  -2.041  -2.993
 4577CHOL    R265971   8.603  -2.102  -2.769
 4577CHOL    R365972   8.600  -1.916  -2.864
 4577CHOL    R465973   8.616  -2.006  -2.668
 4577CHOL    R565974   8.614  -1.806  -2.748
 4577CHOL    C165975   8.634  -1.640  -2.576
 4577CHOL    C265976   8.655  -1.475  -2.403
 4578CHOL   ROH65977  -4.633   9.005  -0.412
 4578CHOL    R165978  -4.505   9.014  -0.316
 4578CHOL    R265979  -4.409   8.822  -0.225
 4578CHOL    R365980  -4.362   9.025  -0.208
 4578CHOL    R465981  -4.297   8.831  -0.141
 4578CHOL    R565982  -4.234   9.035  -0.112
 4578CHOL    C165983  -4.042   9.049   0.032
 4578CHOL    C265984  -3.851   9.063   0.176
 4579CHOL   ROH65985  12.187  17.875  25.730
 4579CHOL    R165986  12.163  17.809  25.586
 4579CHOL    R265987  12.342  17.729  25.460
 4579CHOL    R365988  12.136  17.734  25.425
 4579CHOL    R465989  12.320  17.671  25.334
 4579CHOL    R565990  12.111  17.667  25.281
 4579CHOL    C165991  12.075  17.568  25.066
 4579CHOL    C265992  12.039  17.468  24.851
 4580CHOL   ROH65993  -3.544  15.901  -0.376
 4580CHOL    R165994  -3.424  15.845  -0.286
 4580CHOL    R265995  -3.259  15.989  -0.205
 4580CHOL    R365996  -3.289  15.783  -0.185
 4580CHOL    R465997  -3.154  15.940  -0.126
 4580CHOL    R565998  -3.169  15.727  -0.094
 4580CHOL    C165999  -2.989  15.644   0.041
 4580CHOL    C266000  -2.809  15.561   0.176
 4581CHOL   ROH66001  19.997  21.497   0.938
 4581CHOL    R166002  19.905  21.393   1.019
 4581CHOL    R266003  19.837  21.193   0.921
 4581CHOL    R366004  19.803  21.277   1.109
 4581CHOL    R466005  19.757  21.102   0.992
 4581CHOL    R566006  19.711  21.173   1.190
 4581CHOL    C166007  19.574  21.017   1.311
 4581CHOL    C266008  19.436  20.862   1.432
 4582CHOL   ROH66009  10.264  27.794  10.686
 4582CHOL    R166010  10.260  27.634  10.679
 4582CHOL    R266011  10.438  27.513  10.590
 4582CHOL    R366012  10.255  27.454  10.672
 4582CHOL    R466013  10.435  27.373  10.585
 4582CHOL    R566014  10.251  27.294  10.665
 4582CHOL    C166015  10.245  27.055  10.655
 4582CHOL    C266016  10.239  26.815  10.645
 4583CHOL   ROH66017  -6.683   7.066   3.881
 4583CHOL    R166018  -6.535   7.088   3.937
 4583CHOL    R266019  -6.491   7.079   4.166
 4583CHOL    R366020  -6.368   7.113   4.001
 4583CHOL    R466021  -6.361   7.099   4.215
 4583CHOL    R566022  -6.220   7.135   4.057
 4583CHOL    C166023  -5.998   7.168   4.141
 4583CHOL    C266024  -5.776   7.201   4.226
 4584CHOL   ROH66025  -7.789   9.186  12.513
 4584CHOL    R166026  -7.631   9.195  12.488
 4584CHOL    R266027  -7.480   9.131  12.653
 4584CHOL    R366028  -7.454   9.205  12.460
 4584CHOL    R466029  -7.341   9.139  12.631
 4584CHOL    R566030  -7.296   9.215  12.435
 4584CHOL    C166031  -7.059   9.228  12.397
 4584CHOL    C266032  -6.823   9.242  12.359
 4585CHOL   ROH66033  13.906  -6.772  14.558
 4585CHOL    R166034  13.869  -6.622  14.515
 4585CHOL    R266035  14.004  -6.503  14.367
 4585CHOL    R366036  13.827  -6.454  14.467
 4585CHOL    R466037  13.972  -6.372  14.329
 4585CHOL    R566038  13.791  -6.304  14.424
 4585CHOL    C166039  13.735  -6.080  14.359
 4585CHOL    C266040  13.680  -5.856  14.294
 4586CHOL   ROH66041  26.546   6.104   4.895
 4586CHOL    R166042  26.395   6.137   4.936
 4586CHOL    R266043  26.295   6.339   4.876
 4586CHOL    R366044  26.225   6.174   4.983
 4586CHOL    R466045  26.163   6.368   4.912
 4586CHOL    R566046  26.074   6.207   5.024
 4586CHOL    C166047  25.847   6.256   5.086
 4586CHOL    C266048  25.621   6.306   5.148
 4587CHOL   ROH66049  24.555  19.044  14.464
 4587CHOL    R166050  24.424  18.962  14.424
 4587CHOL    R266051  24.277  19.042  14.261
 4587CHOL    R366052  24.276  18.869  14.379
 4587CHOL    R466053  24.162  18.970  14.226
 4587CHOL    R566054  24.145  18.787  14.338
 4587CHOL    C166055  23.948  18.664  14.278
 4587CHOL    C266056  23.751  18.540  14.218
 4588CHOL   ROH66057   3.825  -3.116  20.467
 4588CHOL    R166058   3.878  -2.999  20.372
 4588CHOL    R266059   4.079  -3.020  20.256
 4588CHOL    R366060   3.938  -2.866  20.266
 4588CHOL    R466061   4.126  -2.917  20.173
 4588CHOL    R566062   3.992  -2.749  20.171
 4588CHOL    C166063   4.071  -2.573  20.029
 4588CHOL    C266064   4.151  -2.397  19.887
 4589CHOL   ROH66065   5.103   8.242  27.054
 4589CHOL    R166066   5.143   8.256  26.900
 4589CHOL    R266067   5.363   8.298  26.836
 4589CHOL    R366068   5.188   8.271  26.726
 4589CHOL    R466069   5.398   8.310  26.701
 4589CHOL    R566070   5.227   8.285  26.572
 4589CHOL    C166071   5.287   8.305  26.340
 4589CHOL    C266072   5.347   8.325  26.108
 4590CHOL   ROH66073  15.630  25.182  17.271
 4590CHOL    R166074  15.577  25.046  17.205
 4590CHOL    R266075  15.585  24.845  17.323
 4590CHOL    R366076  15.516  24.894  17.131
 4590CHOL    R466077  15.538  24.726  17.265
 4590CHOL    R566078  15.463  24.758  17.065
 4590CHOL    C166079  15.383  24.554  16.967
 4590CHOL    C266080  15.303  24.351  16.868
 4591CHOL   ROH66081  -5.958  10.603   1.674
 4591CHOL    R166082  -5.815  10.599   1.746
 4591CHOL    R266083  -5.750  10.416   1.875
 4591CHOL    R366084  -5.654  10.595   1.826
 4591CHOL    R466085  -5.625  10.412   1.938
 4591CHOL    R566086  -5.511  10.591   1.898
 4591CHOL    C166087  -5.296  10.585   2.006
 4591CHOL    C266088  -5.082  10.579   2.113
 4592CHOL   ROH66089   1.439  25.644   9.019
 4592CHOL    R166090   1.520  25.506   9.030
 4592CHOL    R266091   1.735  25.486   8.943
 4592CHOL    R366092   1.610  25.351   9.042
 4592CHOL    R466093   1.806  25.366   8.952
 4592CHOL    R566094   1.691  25.214   9.053
 4592CHOL    C166095   1.812  25.007   9.069
 4592CHOL    C266096   1.933  24.800   9.086
 4593CHOL   ROH66097   6.990  -6.759   4.458
 4593CHOL    R166098   7.016  -6.609   4.509
 4593CHOL    R266099   7.125  -6.454   4.373
 4593CHOL    R366100   7.045  -6.441   4.565
 4593CHOL    R466101   7.148  -6.323   4.417
 4593CHOL    R566102   7.071  -6.291   4.616
 4593CHOL    C166103   7.109  -6.067   4.692
 4593CHOL    C266104   7.148  -5.843   4.768
 4594CHOL   ROH66105  27.590  11.430   9.143
 4594CHOL    R166106  27.430  11.420   9.147
 4594CHOL    R266107  27.298  11.611   9.130
 4594CHOL    R366108  27.251  11.409   9.153
 4594CHOL    R466109  27.158  11.603   9.134
 4594CHOL    R566110  27.091  11.399   9.157
 4594CHOL    C166111  26.851  11.385   9.164
 4594CHOL    C266112  26.612  11.370   9.170
 4595CHOL   ROH66113  15.275   0.949  -4.543
 4595CHOL    R166114  15.232   1.032  -4.413
 4595CHOL    R266115  15.189   1.261  -4.427
 4595CHOL    R366116  15.183   1.126  -4.268
 4595CHOL    R466117  15.151   1.334  -4.313
 4595CHOL    R566118  15.139   1.209  -4.138
 4595CHOL    C166119  15.074   1.334  -3.944
 4595CHOL    C266120  15.009   1.459  -3.749
 4596CHOL   ROH66121  18.561  -1.947  19.927
 4596CHOL    R166122  18.482  -1.842  19.836
 4596CHOL    R266123  18.422  -1.894  19.617
 4596CHOL    R366124  18.392  -1.724  19.734
 4596CHOL    R466125  18.352  -1.802  19.537
 4596CHOL    R566126  18.313  -1.619  19.643
 4596CHOL    C166127  18.194  -1.462  19.507
 4596CHOL    C266128  18.075  -1.304  19.370
 4597CHOL   ROH66129  14.588  21.472  22.785
 4597CHOL    R166130  14.547  21.368  22.670
 4597CHOL    R266131  14.705  21.288  22.519
 4597CHOL    R366132  14.501  21.251  22.542
 4597CHOL    R466133  14.670  21.197  22.418
 4597CHOL    R566134  14.461  21.147  22.427
 4597CHOL    C166135  14.399  20.991  22.255
 4597CHOL    C266136  14.338  20.835  22.083
 4598CHOL   ROH66137   3.916  -1.407  -2.434
 4598CHOL    R166138   3.974  -1.305  -2.325
 4598CHOL    R266139   3.919  -1.327  -2.100
 4598CHOL    R366140   4.038  -1.190  -2.202
 4598CHOL    R466141   3.969  -1.238  -2.004
 4598CHOL    R566142   4.096  -1.088  -2.094
 4598CHOL    C166143   4.182  -0.936  -1.930
 4598CHOL    C266144   4.269  -0.783  -1.767
 4599CHOL   ROH66145  27.545   8.945   8.316
 4599CHOL    R166146  27.386   8.954   8.329
 4599CHOL    R266147  27.279   9.161   8.350
 4599CHOL    R366148  27.207   8.965   8.343
 4599CHOL    R466149  27.140   9.169   8.361
 4599CHOL    R566150  27.048   8.974   8.356
 4599CHOL    C166151  26.809   8.989   8.375
 4599CHOL    C266152  26.570   9.003   8.394
 4600CHOL   ROH66153   9.458   4.862  -7.105
 4600CHOL    R166154   9.462   4.908  -6.952
 4600CHOL    R266155   9.640   5.033  -6.868
 4600CHOL    R366156   9.466   4.960  -6.779
 4600CHOL    R466157   9.643   5.074  -6.734
 4600CHOL    R566158   9.470   5.005  -6.626
 4600CHOL    C166159   9.475   5.074  -6.396
 4600CHOL    C266160   9.481   5.143  -6.166
 4601CHOL   ROH66161  16.136  -1.430  22.113
 4601CHOL    R166162  16.083  -1.326  22.003
 4601CHOL    R266163  16.094  -1.376  21.776
 4601CHOL    R366164  16.023  -1.209  21.880
 4601CHOL    R466165  16.047  -1.285  21.680
 4601CHOL    R566166  15.970  -1.106  21.770
 4601CHOL    C166167  15.891  -0.950  21.605
 4601CHOL    C266168  15.812  -0.794  21.441
 4602CHOL   ROH66169  10.951   4.953  27.026
 4602CHOL    R166170  10.944   5.000  26.873
 4602CHOL    R266171  11.023   4.862  26.702
 4602CHOL    R366172  10.936   5.052  26.701
 4602CHOL    R466173  11.017   4.903  26.568
 4602CHOL    R566174  10.929   5.099  26.548
 4602CHOL    C166175  10.918   5.168  26.319
 4602CHOL    C266176  10.908   5.238  26.089
 4603CHOL   ROH66177  11.341  -7.621  12.398
 4603CHOL    R166178  11.329  -7.463  12.377
 4603CHOL    R266179  11.487  -7.347  12.250
 4603CHOL    R366180  11.316  -7.285  12.353
 4603CHOL    R466181  11.477  -7.209  12.231
 4603CHOL    R566182  11.304  -7.127  12.331
 4603CHOL    C166183  11.287  -6.890  12.300
 4603CHOL    C266184  11.269  -6.653  12.268
 4604CHOL   ROH66185   8.257  24.357  20.439
 4604CHOL    R166186   8.273  24.229  20.344
 4604CHOL    R266187   8.480  24.129  20.311
 4604CHOL    R366188   8.290  24.086  20.237
 4604CHOL    R466189   8.494  24.017  20.227
 4604CHOL    R566190   8.305  23.958  20.141
 4604CHOL    C166191   8.329  23.766  19.999
 4604CHOL    C266192   8.352  23.575  19.856
 4605CHOL   ROH66193  15.265  -5.344  17.309
 4605CHOL    R166194  15.216  -5.206  17.245
 4605CHOL    R266195  15.343  -5.011  17.267
 4605CHOL    R366196  15.161  -5.050  17.173
 4605CHOL    R466197  15.300  -4.891  17.211
 4605CHOL    R566198  15.112  -4.912  17.109
 4605CHOL    C166199  15.039  -4.705  17.013
 4605CHOL    C266200  14.965  -4.497  16.917
 4606CHOL   ROH66201  -0.734  23.662  14.429
 4606CHOL    R166202  -0.644  23.538  14.383
 4606CHOL    R266203  -0.438  23.572  14.278
 4606CHOL    R366204  -0.543  23.399  14.331
 4606CHOL    R466205  -0.360  23.464  14.237
 4606CHOL    R566206  -0.452  23.275  14.285
 4606CHOL    C166207  -0.317  23.089  14.215
 4606CHOL    C266208  -0.182  22.903  14.146
 4607CHOL   ROH66209  13.469  27.387  11.699
 4607CHOL    R166210  13.439  27.231  11.682
 4607CHOL    R266211  13.612  27.079  11.647
 4607CHOL    R366212  13.405  27.055  11.662
 4607CHOL    R466213  13.586  26.942  11.632
 4607CHOL    R566214  13.375  26.899  11.645
 4607CHOL    C166215  13.330  26.665  11.619
 4607CHOL    C266216  13.285  26.431  11.593
 4608CHOL   ROH66217   7.459  -6.553  16.251
 4608CHOL    R166218   7.480  -6.405  16.194
 4608CHOL    R266219   7.573  -6.370  15.982
 4608CHOL    R366220   7.504  -6.239  16.129
 4608CHOL    R466221   7.591  -6.241  15.932
 4608CHOL    R566222   7.525  -6.091  16.072
 4608CHOL    C166223   7.557  -5.869  15.985
 4608CHOL    C266224   7.588  -5.647  15.899
 4609CHOL   ROH66225  18.180  16.520  24.278
 4609CHOL    R166226  18.098  16.463  24.153
 4609CHOL    R266227  18.039  16.602  23.975
 4609CHOL    R366228  18.007  16.399  24.011
 4609CHOL    R466229  17.968  16.553  23.865
 4609CHOL    R566230  17.925  16.343  23.886
 4609CHOL    C166231  17.803  16.257  23.698
 4609CHOL    C266232  17.680  16.172  23.510
 4610CHOL   ROH66233  15.009   1.073  -4.707
 4610CHOL    R166234  14.969   1.155  -4.575
 4610CHOL    R266235  15.127   1.199  -4.409
 4610CHOL    R366236  14.925   1.247  -4.428
 4610CHOL    R466237  15.092   1.271  -4.294
 4610CHOL    R566238  14.885   1.329  -4.296
 4610CHOL    C166239  14.825   1.453  -4.099
 4610CHOL    C266240  14.766   1.576  -3.901
 4611CHOL   ROH66241  -6.451   7.623   3.113
 4611CHOL    R166242  -6.305   7.642   3.175
 4611CHOL    R266243  -6.201   7.468   3.291
 4611CHOL    R366244  -6.140   7.662   3.245
 4611CHOL    R466245  -6.073   7.484   3.345
 4611CHOL    R566246  -5.994   7.681   3.307
 4611CHOL    C166247  -5.775   7.709   3.400
 4611CHOL    C266248  -5.555   7.737   3.493
 4612CHOL   ROH66249  23.492  -0.545   5.239
 4612CHOL    R166250  23.369  -0.451   5.279
 4612CHOL    R266251  23.303  -0.274   5.142
 4612CHOL    R366252  23.231  -0.345   5.324
 4612CHOL    R466253  23.196  -0.192   5.177
 4612CHOL    R566254  23.107  -0.251   5.364
 4612CHOL    C166255  22.923  -0.110   5.424
 4612CHOL    C266256  22.738   0.031   5.484
 4613CHOL   ROH66257  -4.154  19.036   3.583
 4613CHOL    R166258  -4.026  18.959   3.641
 4613CHOL    R266259  -4.000  18.926   3.870
 4613CHOL    R366260  -3.883  18.871   3.706
 4613CHOL    R466261  -3.888  18.858   3.921
 4613CHOL    R566262  -3.756  18.794   3.764
 4613CHOL    C166263  -3.564  18.678   3.850
 4613CHOL    C266264  -3.373  18.562   3.937
 4614CHOL   ROH66265  25.964   3.502   5.743
 4614CHOL    R166266  25.819   3.561   5.777
 4614CHOL    R266267  25.651   3.565   5.616
 4614CHOL    R366268  25.656   3.626   5.815
 4614CHOL    R466269  25.524   3.617   5.646
 4614CHOL    R566270  25.511   3.685   5.849
 4614CHOL    C166271  25.294   3.773   5.901
 4614CHOL    C266272  25.076   3.861   5.952
 4615CHOL   ROH66273   9.112   7.704  -7.731
 4615CHOL    R166274   9.120   7.725  -7.573
 4615CHOL    R266275   9.325   7.733  -7.462
 4615CHOL    R366276   9.128   7.749  -7.394
 4615CHOL    R466277   9.332   7.751  -7.324
 4615CHOL    R566278   9.136   7.771  -7.236
 4615CHOL    C166279   9.148   7.802  -6.998
 4615CHOL    C266280   9.159   7.834  -6.761
 4616CHOL   ROH66281  -2.567  16.906  -0.928
 4616CHOL    R166282  -2.457  16.842  -0.831
 4616CHOL    R266283  -2.251  16.948  -0.797
 4616CHOL    R366284  -2.333  16.771  -0.722
 4616CHOL    R466285  -2.155  16.892  -0.712
 4616CHOL    R566286  -2.222  16.707  -0.625
 4616CHOL    C166287  -2.057  16.611  -0.480
 4616CHOL    C266288  -1.892  16.516  -0.334
 4617CHOL   ROH66289   3.251  13.446  -6.299
 4617CHOL    R166290   3.313  13.416  -6.155
 4617CHOL    R266291   3.253  13.544  -5.969
 4617CHOL    R366292   3.383  13.382  -5.992
 4617CHOL    R466293   3.307  13.518  -5.843
 4617CHOL    R566294   3.445  13.352  -5.848
 4617CHOL    C166295   3.537  13.307  -5.631
 4617CHOL    C266296   3.630  13.262  -5.414
 4618CHOL   ROH66297  -3.265   1.886   0.804
 4618CHOL    R166298  -3.150   1.959   0.888
 4618CHOL    R266299  -2.963   1.842   0.962
 4618CHOL    R366300  -3.021   2.042   0.983
 4618CHOL    R466301  -2.862   1.907   1.036
 4618CHOL    R566302  -2.906   2.115   1.067
 4618CHOL    C166303  -2.734   2.225   1.193
 4618CHOL    C266304  -2.562   2.335   1.319
 4619CHOL   ROH66305  -0.801  -0.272  -0.042
 4619CHOL    R166306  -0.709  -0.181   0.052
 4619CHOL    R266307  -0.756  -0.159   0.280
 4619CHOL    R366308  -0.607  -0.078   0.159
 4619CHOL    R466309  -0.676  -0.079   0.362
 4619CHOL    R566310  -0.515   0.013   0.253
 4619CHOL    C166311  -0.378   0.150   0.395
 4619CHOL    C266312  -0.240   0.287   0.536
 4620CHOL   ROH66313  -3.980  -1.323  10.189
 4620CHOL    R166314  -3.857  -1.220  10.186
 4620CHOL    R266315  -3.770  -1.132  10.384
 4620CHOL    R366316  -3.719  -1.105  10.183
 4620CHOL    R466317  -3.663  -1.042  10.381
 4620CHOL    R566318  -3.597  -1.002  10.180
 4620CHOL    C166319  -3.412  -0.848  10.176
 4620CHOL    C266320  -3.228  -0.694  10.171
 4621CHOL   ROH66321  -2.979  21.965   6.584
 4621CHOL    R166322  -2.869  21.853   6.614
 4621CHOL    R266323  -2.778  21.829   6.828
 4621CHOL    R366324  -2.745  21.727   6.649
 4621CHOL    R466325  -2.681  21.731   6.854
 4621CHOL    R566326  -2.635  21.615   6.679
 4621CHOL    C166327  -2.469  21.447   6.725
 4621CHOL    C266328  -2.304  21.279   6.770
 4622CHOL   ROH66329   3.163  25.340  16.076
 4622CHOL    R166330   3.227  25.204  16.022
 4622CHOL    R266331   3.262  25.023  16.165
 4622CHOL    R366332   3.298  25.050  15.961
 4622CHOL    R466333   3.318  24.904  16.118
 4622CHOL    R566334   3.362  24.914  15.907
 4622CHOL    C166335   3.458  24.710  15.826
 4622CHOL    C266336   3.553  24.505  15.745
 4623CHOL   ROH66337  16.308   2.697  24.936
 4623CHOL    R166338  16.247   2.759  24.802
 4623CHOL    R266339  16.376   2.777  24.608
 4623CHOL    R366340  16.178   2.829  24.651
 4623CHOL    R466341  16.323   2.831  24.491
 4623CHOL    R566342  16.118   2.891  24.516
 4623CHOL    C166343  16.026   2.984  24.315
 4623CHOL    C266344  15.935   3.077  24.114
 4624CHOL   ROH66345  25.100   5.165  17.834
 4624CHOL    R166346  24.964   5.205  17.761
 4624CHOL    R266347  24.911   5.428  17.719
 4624CHOL    R366348  24.810   5.250  17.679
 4624CHOL    R466349  24.791   5.464  17.655
 4624CHOL    R566350  24.674   5.290  17.606
 4624CHOL    C166351  24.469   5.351  17.496
 4624CHOL    C266352  24.264   5.411  17.386
 4625CHOL   ROH66353  -0.049  19.660  -1.410
 4625CHOL    R166354   0.040  19.573  -1.309
 4625CHOL    R266355   0.273  19.584  -1.316
 4625CHOL    R366356   0.141  19.476  -1.196
 4625CHOL    R466357   0.351  19.508  -1.228
 4625CHOL    R566358   0.230  19.390  -1.096
 4625CHOL    C166359   0.364  19.260  -0.945
 4625CHOL    C266360   0.498  19.130  -0.794
 4626CHOL   ROH66361  -2.655  22.420  12.887
 4626CHOL    R166362  -2.540  22.312  12.859
 4626CHOL    R266363  -2.326  22.340  12.946
 4626CHOL    R366364  -2.412  22.190  12.829
 4626CHOL    R466365  -2.225  22.245  12.922
 4626CHOL    R566366  -2.297  22.082  12.801
 4626CHOL    C166367  -2.125  21.920  12.760
 4626CHOL    C266368  -1.953  21.758  12.718
 4627CHOL   ROH66369  22.055  16.871  20.949
 4627CHOL    R166370  21.948  16.811  20.846
 4627CHOL    R266371  22.013  16.658  20.682
 4627CHOL    R366372  21.829  16.744  20.730
 4627CHOL    R466373  21.919  16.606  20.592
 4627CHOL    R566374  21.722  16.684  20.626
 4627CHOL    C166375  21.562  16.594  20.472
 4627CHOL    C266376  21.402  16.504  20.317
 4628CHOL   ROH66377  -5.649   1.477  12.248
 4628CHOL    R166378  -5.509   1.552  12.226
 4628CHOL    R266379  -5.307   1.442  12.265
 4628CHOL    R366380  -5.352   1.636  12.201
 4628CHOL    R466381  -5.185   1.508  12.245
 4628CHOL    R566382  -5.212   1.711  12.179
 4628CHOL    C166383  -5.003   1.823  12.145
 4628CHOL    C266384  -4.793   1.935  12.112
 4629CHOL   ROH66385  25.308   1.787  13.614
 4629CHOL    R166386  25.170   1.861  13.581
 4629CHOL    R266387  25.064   1.830  13.375
 4629CHOL    R366388  25.015   1.943  13.543
 4629CHOL    R466389  24.943   1.894  13.346
 4629CHOL    R566390  24.877   2.017  13.510
 4629CHOL    C166391  24.669   2.127  13.460
 4629CHOL    C266392  24.462   2.238  13.410
 4630CHOL   ROH66393  18.162  23.756  17.571
 4630CHOL    R166394  18.084  23.634  17.503
 4630CHOL    R266395  18.050  23.628  17.272
 4630CHOL    R366396  17.996  23.497  17.426
 4630CHOL    R466397  17.981  23.521  17.212
 4630CHOL    R566398  17.918  23.376  17.358
 4630CHOL    C166399  17.801  23.193  17.255
 4630CHOL    C266400  17.684  23.010  17.153
 4631CHOL   ROH66401   6.721  21.179  23.434
 4631CHOL    R166402   6.751  21.076  23.315
 4631CHOL    R266403   6.961  20.975  23.295
 4631CHOL    R366404   6.785  20.960  23.182
 4631CHOL    R466405   6.987  20.884  23.191
 4631CHOL    R566406   6.815  20.856  23.064
 4631CHOL    C166407   6.861  20.702  22.886
 4631CHOL    C266408   6.906  20.547  22.708
 4632CHOL   ROH66409  17.044  -1.390  21.663
 4632CHOL    R166410  16.980  -1.288  21.558
 4632CHOL    R266411  16.906  -1.361  21.349
 4632CHOL    R366412  16.907  -1.173  21.440
 4632CHOL    R466413  16.850  -1.271  21.257
 4632CHOL    R566414  16.843  -1.071  21.335
 4632CHOL    C166415  16.747  -0.917  21.178
 4632CHOL    C266416  16.650  -0.764  21.021
 4633CHOL   ROH66417   6.079   8.677  27.312
 4633CHOL    R166418   6.112   8.685  27.156
 4633CHOL    R266419   6.331   8.710  27.080
 4633CHOL    R366420   6.148   8.694  26.979
 4633CHOL    R466421   6.359   8.717  26.943
 4633CHOL    R566422   6.181   8.702  26.823
 4633CHOL    C166423   6.230   8.713  26.588
 4633CHOL    C266424   6.279   8.725  26.354
 4634CHOL   ROH66425   8.604  -7.712   8.241
 4634CHOL    R166426   8.616  -7.553   8.254
 4634CHOL    R266427   8.794  -7.438   8.157
 4634CHOL    R366428   8.630  -7.374   8.269
 4634CHOL    R466429   8.805  -7.299   8.169
 4634CHOL    R566430   8.642  -7.215   8.282
 4634CHOL    C166431   8.660  -6.976   8.302
 4634CHOL    C266432   8.678  -6.738   8.322
 4635CHOL   ROH66433   9.357  -6.991   4.383
 4635CHOL    R166434   9.365  -6.840   4.434
 4635CHOL    R266435   9.571  -6.738   4.476
 4635CHOL    R366436   9.375  -6.669   4.492
 4635CHOL    R466437   9.578  -6.606   4.520
 4635CHOL    R566438   9.383  -6.518   4.543
 4635CHOL    C166439   9.395  -6.291   4.620
 4635CHOL    C266440   9.408  -6.064   4.697
 4636CHOL   ROH66441  -4.943   8.056   0.152
 4636CHOL    R166442  -4.811   8.072   0.241
 4636CHOL    R266443  -4.757   8.277   0.339
 4636CHOL    R366444  -4.663   8.091   0.341
 4636CHOL    R466445  -4.642   8.292   0.417
 4636CHOL    R566446  -4.531   8.107   0.431
 4636CHOL    C166447  -4.333   8.132   0.564
 4636CHOL    C266448  -4.135   8.157   0.698
 4637CHOL   ROH66449   1.305  23.831  17.232
 4637CHOL    R166450   1.381  23.705  17.170
 4637CHOL    R266451   1.555  23.732  17.018
 4637CHOL    R366452   1.466  23.562  17.100
 4637CHOL    R466453   1.622  23.622  16.963
 4637CHOL    R566454   1.542  23.436  17.038
 4637CHOL    C166455   1.656  23.246  16.945
 4637CHOL    C266456   1.770  23.057  16.852
 4638CHOL   ROH66457  10.165  -7.830   9.240
 4638CHOL    R166458  10.165  -7.670   9.245
 4638CHOL    R266459  10.325  -7.546   9.130
 4638CHOL    R366460  10.165  -7.490   9.251
 4638CHOL    R466461  10.325  -7.406   9.134
 4638CHOL    R566462  10.164  -7.331   9.257
 4638CHOL    C166463  10.164  -7.091   9.264
 4638CHOL    C266464  10.164  -6.851   9.272
 4639CHOL   ROH66465   3.398  21.515  21.925
 4639CHOL    R166466   3.453  21.411  21.817
 4639CHOL    R266467   3.509  21.193  21.878
 4639CHOL    R366468   3.515  21.293  21.695
 4639CHOL    R466469   3.557  21.101  21.784
 4639CHOL    R566470   3.570  21.189  21.587
 4639CHOL    C166471   3.653  21.033  21.425
 4639CHOL    C266472   3.736  20.876  21.263
 4640CHOL   ROH66473   6.291  15.734  -6.610
 4640CHOL    R166474   6.323  15.681  -6.463
 4640CHOL    R266475   6.491  15.780  -6.334
 4640CHOL    R366476   6.360  15.621  -6.297
 4640CHOL    R466477   6.519  15.733  -6.205
 4640CHOL    R566478   6.393  15.568  -6.149
 4640CHOL    C166479   6.441  15.488  -5.928
 4640CHOL    C266480   6.490  15.409  -5.707
 4641CHOL   ROH66481  -4.630  20.442  10.563
 4641CHOL    R166482  -4.502  20.347  10.555
 4641CHOL    R266483  -4.305  20.400  10.668
 4641CHOL    R366484  -4.357  20.240  10.545
 4641CHOL    R466485  -4.193  20.317  10.661
 4641CHOL    R566486  -4.229  20.145  10.536
 4641CHOL    C166487  -4.036  20.002  10.524
 4641CHOL    C266488  -3.843  19.860  10.511
 4642CHOL   ROH66489   0.694  15.099  -4.487
 4642CHOL    R166490   0.777  15.055  -4.358
 4642CHOL    R266491   0.679  15.055  -4.146
 4642CHOL    R366492   0.870  15.005  -4.212
 4642CHOL    R466493   0.751  15.016  -4.033
 4642CHOL    R566494   0.954  14.961  -4.082
 4642CHOL    C166495   1.078  14.895  -3.888
 4642CHOL    C266496   1.203  14.829  -3.694
 4643CHOL   ROH66497  21.304  -3.536  12.168
 4643CHOL    R166498  21.202  -3.414  12.148
 4643CHOL    R266499  21.158  -3.329  11.935
 4643CHOL    R366500  21.087  -3.278  12.125
 4643CHOL    R466501  21.069  -3.223  11.917
 4643CHOL    R566502  20.985  -3.156  12.105
 4643CHOL    C166503  20.833  -2.974  12.074
 4643CHOL    C266504  20.680  -2.791  12.044
 4644CHOL   ROH66505   5.890   4.113  -6.487
 4644CHOL    R166506   5.922   4.164  -6.339
 4644CHOL    R266507   6.000   4.017  -6.176
 4644CHOL    R366508   5.958   4.221  -6.172
 4644CHOL    R466509   6.028   4.061  -6.046
 4644CHOL    R566510   5.990   4.272  -6.023
 4644CHOL    C166511   6.038   4.348  -5.801
 4644CHOL    C266512   6.086   4.425  -5.579
 4645CHOL   ROH66513   1.702  -1.218  -1.185
 4645CHOL    R166514   1.776  -1.118  -1.084
 4645CHOL    R266515   2.005  -1.133  -1.047
 4645CHOL    R366516   1.858  -1.006  -0.970
 4645CHOL    R466517   2.070  -1.046  -0.958
 4645CHOL    R566518   1.932  -0.906  -0.869
 4645CHOL    C166519   2.042  -0.757  -0.717
 4645CHOL    C266520   2.153  -0.607  -0.565
 4646CHOL   ROH66521  20.406   3.714  -2.989
 4646CHOL    R166522  20.310   3.772  -2.875
 4646CHOL    R266523  20.375   3.952  -2.742
 4646CHOL    R366524  20.201   3.836  -2.747
 4646CHOL    R466525  20.290   4.002  -2.643
 4646CHOL    R566526  20.105   3.894  -2.633
 4646CHOL    C166527  19.960   3.980  -2.462
 4646CHOL    C266528  19.815   4.067  -2.291
 4647CHOL   ROH66529  11.382   9.922  -7.893
 4647CHOL    R166530  11.371   9.925  -7.733
 4647CHOL    R266531  11.208  10.052  -7.626
 4647CHOL    R366532  11.360   9.927  -7.554
 4647CHOL    R466533  11.199  10.054  -7.486
 4647CHOL    R566534  11.349   9.930  -7.394
 4647CHOL    C166535  11.333   9.934  -7.154
 4647CHOL    C266536  11.317   9.938  -6.915
 4648CHOL   ROH66537   9.682  27.637  12.514
 4648CHOL    R166538   9.681  27.479  12.492
 4648CHOL    R266539   9.872  27.367  12.417
 4648CHOL    R366540   9.681  27.300  12.467
 4648CHOL    R466541   9.872  27.229  12.398
 4648CHOL    R566542   9.680  27.142  12.445
 4648CHOL    C166543   9.679  26.904  12.412
 4648CHOL    C266544   9.678  26.667  12.379
 4649CHOL   ROH66545  26.917  15.258  10.607
 4649CHOL    R166546  26.765  15.210  10.600
 4649CHOL    R266547  26.697  15.047  10.447
 4649CHOL    R366548  26.593  15.155  10.593
 4649CHOL    R466549  26.564  15.005  10.441
 4649CHOL    R566550  26.441  15.107  10.586
 4649CHOL    C166551  26.213  15.034  10.576
 4649CHOL    C266552  25.984  14.961  10.566
 4650CHOL   ROH66553  12.983  25.127  18.833
 4650CHOL    R166554  12.955  24.993  18.751
 4650CHOL    R266555  13.124  24.837  18.712
 4650CHOL    R366556  12.923  24.842  18.658
 4650CHOL    R466557  13.100  24.720  18.640
 4650CHOL    R566558  12.894  24.707  18.576
 4650CHOL    C166559  12.852  24.506  18.452
 4650CHOL    C266560  12.810  24.305  18.328
 4651CHOL   ROH66561  -6.609   4.306  13.678
 4651CHOL    R166562  -6.461   4.357  13.646
 4651CHOL    R266563  -6.342   4.486  13.800
 4651CHOL    R366564  -6.294   4.415  13.610
 4651CHOL    R466565  -6.212   4.531  13.772
 4651CHOL    R566566  -6.146   4.466  13.578
 4651CHOL    C166567  -5.924   4.543  13.529
 4651CHOL    C266568  -5.702   4.620  13.481
 4652CHOL   ROH66569  11.204  18.985  -5.419
 4652CHOL    R166570  11.190  18.905  -5.281
 4652CHOL    R266571  11.377  18.858  -5.150
 4652CHOL    R366572  11.174  18.816  -5.126
 4652CHOL    R466573  11.365  18.788  -5.030
 4652CHOL    R566574  11.160  18.736  -4.987
 4652CHOL    C166575  11.139  18.617  -4.780
 4652CHOL    C266576  11.118  18.498  -4.573
 4653CHOL   ROH66577  -1.764   7.962  23.336
 4653CHOL    R166578  -1.661   7.983  23.215
 4653CHOL    R266579  -1.434   8.017  23.255
 4653CHOL    R366580  -1.546   8.006  23.079
 4653CHOL    R466581  -1.344   8.035  23.150
 4653CHOL    R566582  -1.443   8.026  22.959
 4653CHOL    C166583  -1.289   8.057  22.777
 4653CHOL    C266584  -1.135   8.088  22.596
 4654CHOL   ROH66585  -4.706  12.828  -0.114
 4654CHOL    R166586  -4.575  12.807  -0.024
 4654CHOL    R266587  -4.580  12.669   0.164
 4654CHOL    R366588  -4.428  12.783   0.077
 4654CHOL    R466589  -4.465  12.650   0.242
 4654CHOL    R566590  -4.297  12.763   0.167
 4654CHOL    C166591  -4.101  12.731   0.302
 4654CHOL    C266592  -3.905  12.700   0.437
 4655CHOL   ROH66593  -5.913  18.390  10.572
 4655CHOL    R166594  -5.771  18.316  10.564
 4655CHOL    R266595  -5.715  18.147  10.715
 4655CHOL    R366596  -5.612  18.233  10.555
 4655CHOL    R466597  -5.591  18.083  10.708
 4655CHOL    R566598  -5.470  18.159  10.547
 4655CHOL    C166599  -5.257  18.049  10.535
 4655CHOL    C266600  -5.045  17.938  10.523
 4656CHOL   ROH66601  27.120   6.295   7.342
 4656CHOL    R166602  26.964   6.324   7.364
 4656CHOL    R266603  26.874   6.534   7.319
 4656CHOL    R366604  26.789   6.357   7.390
 4656CHOL    R466605  26.738   6.560   7.339
 4656CHOL    R566606  26.633   6.386   7.412
 4656CHOL    C166607  26.400   6.430   7.446
 4656CHOL    C266608  26.166   6.473   7.479
 4657CHOL   ROH66609   2.957  25.626  15.014
 4657CHOL    R166610   3.022  25.487  14.969
 4657CHOL    R266611   3.240  25.431  15.029
 4657CHOL    R366612   3.095  25.331  14.918
 4657CHOL    R466613   3.297  25.310  14.989
 4657CHOL    R566614   3.160  25.191  14.873
 4657CHOL    C166615   3.257  24.983  14.805
 4657CHOL    C266616   3.355  24.774  14.738
 4658CHOL   ROH66617   9.374  26.117   2.210
 4658CHOL    R166618   9.377  25.973   2.280
 4658CHOL    R266619   9.551  25.823   2.239
 4658CHOL    R366620   9.380  25.811   2.359
 4658CHOL    R466621   9.553  25.698   2.301
 4658CHOL    R566622   9.383  25.668   2.429
 4658CHOL    C166623   9.387  25.452   2.533
 4658CHOL    C266624   9.391  25.236   2.638
 4659CHOL   ROH66625  23.367  21.556  11.475
 4659CHOL    R166626  23.245  21.454  11.455
 4659CHOL    R266627  23.077  21.497  11.300
 4659CHOL    R366628  23.108  21.339  11.433
 4659CHOL    R466629  22.970  21.408  11.282
 4659CHOL    R566630  22.986  21.237  11.413
 4659CHOL    C166631  22.804  21.085  11.383
 4659CHOL    C266632  22.621  20.932  11.353
 4660CHOL   ROH66633  12.218  -7.000  14.917
 4660CHOL    R166634  12.195  -6.848  14.873
 4660CHOL    R266635  12.318  -6.753  14.699
 4660CHOL    R366636  12.170  -6.676  14.824
 4660CHOL    R466637  12.298  -6.620  14.661
 4660CHOL    R566638  12.147  -6.524  14.781
 4660CHOL    C166639  12.114  -6.296  14.715
 4660CHOL    C266640  12.080  -6.067  14.649
 4661CHOL   ROH66641   9.390  27.804  10.548
 4661CHOL    R166642   9.393  27.644  10.543
 4661CHOL    R266643   9.577  27.530  10.458
 4661CHOL    R366644   9.395  27.464  10.537
 4661CHOL    R466645   9.580  27.390  10.454
 4661CHOL    R566646   9.398  27.304  10.531
 4661CHOL    C166647   9.402  27.065  10.524
 4661CHOL    C266648   9.406  26.825  10.516
 4662CHOL   ROH66649  26.977   9.523  15.091
 4662CHOL    R166650  26.823   9.526  15.048
 4662CHOL    R266651  26.761   9.507  14.824
 4662CHOL    R366652  26.650   9.528  14.999
 4662CHOL    R466653  26.626   9.509  14.786
 4662CHOL    R566654  26.496   9.531  14.956
 4662CHOL    C166655  26.264   9.535  14.891
 4662CHOL    C266656  26.033   9.539  14.826
 4663CHOL   ROH66657  23.208   2.834  19.391
 4663CHOL    R166658  23.090   2.893  19.301
 4663CHOL    R266659  23.048   2.808  19.087
 4663CHOL    R366660  22.957   2.959  19.199
 4663CHOL    R466661  22.944   2.859  19.008
 4663CHOL    R566662  22.839   3.018  19.109
 4663CHOL    C166663  22.661   3.106  18.973
 4663CHOL    C266664  22.484   3.195  18.837
 4664CHOL   ROH66665  17.567  -4.434  17.173
 4664CHOL    R166666  17.500  -4.303  17.111
 4664CHOL    R266667  17.486  -4.274  16.880
 4664CHOL    R366668  17.426  -4.155  17.040
 4664CHOL    R466669  17.427  -4.159  16.825
 4664CHOL    R566670  17.359  -4.023  16.978
 4664CHOL    C166671  17.259  -3.826  16.884
 4664CHOL    C266672  17.159  -3.629  16.791
 4665CHOL   ROH66673  26.761  10.376   4.238
 4665CHOL    R166674  26.609  10.373   4.287
 4665CHOL    R266675  26.467  10.198   4.228
 4665CHOL    R366676  26.437  10.370   4.342
 4665CHOL    R466677  26.334  10.195   4.271
 4665CHOL    R566678  26.285  10.367   4.391
 4665CHOL    C166679  26.057  10.363   4.464
 4665CHOL    C266680  25.828  10.359   4.538
 4666CHOL   ROH66681   8.479  14.856  -7.201
 4666CHOL    R166682   8.490  14.812  -7.047
 4666CHOL    R266683   8.594  14.612  -6.986
 4666CHOL    R366684   8.502  14.763  -6.875
 4666CHOL    R466685   8.603  14.574  -6.852
 4666CHOL    R566686   8.512  14.719  -6.721
 4666CHOL    C166687   8.529  14.653  -6.491
 4666CHOL    C266688   8.545  14.587  -6.260
 4667CHOL   ROH66689   8.798  -5.598   1.312
 4667CHOL    R166690   8.810  -5.458   1.389
 4667CHOL    R266691   8.955  -5.432   1.569
 4667CHOL    R366692   8.822  -5.301   1.476
 4667CHOL    R466693   8.965  -5.310   1.637
 4667CHOL    R566694   8.834  -5.161   1.552
 4667CHOL    C166695   8.851  -4.951   1.668
 4667CHOL    C266696   8.869  -4.741   1.783
 4668CHOL   ROH66697  12.881   2.215  25.773
 4668CHOL    R166698  12.855   2.286  25.632
 4668CHOL    R266699  12.945   2.495  25.585
 4668CHOL    R366700  12.825   2.366  25.473
 4668CHOL    R466701  12.922   2.557  25.461
 4668CHOL    R566702  12.798   2.437  25.332
 4668CHOL    C166703  12.759   2.543  25.121
 4668CHOL    C266704  12.719   2.649  24.910
 4669CHOL   ROH66705  -7.023   7.002   4.878
 4669CHOL    R166706  -6.872   7.025   4.926
 4669CHOL    R266707  -6.824   7.154   5.113
 4669CHOL    R366708  -6.702   7.051   4.979
 4669CHOL    R466709  -6.692   7.174   5.155
 4669CHOL    R566710  -6.551   7.073   5.027
 4669CHOL    C166711  -6.324   7.108   5.099
 4669CHOL    C266712  -6.098   7.142   5.170
 4670CHOL   ROH66713  -6.086   8.139  17.745
 4670CHOL    R166714  -5.942   8.152  17.676
 4670CHOL    R266715  -5.809   7.965  17.639
 4670CHOL    R366716  -5.780   8.168  17.598
 4670CHOL    R466717  -5.683   7.976  17.579
 4670CHOL    R566718  -5.637   8.181  17.529
 4670CHOL    C166719  -5.421   8.201  17.426
 4670CHOL    C266720  -5.205   8.221  17.323
 4671CHOL   ROH66721  -7.685   7.346  11.794
 4671CHOL    R166722  -7.528   7.372  11.775
 4671CHOL    R266723  -7.373   7.282  11.923
 4671CHOL    R366724  -7.352   7.401  11.753
 4671CHOL    R466725  -7.235   7.304  11.906
 4671CHOL    R566726  -7.195   7.427  11.734
 4671CHOL    C166727  -6.960   7.466  11.705
 4671CHOL    C266728  -6.725   7.505  11.676
 4672CHOL   ROH66729   8.121  26.150  17.343
 4672CHOL    R166730   8.137  26.005  17.277
 4672CHOL    R266731   8.165  25.980  17.047
 4672CHOL    R366732   8.156  25.842  17.203
 4672CHOL    R466733   8.179  25.853  16.989
 4672CHOL    R566734   8.172  25.697  17.137
 4672CHOL    C166735   8.196  25.480  17.038
 4672CHOL    C266736   8.221  25.262  16.939
 4673CHOL   ROH66737  16.529  24.151   1.378
 4673CHOL    R166738  16.468  24.024   1.454
 4673CHOL    R266739  16.539  23.968   1.669
 4673CHOL    R366740  16.399  23.882   1.540
 4673CHOL    R466741  16.486  23.857   1.736
 4673CHOL    R566742  16.339  23.755   1.617
 4673CHOL    C166743  16.247  23.565   1.731
 4673CHOL    C266744  16.156  23.375   1.845
 4674CHOL   ROH66745  10.547  23.529  21.541
 4674CHOL    R166746  10.540  23.408  21.437
 4674CHOL    R266747  10.595  23.191  21.501
 4674CHOL    R366748  10.532  23.272  21.320
 4674CHOL    R466749  10.589  23.085  21.410
 4674CHOL    R566750  10.525  23.150  21.216
 4674CHOL    C166751  10.514  22.969  21.059
 4674CHOL    C266752  10.503  22.787  20.903
 4675CHOL   ROH66753  -4.925   1.390  14.963
 4675CHOL    R166754  -4.792   1.467  14.918
 4675CHOL    R266755  -4.689   1.622  15.059
 4675CHOL    R366756  -4.642   1.553  14.867
 4675CHOL    R466757  -4.573   1.689  15.020
 4675CHOL    R566758  -4.509   1.629  14.822
 4675CHOL    C166759  -4.309   1.744  14.755
 4675CHOL    C266760  -4.110   1.859  14.688
 4676CHOL   ROH66761  26.461  16.096  12.431
 4676CHOL    R166762  26.312  16.043  12.409
 4676CHOL    R266763  26.231  15.994  12.196
 4676CHOL    R366764  26.144  15.982  12.385
 4676CHOL    R466765  26.101  15.948  12.177
 4676CHOL    R566766  25.995  15.929  12.364
 4676CHOL    C166767  25.771  15.849  12.331
 4676CHOL    C266768  25.547  15.769  12.299
 4677CHOL   ROH66769  23.631  14.028  20.567
 4677CHOL    R166770  23.512  13.991  20.467
 4677CHOL    R266771  23.449  13.769  20.431
 4677CHOL    R366772  23.378  13.950  20.353
 4677CHOL    R466773  23.345  13.737  20.343
 4677CHOL    R566774  23.259  13.913  20.253
 4677CHOL    C166775  23.080  13.858  20.102
 4677CHOL    C266776  22.902  13.803  19.952
 4678CHOL   ROH66777  16.962  -5.033   3.503
 4678CHOL    R166778  16.898  -4.898   3.560
 4678CHOL    R266779  17.016  -4.762   3.709
 4678CHOL    R366780  16.826  -4.745   3.623
 4678CHOL    R466781  16.960  -4.644   3.758
 4678CHOL    R566782  16.763  -4.610   3.680
 4678CHOL    C166783  16.667  -4.407   3.765
 4678CHOL    C266784  16.571  -4.204   3.850
 4679CHOL   ROH66785   6.480   1.583  25.269
 4679CHOL    R166786   6.507   1.653  25.128
 4679CHOL    R266787   6.725   1.700  25.058
 4679CHOL    R366788   6.538   1.733  24.969
 4679CHOL    R466789   6.749   1.762  24.934
 4679CHOL    R566790   6.565   1.803  24.828
 4679CHOL    C166791   6.607   1.909  24.617
 4679CHOL    C266792   6.648   2.014  24.406
 4680CHOL   ROH66793   1.886  23.605   1.680
 4680CHOL    R166794   1.961  23.483   1.752
 4680CHOL    R266795   2.151  23.520   1.882
 4680CHOL    R366796   2.046  23.346   1.832
 4680CHOL    R466797   2.217  23.413   1.945
 4680CHOL    R566798   2.121  23.225   1.904
 4680CHOL    C166799   2.234  23.042   2.011
 4680CHOL    C266800   2.347  22.859   2.118
 4681CHOL   ROH66801   8.931   6.039  27.312
 4681CHOL    R166802   8.941   6.078  27.157
 4681CHOL    R266803   9.145   6.068  27.045
 4681CHOL    R366804   8.953   6.121  26.983
 4681CHOL    R466805   9.155   6.102  26.909
 4681CHOL    R566806   8.964   6.159  26.828
 4681CHOL    C166807   8.979   6.217  26.596
 4681CHOL    C266808   8.995   6.275  26.363
 4682CHOL   ROH66809   4.707   1.187  -4.777
 4682CHOL    R166810   4.757   1.268  -4.648
 4682CHOL    R266811   4.981   1.266  -4.584
 4682CHOL    R366812   4.813   1.359  -4.503
 4682CHOL    R466813   5.025   1.337  -4.472
 4682CHOL    R566814   4.862   1.440  -4.374
 4682CHOL    C166815   4.937   1.561  -4.181
 4682CHOL    C266816   5.012   1.682  -3.988
 4683CHOL   ROH66817  -4.755   9.402  -0.280
 4683CHOL    R166818  -4.626   9.408  -0.186
 4683CHOL    R266819  -4.532   9.214  -0.097
 4683CHOL    R366820  -4.481   9.416  -0.079
 4683CHOL    R466821  -4.419   9.220  -0.015
 4683CHOL    R566822  -4.352   9.422   0.015
 4683CHOL    C166823  -4.158   9.432   0.157
 4683CHOL    C266824  -3.964   9.441   0.298
 4684CHOL   ROH66825   4.161  17.109  -5.412
 4684CHOL    R166826   4.212  17.045  -5.275
 4684CHOL    R266827   4.261  17.180  -5.090
 4684CHOL    R366828   4.270  16.973  -5.120
 4684CHOL    R466829   4.306  17.124  -4.970
 4684CHOL    R566830   4.321  16.909  -4.983
 4684CHOL    C166831   4.398  16.814  -4.776
 4684CHOL    C266832   4.475  16.718  -4.570
 4685CHOL   ROH66833  23.493  15.957  19.859
 4685CHOL    R166834  23.376  15.903  19.764
 4685CHOL    R266835  23.274  16.044  19.608
 4685CHOL    R366836  23.244  15.843  19.657
 4685CHOL    R466837  23.172  15.997  19.525
 4685CHOL    R566838  23.127  15.789  19.563
 4685CHOL    C166839  22.951  15.709  19.420
 4685CHOL    C266840  22.776  15.629  19.278
 4686CHOL   ROH66841  11.944  26.769   4.323
 4686CHOL    R166842  11.920  26.619   4.374
 4686CHOL    R266843  12.042  26.533   4.553
 4686CHOL    R366844  11.893  26.451   4.431
 4686CHOL    R466845  12.021  26.401   4.597
 4686CHOL    R566846  11.870  26.301   4.482
 4686CHOL    C166847  11.834  26.076   4.558
 4686CHOL    C266848  11.798  25.852   4.635
 4687CHOL   ROH66849  10.095  -4.626  20.200
 4687CHOL    R166850  10.091  -4.496  20.106
 4687CHOL    R266851  10.229  -4.480  19.919
 4687CHOL    R366852  10.087  -4.351  20.001
 4687CHOL    R466853  10.226  -4.366  19.837
 4687CHOL    R566854  10.083  -4.221  19.907
 4687CHOL    C166855  10.077  -4.027  19.766
 4687CHOL    C266856  10.071  -3.832  19.626
 4688CHOL   ROH66857  -5.536   1.396  12.649
 4688CHOL    R166858  -5.397   1.471  12.623
 4688CHOL    R266859  -5.204   1.352  12.568
 4688CHOL    R366860  -5.241   1.556  12.594
 4688CHOL    R466861  -5.083   1.418  12.545
 4688CHOL    R566862  -5.102   1.632  12.568
 4688CHOL    C166863  -4.894   1.745  12.530
 4688CHOL    C266864  -4.685   1.858  12.491
 4689CHOL   ROH66865  26.153   5.602  15.773
 4689CHOL    R166866  26.008   5.642  15.719
 4689CHOL    R266867  25.962   5.860  15.648
 4689CHOL    R366868  25.845   5.687  15.658
 4689CHOL    R466869  25.835   5.895  15.601
 4689CHOL    R566870  25.700   5.728  15.604
 4689CHOL    C166871  25.482   5.788  15.523
 4689CHOL    C266872  25.264   5.848  15.442
 4690CHOL   ROH66873  25.201  16.555  16.343
 4690CHOL    R166874  25.062  16.498  16.288
 4690CHOL    R266875  25.035  16.447  16.062
 4690CHOL    R366876  24.906  16.434  16.225
 4690CHOL    R466877  24.913  16.397  16.013
 4690CHOL    R566878  24.766  16.377  16.170
 4690CHOL    C166879  24.558  16.292  16.087
 4690CHOL    C266880  24.349  16.207  16.004
 4691CHOL   ROH66881   3.779  19.552  -3.934
 4691CHOL    R166882   3.833  19.469  -3.808
 4691CHOL    R266883   4.043  19.369  -3.812
 4691CHOL    R366884   3.893  19.375  -3.667
 4691CHOL    R466885   4.090  19.296  -3.702
 4691CHOL    R566886   3.947  19.292  -3.542
 4691CHOL    C166887   4.027  19.166  -3.353
 4691CHOL    C266888   4.107  19.041  -3.165
 4692CHOL   ROH66889  -5.309  10.578  19.309
 4692CHOL    R166890  -5.175  10.572  19.221
 4692CHOL    R266891  -4.990  10.449  19.293
 4692CHOL    R366892  -5.025  10.565  19.123
 4692CHOL    R466893  -4.873  10.444  19.216
 4692CHOL    R566894  -4.891  10.559  19.035
 4692CHOL    C166895  -4.690  10.550  18.903
 4692CHOL    C266896  -4.490  10.541  18.772
 4693CHOL   ROH66897  -2.753   6.219  21.993
 4693CHOL    R166898  -2.643   6.256  21.883
 4693CHOL    R266899  -2.497   6.435  21.915
 4693CHOL    R366900  -2.519   6.297  21.759
 4693CHOL    R466901  -2.400   6.467  21.818
 4693CHOL    R566902  -2.409   6.334  21.649
 4693CHOL    C166903  -2.243   6.389  21.485
 4693CHOL    C266904  -2.078   6.444  21.320
 4694CHOL   ROH66905   3.930  26.833  10.824
 4694CHOL    R166906   3.986  26.683  10.815
 4694CHOL    R266907   4.156  26.610  10.957
 4694CHOL    R366908   4.048  26.515  10.805
 4694CHOL    R466909   4.204  26.479  10.949
 4694CHOL    R566910   4.104  26.365  10.796
 4694CHOL    C166911   4.188  26.140  10.783
 4694CHOL    C266912   4.271  25.916  10.769
 4695CHOL   ROH66913  23.215  11.213  21.714
 4695CHOL    R166914  23.098  11.201  21.606
 4695CHOL    R266915  23.101  11.326  21.410
 4695CHOL    R366916  22.965  11.187  21.485
 4695CHOL    R466917  22.999  11.315  21.315
 4695CHOL    R566918  22.848  11.175  21.377
 4695CHOL    C166919  22.672  11.156  21.215
 4695CHOL    C266920  22.496  11.138  21.053
 4696CHOL   ROH66921  25.295   8.070  18.629
 4696CHOL    R166922  25.158   8.090  18.549
 4696CHOL    R266923  25.144   8.041  18.321
 4696CHOL    R366924  25.004   8.112  18.458
 4696CHOL    R466925  25.024   8.058  18.251
 4696CHOL    R566926  24.867   8.131  18.378
 4696CHOL    C166927  24.662   8.161  18.258
 4696CHOL    C266928  24.456   8.191  18.137
 4697CHOL   ROH66929  -2.506  12.440  -2.671
 4697CHOL    R166930  -2.398  12.421  -2.555
 4697CHOL    R266931  -2.379  12.576  -2.381
 4697CHOL    R366932  -2.276  12.400  -2.424
 4697CHOL    R466933  -2.285  12.560  -2.280
 4697CHOL    R566934  -2.168  12.382  -2.308
 4697CHOL    C166935  -2.005  12.353  -2.133
 4697CHOL    C266936  -1.843  12.325  -1.959
 4698CHOL   ROH66937  20.304  24.369   8.645
 4698CHOL    R166938  20.215  24.236   8.654
 4698CHOL    R266939  20.226  24.073   8.487
 4698CHOL    R366940  20.115  24.087   8.664
 4698CHOL    R466941  20.148  23.957   8.495
 4698CHOL    R566942  20.026  23.954   8.673
 4698CHOL    C166943  19.893  23.755   8.686
 4698CHOL    C266944  19.760  23.556   8.700
 4699CHOL   ROH66945  -1.017  14.507  -3.461
 4699CHOL    R166946  -0.921  14.469  -3.339
 4699CHOL    R266947  -1.004  14.452  -3.122
 4699CHOL    R366948  -0.813  14.426  -3.201
 4699CHOL    R466949  -0.920  14.419  -3.015
 4699CHOL    R566950  -0.717  14.389  -3.079
 4699CHOL    C166951  -0.573  14.332  -2.896
 4699CHOL    C266952  -0.429  14.275  -2.712
 4700CHOL   ROH66953  23.888  21.021  10.713
 4700CHOL    R166954  23.761  20.925  10.703
 4700CHOL    R266955  23.776  20.700  10.762
 4700CHOL    R366956  23.618  20.816  10.691
 4700CHOL    R466957  23.665  20.615  10.753
 4700CHOL    R566958  23.491  20.720  10.680
 4700CHOL    C166959  23.300  20.575  10.665
 4700CHOL    C266960  23.109  20.430  10.649
 4701CHOL   ROH66961   6.697  15.694  -6.708
 4701CHOL    R166962   6.725  15.642  -6.560
 4701CHOL    R266963   6.881  15.748  -6.422
 4701CHOL    R366964   6.757  15.583  -6.392
 4701CHOL    R466965   6.906  15.702  -6.292
 4701CHOL    R566966   6.786  15.530  -6.244
 4701CHOL    C166967   6.828  15.452  -6.021
 4701CHOL    C266968   6.870  15.374  -5.799
 4702CHOL   ROH66969   4.919  10.798  26.960
 4702CHOL    R166970   4.960  10.785  26.806
 4702CHOL    R266971   5.004  10.975  26.677
 4702CHOL    R366972   5.007  10.771  26.633
 4702CHOL    R466973   5.040  10.964  26.543
 4702CHOL    R566974   5.049  10.758  26.479
 4702CHOL    C166975   5.111  10.739  26.248
 4702CHOL    C266976   5.173  10.720  26.017
 4703CHOL   ROH66977   3.299   1.535  24.284
 4703CHOL    R166978   3.360   1.609  24.156
 4703CHOL    R266979   3.446   1.488  23.977
 4703CHOL    R366980   3.429   1.693  24.012
 4703CHOL    R466981   3.500   1.553  23.865
 4703CHOL    R566982   3.490   1.767  23.884
 4703CHOL    C166983   3.582   1.878  23.693
 4703CHOL    C266984   3.673   1.990  23.501
 4704CHOL   ROH66985  24.871   5.683  18.499
 4704CHOL    R166986  24.737   5.719  18.419
 4704CHOL    R266987  24.674   5.941  18.386
 4704CHOL    R366988  24.587   5.761  18.329
 4704CHOL    R466989  24.557   5.973  18.316
 4704CHOL    R566990  24.453   5.797  18.249
 4704CHOL    C166991  24.252   5.852  18.129
 4704CHOL    C266992  24.052   5.906  18.009
 4705CHOL   ROH66993   3.076  16.540  -5.225
 4705CHOL    R166994   3.137  16.481  -5.089
 4705CHOL    R266995   3.140  16.608  -4.894
 4705CHOL    R366996   3.205  16.414  -4.937
 4705CHOL    R466997   3.194  16.556  -4.775
 4705CHOL    R566998   3.266  16.355  -4.801
 4705CHOL    C166999   3.357  16.266  -4.597
 4705CHOL    C267000   3.448  16.177  -4.394
 4706CHOL   ROH67001   6.225  25.748   2.321
 4706CHOL    R167002   6.256  25.608   2.392
 4706CHOL    R267003   6.464  25.505   2.368
 4706CHOL    R367004   6.291  25.451   2.472
 4706CHOL    R467005   6.491  25.383   2.430
 4706CHOL    R567006   6.323  25.311   2.544
 4706CHOL    C167007   6.369  25.101   2.650
 4706CHOL    C267008   6.416  24.891   2.757
 4707CHOL   ROH67009  11.184  27.675   7.978
 4707CHOL    R167010  11.173  27.516   7.995
 4707CHOL    R267011  11.338  27.396   8.108
 4707CHOL    R367012  11.160  27.338   8.015
 4707CHOL    R467013  11.328  27.257   8.123
 4707CHOL    R567014  11.149  27.179   8.032
 4707CHOL    C167015  11.132  26.941   8.059
 4707CHOL    C267016  11.115  26.703   8.085
 4708CHOL   ROH67017   1.754  19.892  22.383
 4708CHOL    R167018   1.828  19.805  22.271
 4708CHOL    R267019   1.992  19.650  22.329
 4708CHOL    R367020   1.911  19.707  22.145
 4708CHOL    R467021   2.057  19.573  22.231
 4708CHOL    R567022   1.985  19.619  22.033
 4708CHOL    C167023   2.096  19.489  21.865
 4708CHOL    C267024   2.207  19.358  21.697
 4709CHOL   ROH67025  -5.147   1.184  13.847
 4709CHOL    R167026  -5.012   1.261  13.811
 4709CHOL    R267027  -4.953   1.459  13.920
 4709CHOL    R367028  -4.860   1.349  13.769
 4709CHOL    R467029  -4.835   1.527  13.888
 4709CHOL    R567030  -4.724   1.426  13.733
 4709CHOL    C167031  -4.522   1.542  13.678
 4709CHOL    C267032  -4.319   1.658  13.624
 4710CHOL   ROH67033  26.353  13.056  15.933
 4710CHOL    R167034  26.204  13.027  15.882
 4710CHOL    R267035  26.128  12.809  15.849
 4710CHOL    R367036  26.037  12.995  15.824
 4710CHOL    R467037  25.998  12.784  15.805
 4710CHOL    R567038  25.888  12.966  15.773
 4710CHOL    C167039  25.665  12.924  15.696
 4710CHOL    C267040  25.442  12.881  15.619
 4711CHOL   ROH67041  26.121  16.294   6.240
 4711CHOL    R167042  25.976  16.232   6.269
 4711CHOL    R267043  25.840  16.157   6.096
 4711CHOL    R367044  25.814  16.163   6.303
 4711CHOL    R467045  25.714  16.102   6.121
 4711CHOL    R567046  25.669  16.101   6.332
 4711CHOL    C167047  25.452  16.008   6.376
 4711CHOL    C267048  25.235  15.916   6.420
 4712CHOL   ROH67049   7.860   3.111  -6.413
 4712CHOL    R167050   7.873   3.170  -6.265
 4712CHOL    R267051   8.019   3.347  -6.219
 4712CHOL    R367052   7.889   3.237  -6.098
 4712CHOL    R467053   8.030   3.399  -6.090
 4712CHOL    R567054   7.902   3.296  -5.950
 4712CHOL    C167055   7.922   3.385  -5.728
 4712CHOL    C267056   7.942   3.474  -5.506
 4713CHOL   ROH67057  27.121  14.598   9.466
 4713CHOL    R167058  26.967  14.555   9.471
 4713CHOL    R267059  26.871  14.435   9.295
 4713CHOL    R367060  26.794  14.506   9.476
 4713CHOL    R467061  26.736  14.397   9.299
 4713CHOL    R567062  26.640  14.463   9.480
 4713CHOL    C167063  26.409  14.398   9.487
 4713CHOL    C267064  26.178  14.333   9.494
 4714CHOL   ROH67065  23.667  -0.831   6.647
 4714CHOL    R167066  23.542  -0.735   6.676
 4714CHOL    R267067  23.439  -0.616   6.504
 4714CHOL    R367068  23.402  -0.627   6.709
 4714CHOL    R467069  23.330  -0.532   6.529
 4714CHOL    R567070  23.278  -0.531   6.738
 4714CHOL    C167071  23.091  -0.387   6.782
 4714CHOL    C267072  22.904  -0.243   6.825
 4715CHOL   ROH67073   6.261  14.188  26.846
 4715CHOL    R167074   6.293  14.156  26.693
 4715CHOL    R267075   6.457  14.000  26.634
 4715CHOL    R367076   6.330  14.121  26.520
 4715CHOL    R467077   6.485  13.973  26.500
 4715CHOL    R567078   6.362  14.089  26.367
 4715CHOL    C167079   6.410  14.041  26.136
 4715CHOL    C267080   6.459  13.994  25.906
 4716CHOL   ROH67081  12.523  19.453  -4.949
 4716CHOL    R167082  12.499  19.369  -4.815
 4716CHOL    R267083  12.671  19.335  -4.661
 4716CHOL    R367084  12.471  19.274  -4.664
 4716CHOL    R467085  12.649  19.261  -4.544
 4716CHOL    R567086  12.446  19.190  -4.531
 4716CHOL    C167087  12.410  19.064  -4.330
 4716CHOL    C267088  12.373  18.938  -4.129
 4717CHOL   ROH67089   9.438  23.758  -1.356
 4717CHOL    R167090   9.445  23.634  -1.255
 4717CHOL    R267091   9.474  23.668  -1.026
 4717CHOL    R367092   9.452  23.495  -1.141
 4717CHOL    R467093   9.480  23.560  -0.937
 4717CHOL    R567094   9.458  23.372  -1.040
 4717CHOL    C167095   9.468  23.186  -0.888
 4717CHOL    C267096   9.478  23.000  -0.736
 4718CHOL   ROH67097  25.032  19.077   7.920
 4718CHOL    R167098  24.896  18.995   7.941
 4718CHOL    R267099  24.831  18.831   7.788
 4718CHOL    R367100  24.744  18.902   7.965
 4718CHOL    R467101  24.712  18.759   7.807
 4718CHOL    R567102  24.608  18.820   7.986
 4718CHOL    C167103  24.404  18.697   8.017
 4718CHOL    C267104  24.201  18.573   8.048
 4719CHOL   ROH67105   3.583  26.534   7.361
 4719CHOL    R167106   3.643  26.387   7.384
 4719CHOL    R267107   3.646  26.291   7.596
 4719CHOL    R367108   3.709  26.222   7.410
 4719CHOL    R467109   3.698  26.162   7.616
 4719CHOL    R567110   3.769  26.076   7.433
 4719CHOL    C167111   3.858  25.855   7.467
 4719CHOL    C267112   3.948  25.635   7.501
 4720CHOL   ROH67113  -1.015  22.792   4.080
 4720CHOL    R167114  -0.920  22.674   4.133
 4720CHOL    R267115  -0.694  22.712   4.173
 4720CHOL    R367116  -0.813  22.542   4.192
 4720CHOL    R467117  -0.611  22.609   4.219
 4720CHOL    R567118  -0.718  22.424   4.244
 4720CHOL    C167119  -0.576  22.248   4.323
 4720CHOL    C267120  -0.434  22.072   4.402
 4721CHOL   ROH67121  23.993  15.553  19.407
 4721CHOL    R167122  23.867  15.506  19.321
 4721CHOL    R267123  23.760  15.653  19.175
 4721CHOL    R367124  23.725  15.453  19.224
 4721CHOL    R467125  23.649  15.611  19.099
 4721CHOL    R567126  23.598  15.405  19.138
 4721CHOL    C167127  23.409  15.335  19.009
 4721CHOL    C267128  23.220  15.264  18.880
 4722CHOL   ROH67129  24.056   1.306   3.373
 4722CHOL    R167130  23.929   1.384   3.432
 4722CHOL    R267131  23.956   1.583   3.551
 4722CHOL    R367132  23.787   1.472   3.498
 4722CHOL    R467133  23.845   1.652   3.602
 4722CHOL    R567134  23.661   1.550   3.557
 4722CHOL    C167135  23.471   1.668   3.645
 4722CHOL    C267136  23.281   1.785   3.734
 4723CHOL   ROH67137  -5.938  15.976  15.846
 4723CHOL    R167138  -5.797  15.921  15.793
 4723CHOL    R267139  -5.630  16.069  15.725
 4723CHOL    R367140  -5.639  15.860  15.733
 4723CHOL    R467141  -5.507  16.021  15.678
 4723CHOL    R567142  -5.499  15.805  15.680
 4723CHOL    C167143  -5.288  15.724  15.600
 4723CHOL    C267144  -5.077  15.642  15.521
 4724CHOL   ROH67145  -7.065  10.278   4.429
 4724CHOL    R167146  -6.912  10.275   4.476
 4724CHOL    R267147  -6.840  10.125   4.640
 4724CHOL    R367148  -6.740  10.272   4.530
 4724CHOL    R467149  -6.707  10.123   4.682
 4724CHOL    R567150  -6.587  10.268   4.577
 4724CHOL    C167151  -6.358  10.264   4.648
 4724CHOL    C267152  -6.129  10.259   4.719
 4725CHOL   ROH67153  -3.541   3.468  19.812
 4725CHOL    R167154  -3.425   3.529  19.720
 4725CHOL    R267155  -3.251   3.395  19.642
 4725CHOL    R367156  -3.294   3.598  19.617
 4725CHOL    R467157  -3.149   3.448  19.562
 4725CHOL    R567158  -3.178   3.659  19.525
 4725CHOL    C167159  -3.004   3.750  19.388
 4725CHOL    C267160  -2.830   3.841  19.250
 4726CHOL   ROH67161  20.581  24.133   8.052
 4726CHOL    R167162  20.490  24.002   8.065
 4726CHOL    R267163  20.335  23.947   7.899
 4726CHOL    R367164  20.388  23.855   8.080
 4726CHOL    R467165  20.255  23.832   7.911
 4726CHOL    R567166  20.296  23.724   8.092
 4726CHOL    C167167  20.160  23.528   8.112
 4726CHOL    C267168  20.023  23.331   8.131
 4727CHOL   ROH67169   7.986  20.951  23.888
 4727CHOL    R167170   8.005  20.850  23.765
 4727CHOL    R267171   8.195  20.861  23.630
 4727CHOL    R367172   8.027  20.737  23.627
 4727CHOL    R467173   8.212  20.773  23.522
 4727CHOL    R567174   8.047  20.637  23.504
 4727CHOL    C167175   8.076  20.486  23.320
 4727CHOL    C267176   8.105  20.335  23.135
 4728CHOL   ROH67177   9.179  21.907  -3.286
 4728CHOL    R167178   9.185  21.800  -3.167
 4728CHOL    R267179   9.321  21.834  -2.981
 4728CHOL    R367180   9.191  21.680  -3.033
 4728CHOL    R467181   9.325  21.741  -2.877
 4728CHOL    R567182   9.196  21.573  -2.915
 4728CHOL    C167183   9.205  21.412  -2.736
 4728CHOL    C267184   9.213  21.251  -2.558
 4729CHOL   ROH67185  19.401  -3.214   2.598
 4729CHOL    R167186  19.318  -3.094   2.664
 4729CHOL    R267187  19.202  -2.941   2.531
 4729CHOL    R367188  19.226  -2.958   2.737
 4729CHOL    R467189  19.130  -2.836   2.588
 4729CHOL    R567190  19.143  -2.838   2.803
 4729CHOL    C167191  19.019  -2.658   2.901
 4729CHOL    C267192  18.895  -2.477   3.000
 4730CHOL   ROH67193   2.519  -3.634   0.975
 4730CHOL    R167194   2.586  -3.515   1.058
 4730CHOL    R267195   2.816  -3.478   1.052
 4730CHOL    R367196   2.661  -3.381   1.152
 4730CHOL    R467197   2.874  -3.374   1.125
 4730CHOL    R567198   2.728  -3.261   1.236
 4730CHOL    C167199   2.828  -3.083   1.361
 4730CHOL    C267200   2.928  -2.904   1.486
 4731CHOL   ROH67201  27.256  13.705  11.283
 4731CHOL    R167202  27.100  13.674  11.268
 4731CHOL    R267203  26.982  13.741  11.079
 4731CHOL    R367204  26.924  13.640  11.252
 4731CHOL    R467205  26.845  13.715  11.066
 4731CHOL    R567206  26.767  13.610  11.237
 4731CHOL    C167207  26.533  13.564  11.216
 4731CHOL    C267208  26.299  13.518  11.194
 4732CHOL   ROH67209  18.273  13.077  25.395
 4732CHOL    R167210  18.191  13.047  25.261
 4732CHOL    R267211  18.239  12.859  25.131
 4732CHOL    R367212  18.099  13.013  25.110
 4732CHOL    R467213  18.168  12.833  25.013
 4732CHOL    R567214  18.017  12.983  24.976
 4732CHOL    C167215  17.894  12.937  24.775
 4732CHOL    C267216  17.771  12.892  24.574
 4733CHOL   ROH67217  -7.819   7.900  11.341
 4733CHOL    R167218  -7.661   7.921  11.325
 4733CHOL    R267219  -7.514   7.855  11.493
 4733CHOL    R367220  -7.484   7.945  11.307
 4733CHOL    R467221  -7.375   7.873  11.479
 4733CHOL    R567222  -7.326   7.966  11.291
 4733CHOL    C167223  -7.089   7.998  11.267
 4733CHOL    C267224  -6.853   8.030  11.243
 4734CHOL   ROH67225  -5.007  18.935   5.669
 4734CHOL    R167226  -4.872  18.859   5.711
 4734CHOL    R267227  -4.834  18.796   5.932
 4734CHOL    R367228  -4.721  18.774   5.758
 4734CHOL    R467229  -4.716  18.730   5.969
 4734CHOL    R567230  -4.587  18.698   5.800
 4734CHOL    C167231  -4.385  18.584   5.863
 4734CHOL    C267232  -4.183  18.470   5.926
 4735CHOL   ROH67233   7.482  25.408  18.646
 4735CHOL    R167234   7.504  25.270  18.569
 4735CHOL    R267235   7.714  25.209  18.488
 4735CHOL    R367236   7.528  25.114  18.481
 4735CHOL    R467237   7.733  25.088  18.420
 4735CHOL    R567238   7.550  24.976  18.404
 4735CHOL    C167239   7.583  24.768  18.288
 4735CHOL    C267240   7.615  24.560  18.172
 4736CHOL   ROH67241   8.825  -7.773   8.907
 4736CHOL    R167242   8.835  -7.613   8.916
 4736CHOL    R267243   8.906  -7.487   8.733
 4736CHOL    R367244   8.846  -7.434   8.926
 4736CHOL    R467245   8.915  -7.348   8.741
 4736CHOL    R567246   8.857  -7.274   8.934
 4736CHOL    C167247   8.872  -7.035   8.948
 4736CHOL    C267248   8.887  -6.796   8.961
 4737CHOL   ROH67249  11.959   2.808  -6.274
 4737CHOL    R167250  11.942   2.871  -6.128
 4737CHOL    R267251  12.127   2.943  -6.006
 4737CHOL    R367252  11.922   2.942  -5.964
 4737CHOL    R467253  12.112   2.998  -5.878
 4737CHOL    R567254  11.905   3.005  -5.817
 4737CHOL    C167255  11.879   3.100  -5.598
 4737CHOL    C267256  11.853   3.194  -5.379
 4738CHOL   ROH67257  -4.160   3.806   0.631
 4738CHOL    R167258  -4.036   3.860   0.716
 4738CHOL    R267259  -3.886   3.712   0.817
 4738CHOL    R367260  -3.897   3.921   0.813
 4738CHOL    R467261  -3.777   3.760   0.891
 4738CHOL    R567262  -3.773   3.975   0.898
 4738CHOL    C167263  -3.587   4.056   1.026
 4738CHOL    C267264  -3.401   4.137   1.154
 4739CHOL   ROH67265  23.800  -0.752   6.975
 4739CHOL    R167266  23.674  -0.657   7.002
 4739CHOL    R267267  23.566  -0.549   6.825
 4739CHOL    R367268  23.532  -0.550   7.031
 4739CHOL    R467269  23.456  -0.466   6.849
 4739CHOL    R567270  23.406  -0.455   7.058
 4739CHOL    C167271  23.218  -0.312   7.098
 4739CHOL    C267272  23.029  -0.170   7.138
 4740CHOL   ROH67273  12.159  -5.987  17.691
 4740CHOL    R167274  12.137  -5.845  17.620
 4740CHOL    R267275  12.140  -5.647  17.744
 4740CHOL    R367276  12.111  -5.685  17.541
 4740CHOL    R467277  12.121  -5.523  17.683
 4740CHOL    R567278  12.089  -5.544  17.470
 4740CHOL    C167279  12.055  -5.331  17.365
 4740CHOL    C267280  12.022  -5.118  17.259
 4741CHOL   ROH67281  -2.523   9.865  22.770
 4741CHOL    R167282  -2.410   9.865  22.657
 4741CHOL    R267283  -2.255  10.039  22.642
 4741CHOL    R367284  -2.283   9.865  22.530
 4741CHOL    R467285  -2.156  10.039  22.543
 4741CHOL    R567286  -2.169   9.865  22.416
 4741CHOL    C167287  -2.000   9.865  22.247
 4741CHOL    C267288  -1.830   9.865  22.077
 4742CHOL   ROH67289   2.301  -0.990  21.849
 4742CHOL    R167290   2.370  -0.890  21.745
 4742CHOL    R267291   2.502  -0.713  21.818
 4742CHOL    R367292   2.448  -0.777  21.628
 4742CHOL    R467293   2.563  -0.625  21.727
 4742CHOL    R567294   2.516  -0.677  21.524
 4742CHOL    C167295   2.620  -0.527  21.367
 4742CHOL    C267296   2.723  -0.377  21.211
 4743CHOL   ROH67297   8.883  -1.001  -4.138
 4743CHOL    R167298   8.891  -0.902  -4.012
 4743CHOL    R267299   9.009  -0.962  -3.820
 4743CHOL    R367300   8.899  -0.791  -3.871
 4743CHOL    R467301   9.015  -0.875  -3.710
 4743CHOL    R567302   8.907  -0.693  -3.745
 4743CHOL    C167303   8.919  -0.544  -3.557
 4743CHOL    C267304   8.930  -0.396  -3.369
 4744CHOL   ROH67305  24.589  17.980   3.773
 4744CHOL    R167306  24.457  17.905   3.823
 4744CHOL    R267307  24.465  17.687   3.905
 4744CHOL    R367308  24.307  17.821   3.879
 4744CHOL    R467309  24.349  17.622   3.948
 4744CHOL    R567310  24.175  17.747   3.929
 4744CHOL    C167311  23.976  17.634   4.004
 4744CHOL    C267312  23.778  17.522   4.079
 4745CHOL   ROH67313   9.625  19.218  25.261
 4745CHOL    R167314   9.627  19.134  25.125
 4745CHOL    R267315   9.783  19.180  24.958
 4745CHOL    R367316   9.628  19.040  24.971
 4745CHOL    R467317   9.785  19.106  24.839
 4745CHOL    R567318   9.630  18.957  24.835
 4745CHOL    C167319   9.632  18.831  24.631
 4745CHOL    C267320   9.635  18.705  24.426
 4746CHOL   ROH67321   2.123  11.124  -6.100
 4746CHOL    R167322   2.197  11.112  -5.959
 4746CHOL    R267323   2.312  11.293  -5.867
 4746CHOL    R367324   2.280  11.098  -5.799
 4746CHOL    R467325   2.377  11.282  -5.744
 4746CHOL    R567326   2.354  11.085  -5.658
 4746CHOL    C167327   2.465  11.067  -5.446
 4746CHOL    C267328   2.576  11.049  -5.234
 4747CHOL   ROH67329   5.019   2.920  25.582
 4747CHOL    R167330   5.053   2.981  25.438
 4747CHOL    R267331   5.112   2.842  25.260
 4747CHOL    R367332   5.092   3.049  25.276
 4747CHOL    R467333   5.142   2.895  25.134
 4747CHOL    R567334   5.126   3.109  25.132
 4747CHOL    C167335   5.177   3.200  24.916
 4747CHOL    C267336   5.229   3.291  24.700
 4748CHOL   ROH67337  22.760  -0.636   3.593
 4748CHOL    R167338  22.644  -0.541   3.649
 4748CHOL    R267339  22.684  -0.314   3.687
 4748CHOL    R367340  22.514  -0.433   3.712
 4748CHOL    R467341  22.583  -0.230   3.736
 4748CHOL    R567342  22.398  -0.338   3.768
 4748CHOL    C167343  22.225  -0.195   3.852
 4748CHOL    C267344  22.051  -0.052   3.936
 4749CHOL   ROH67345  14.766  21.046  -3.261
 4749CHOL    R167346  14.724  20.949  -3.141
 4749CHOL    R267347  14.853  20.763  -3.085
 4749CHOL    R367348  14.677  20.841  -3.005
 4749CHOL    R467349  14.817  20.679  -2.980
 4749CHOL    R567350  14.635  20.744  -2.884
 4749CHOL    C167351  14.571  20.599  -2.704
 4749CHOL    C267352  14.508  20.454  -2.523
 4750CHOL   ROH67353   4.401  20.541  23.236
 4750CHOL    R167354   4.447  20.444  23.118
 4750CHOL    R267355   4.549  20.239  23.163
 4750CHOL    R367356   4.499  20.334  22.984
 4750CHOL    R467357   4.589  20.154  23.060
 4750CHOL    R567358   4.544  20.237  22.866
 4750CHOL    C167359   4.613  20.091  22.688
 4750CHOL    C267360   4.682  19.945  22.511
 4751CHOL   ROH67361  11.458  -4.799  19.811
 4751CHOL    R167362  11.442  -4.670  19.718
 4751CHOL    R267363  11.593  -4.626  19.546
 4751CHOL    R367364  11.424  -4.524  19.613
 4751CHOL    R467365  11.579  -4.513  19.465
 4751CHOL    R567366  11.408  -4.395  19.520
 4751CHOL    C167367  11.383  -4.201  19.381
 4751CHOL    C267368  11.359  -4.007  19.242
 4752CHOL   ROH67369  10.458  14.327  27.225
 4752CHOL    R167370  10.450  14.284  27.071
 4752CHOL    R267371  10.633  14.187  26.964
 4752CHOL    R367372  10.441  14.236  26.898
 4752CHOL    R467373  10.625  14.150  26.829
 4752CHOL    R567374  10.433  14.194  26.744
 4752CHOL    C167375  10.420  14.129  26.513
 4752CHOL    C267376  10.408  14.065  26.282
 4753CHOL   ROH67377   1.954   3.623  24.612
 4753CHOL    R167378   2.032   3.679  24.484
 4753CHOL    R267379   2.194   3.550  24.376
 4753CHOL    R367380   2.119   3.742  24.339
 4753CHOL    R467381   2.262   3.599  24.264
 4753CHOL    R567382   2.196   3.797  24.211
 4753CHOL    C167383   2.313   3.881  24.019
 4753CHOL    C267384   2.429   3.965  23.826
 4754CHOL   ROH67385  25.446   2.792  14.917
 4754CHOL    R167386  25.306   2.856  14.874
 4754CHOL    R267387  25.245   2.870  14.649
 4754CHOL    R367388  25.148   2.928  14.825
 4754CHOL    R467389  25.122   2.926  14.611
 4754CHOL    R567390  25.008   2.991  14.782
 4754CHOL    C167391  24.798   3.087  14.716
 4754CHOL    C267392  24.588   3.183  14.651
 4755CHOL   ROH67393  23.287   7.262  -1.546
 4755CHOL    R167394  23.166   7.283  -1.444
 4755CHOL    R267395  22.946   7.300  -1.521
 4755CHOL    R367396  23.029   7.307  -1.329
 4755CHOL    R467397  22.840   7.318  -1.431
 4755CHOL    R567398  22.907   7.327  -1.227
 4755CHOL    C167399  22.725   7.359  -1.074
 4755CHOL    C267400  22.543   7.390  -0.921
 4756CHOL   ROH67401  23.498  15.632  20.030
 4756CHOL    R167402  23.381  15.582  19.933
 4756CHOL    R267403  23.293  15.721  19.768
 4756CHOL    R367404  23.249  15.525  19.824
 4756CHOL    R467405  23.191  15.678  19.684
 4756CHOL    R567406  23.132  15.475  19.728
 4756CHOL    C167407  22.956  15.400  19.582
 4756CHOL    C267408  22.781  15.324  19.437
 4757CHOL   ROH67409   1.238   7.382  25.400
 4757CHOL    R167410   1.317   7.410  25.264
 4757CHOL    R267411   1.383   7.626  25.206
 4757CHOL    R367412   1.405   7.442  25.110
 4757CHOL    R467413   1.452   7.651  25.086
 4757CHOL    R567414   1.484   7.470  24.973
 4757CHOL    C167415   1.602   7.512  24.769
 4757CHOL    C267416   1.720   7.554  24.564
 4758CHOL   ROH67417   3.945  -4.806  18.046
 4758CHOL    R167418   4.000  -4.674  17.974
 4758CHOL    R267419   4.168  -4.686  17.813
 4758CHOL    R367420   4.062  -4.526  17.894
 4758CHOL    R467421   4.216  -4.571  17.750
 4758CHOL    R567422   4.117  -4.394  17.822
 4758CHOL    C167423   4.200  -4.196  17.714
 4758CHOL    C267424   4.282  -3.998  17.607
 4759CHOL   ROH67425  -5.632  13.159   1.609
 4759CHOL    R167426  -5.490  13.128   1.677
 4759CHOL    R267427  -5.470  13.106   1.908
 4759CHOL    R367428  -5.331  13.093   1.753
 4759CHOL    R467429  -5.346  13.079   1.967
 4759CHOL    R567430  -5.190  13.062   1.821
 4759CHOL    C167431  -4.977  13.015   1.922
 4759CHOL    C267432  -4.765  12.968   2.024
 4760CHOL   ROH67433   3.195  22.933  -0.374
 4760CHOL    R167434   3.254  22.815  -0.284
 4760CHOL    R267435   3.344  22.858  -0.073
 4760CHOL    R367436   3.320  22.682  -0.182
 4760CHOL    R467437   3.396  22.755   0.006
 4760CHOL    R567438   3.379  22.563  -0.091
 4760CHOL    C167439   3.467  22.386   0.044
 4760CHOL    C267440   3.555  22.209   0.180
 4761CHOL   ROH67441   0.397  23.853   4.109
 4761CHOL    R167442   0.482  23.728   4.161
 4761CHOL    R267443   0.713  23.744   4.190
 4761CHOL    R367444   0.578  23.588   4.220
 4761CHOL    R467445   0.788  23.635   4.235
 4761CHOL    R567446   0.663  23.463   4.273
 4761CHOL    C167447   0.791  23.276   4.351
 4761CHOL    C267448   0.919  23.089   4.429
 4762CHOL   ROH67449  17.509  25.506  14.431
 4762CHOL    R167450  17.441  25.368  14.388
 4762CHOL    R267451  17.545  25.226  14.234
 4762CHOL    R367452  17.365  25.212  14.339
 4762CHOL    R467453  17.486  25.105  14.196
 4762CHOL    R567454  17.297  25.074  14.296
 4762CHOL    C167455  17.196  24.866  14.230
 4762CHOL    C267456  17.094  24.658  14.165
 4763CHOL   ROH67457  15.927  26.594   7.762
 4763CHOL    R167458  15.869  26.446   7.781
 4763CHOL    R267459  15.964  26.265   7.669
 4763CHOL    R367460  15.804  26.280   7.801
 4763CHOL    R467461  15.914  26.135   7.685
 4763CHOL    R567462  15.746  26.132   7.820
 4763CHOL    C167463  15.659  25.910   7.848
 4763CHOL    C267464  15.572  25.688   7.876
 4764CHOL   ROH67465   7.316  20.160  24.387
 4764CHOL    R167466   7.340  20.066  24.259
 4764CHOL    R267467   7.549  20.056  24.156
 4764CHOL    R367468   7.367  19.961  24.116
 4764CHOL    R467469   7.570  19.975  24.044
 4764CHOL    R567470   7.391  19.868  23.989
 4764CHOL    C167471   7.428  19.727  23.797
 4764CHOL    C267472   7.464  19.587  23.606
 4765CHOL   ROH67473  20.111  14.206  -4.059
 4765CHOL    R167474  20.020  14.167  -3.933
 4765CHOL    R267475  19.789  14.146  -3.955
 4765CHOL    R367476  19.918  14.122  -3.792
 4765CHOL    R467477  19.709  14.112  -3.845
 4765CHOL    R567478  19.827  14.083  -3.667
 4765CHOL    C167479  19.690  14.024  -3.478
 4765CHOL    C267480  19.553  13.965  -3.290
 4766CHOL   ROH67481  -7.969  10.190  11.327
 4766CHOL    R167482  -7.810  10.190  11.313
 4766CHOL    R267483  -7.678  10.338  11.435
 4766CHOL    R367484  -7.630  10.189  11.297
 4766CHOL    R467485  -7.539  10.338  11.423
 4766CHOL    R567486  -7.471  10.189  11.283
 4766CHOL    C167487  -7.232  10.188  11.263
 4766CHOL    C267488  -6.993  10.187  11.242
 4767CHOL   ROH67489  10.929  14.330  27.194
 4767CHOL    R167490  10.917  14.288  27.040
 4767CHOL    R267491  11.059  14.379  26.879
 4767CHOL    R367492  10.904  14.240  26.867
 4767CHOL    R467493  11.049  14.342  26.745
 4767CHOL    R567494  10.892  14.198  26.714
 4767CHOL    C167495  10.874  14.134  26.483
 4767CHOL    C267496  10.856  14.070  26.252
 4768CHOL   ROH67497   0.746  13.105  24.943
 4768CHOL    R167498   0.833  13.073  24.812
 4768CHOL    R267499   0.945  13.242  24.698
 4768CHOL    R367500   0.930  13.037  24.665
 4768CHOL    R467501   1.020  13.214  24.583
 4768CHOL    R567502   1.016  13.005  24.535
 4768CHOL    C167503   1.146  12.956  24.338
 4768CHOL    C267504   1.276  12.908  24.142
 4769CHOL   ROH67505  15.452  19.254  24.135
 4769CHOL    R167506  15.403  19.173  24.007
 4769CHOL    R267507  15.522  18.988  23.928
 4769CHOL    R367508  15.347  19.081  23.862
 4769CHOL    R467509  15.478  18.917  23.816
 4769CHOL    R567510  15.297  19.000  23.733
 4769CHOL    C167511  15.223  18.877  23.541
 4769CHOL    C267512  15.149  18.755  23.348
 4770CHOL   ROH67513  -4.177  11.276  -1.024
 4770CHOL    R167514  -4.054  11.269  -0.922
 4770CHOL    R267515  -3.987  11.067  -0.827
 4770CHOL    R367516  -3.915  11.262  -0.808
 4770CHOL    R467517  -3.879  11.061  -0.738
 4770CHOL    R567518  -3.791  11.255  -0.706
 4770CHOL    C167519  -3.606  11.246  -0.554
 4770CHOL    C267520  -3.421  11.236  -0.402
 4771CHOL   ROH67521  -1.101  12.507  23.752
 4771CHOL    R167522  -1.004  12.481  23.628
 4771CHOL    R267523  -0.772  12.480  23.655
 4771CHOL    R367524  -0.894  12.451  23.488
 4771CHOL    R467525  -0.687  12.457  23.546
 4771CHOL    R567526  -0.797  12.425  23.364
 4771CHOL    C167527  -0.650  12.386  23.178
 4771CHOL    C267528  -0.504  12.346  22.992
 4772CHOL   ROH67529  -1.250  21.733  17.537
 4772CHOL    R167530  -1.150  21.628  17.470
 4772CHOL    R267531  -0.920  21.642  17.506
 4772CHOL    R367532  -1.036  21.510  17.394
 4772CHOL    R467533  -0.832  21.551  17.447
 4772CHOL    R567534  -0.936  21.406  17.326
 4772CHOL    C167535  -0.785  21.248  17.225
 4772CHOL    C267536  -0.635  21.091  17.124
 4773CHOL   ROH67537  11.358  24.856   0.155
 4773CHOL    R167538  11.345  24.723   0.243
 4773CHOL    R267539  11.457  24.528   0.184
 4773CHOL    R367540  11.329  24.574   0.343
 4773CHOL    R467541  11.445  24.412   0.261
 4773CHOL    R567542  11.316  24.442   0.431
 4773CHOL    C167543  11.296  24.243   0.563
 4773CHOL    C267544  11.276  24.044   0.696
 4774CHOL   ROH67545  12.637  25.530   1.658
 4774CHOL    R167546  12.610  25.389   1.729
 4774CHOL    R267547  12.782  25.235   1.760
 4774CHOL    R367548  12.579  25.231   1.810
 4774CHOL    R467549  12.758  25.112   1.823
 4774CHOL    R567550  12.552  25.090   1.881
 4774CHOL    C167551  12.511  24.880   1.988
 4774CHOL    C267552  12.470  24.669   2.095
 4775CHOL   ROH67553  -0.087  16.930  -3.175
 4775CHOL    R167554   0.001  16.870  -3.056
 4775CHOL    R267555   0.203  16.969  -2.994
 4775CHOL    R367556   0.100  16.802  -2.921
 4775CHOL    R467557   0.280  16.916  -2.889
 4775CHOL    R567558   0.187  16.742  -2.802
 4775CHOL    C167559   0.319  16.652  -2.623
 4775CHOL    C267560   0.451  16.562  -2.444
 4776CHOL   ROH67561  -4.737   6.942   0.113
 4776CHOL    R167562  -4.606   6.967   0.202
 4776CHOL    R267563  -4.453   6.796   0.242
 4776CHOL    R367564  -4.459   6.996   0.301
 4776CHOL    R467565  -4.339   6.818   0.319
 4776CHOL    R567566  -4.328   7.021   0.390
 4776CHOL    C167567  -4.132   7.060   0.523
 4776CHOL    C267568  -3.936   7.098   0.656
 4777CHOL   ROH67569  15.991  -5.493   3.579
 4777CHOL    R167570  15.933  -5.354   3.634
 4777CHOL    R267571  16.033  -5.246   3.815
 4777CHOL    R367572  15.868  -5.198   3.695
 4777CHOL    R467573  15.982  -5.124   3.863
 4777CHOL    R567574  15.811  -5.059   3.750
 4777CHOL    C167575  15.724  -4.851   3.832
 4777CHOL    C267576  15.637  -4.642   3.914
 4778CHOL   ROH67577   7.415   9.779  -7.742
 4778CHOL    R167578   7.437   9.781  -7.584
 4778CHOL    R267579   7.372   9.601  -7.451
 4778CHOL    R367580   7.463   9.783  -7.405
 4778CHOL    R467581   7.392   9.602  -7.312
 4778CHOL    R567582   7.485   9.785  -7.247
 4778CHOL    C167583   7.519   9.788  -7.009
 4778CHOL    C267584   7.552   9.791  -6.772
 4779CHOL   ROH67585   0.962  -0.768  -1.075
 4779CHOL    R167586   1.039  -0.670  -0.975
 4779CHOL    R267587   1.010  -0.687  -0.744
 4779CHOL    R367588   1.126  -0.560  -0.862
 4779CHOL    R467589   1.077  -0.601  -0.656
 4779CHOL    R567590   1.204  -0.462  -0.762
 4779CHOL    C167591   1.319  -0.315  -0.612
 4779CHOL    C267592   1.435  -0.168  -0.462
 4780CHOL   ROH67593   2.854   4.890  25.561
 4780CHOL    R167594   2.919   4.935  25.422
 4780CHOL    R267595   3.031   4.781  25.286
 4780CHOL    R367596   2.992   4.986  25.266
 4780CHOL    R467597   3.088   4.821  25.165
 4780CHOL    R567598   3.057   5.030  25.126
 4780CHOL    C167599   3.155   5.098  24.918
 4780CHOL    C267600   3.253   5.165  24.709
 4781CHOL   ROH67601  11.496  17.026  26.201
 4781CHOL    R167602  11.477  16.966  26.054
 4781CHOL    R267603  11.558  16.754  25.999
 4781CHOL    R367604  11.456  16.899  25.888
 4781CHOL    R467605  11.541  16.702  25.871
 4781CHOL    R567606  11.437  16.839  25.741
 4781CHOL    C167607  11.409  16.749  25.520
 4781CHOL    C267608  11.381  16.659  25.299
 4782CHOL   ROH67609  26.751   4.160  10.116
 4782CHOL    R167610  26.600   4.212  10.113
 4782CHOL    R267611  26.551   4.440  10.106
 4782CHOL    R367612  26.429   4.270  10.110
 4782CHOL    R467613  26.418   4.485  10.103
 4782CHOL    R567614  26.278   4.322  10.106
 4782CHOL    C167615  26.051   4.399  10.102
 4782CHOL    C267616  25.824   4.477  10.097
 4783CHOL   ROH67617   2.897  22.143  -1.163
 4783CHOL    R167618   2.958  22.030  -1.067
 4783CHOL    R267619   3.071  22.088  -0.871
 4783CHOL    R367620   3.026  21.904  -0.959
 4783CHOL    R467621   3.124  21.989  -0.787
 4783CHOL    R567622   3.087  21.791  -0.863
 4783CHOL    C167623   3.178  21.622  -0.719
 4783CHOL    C267624   3.269  21.453  -0.575
 4784CHOL   ROH67625  26.655  14.026   5.260
 4784CHOL    R167626  26.505  13.989   5.301
 4784CHOL    R267627  26.334  13.989   5.142
 4784CHOL    R367628  26.336  13.948   5.347
 4784CHOL    R467629  26.202  13.957   5.178
 4784CHOL    R567630  26.186  13.911   5.388
 4784CHOL    C167631  25.960  13.857   5.449
 4784CHOL    C267632  25.735  13.802   5.511
 4785CHOL   ROH67633  18.700  25.357   8.658
 4785CHOL    R167634  18.622  25.218   8.667
 4785CHOL    R267635  18.732  25.015   8.631
 4785CHOL    R367636  18.533  25.061   8.678
 4785CHOL    R467637  18.663  24.894   8.640
 4785CHOL    R567638  18.455  24.922   8.687
 4785CHOL    C167639  18.337  24.713   8.701
 4785CHOL    C267640  18.220  24.504   8.715
 4786CHOL   ROH67641   3.536  -5.047  17.235
 4786CHOL    R167642   3.593  -4.912  17.170
 4786CHOL    R267643   3.819  -4.856  17.190
 4786CHOL    R367644   3.657  -4.761  17.097
 4786CHOL    R467645   3.869  -4.738  17.133
 4786CHOL    R567646   3.714  -4.626  17.032
 4786CHOL    C167647   3.800  -4.425  16.934
 4786CHOL    C267648   3.886  -4.223  16.836
 4787CHOL   ROH67649  -5.180   3.311   2.849
 4787CHOL    R167650  -5.044   3.371   2.908
 4787CHOL    R267651  -5.046   3.563   3.041
 4787CHOL    R367652  -4.892   3.440   2.975
 4787CHOL    R467653  -4.928   3.616   3.093
 4787CHOL    R567654  -4.756   3.500   3.035
 4787CHOL    C167655  -4.552   3.591   3.124
 4787CHOL    C267656  -4.349   3.681   3.213
 4788CHOL   ROH67657   1.448   5.658  -5.254
 4788CHOL    R167658   1.524   5.696  -5.119
 4788CHOL    R267659   1.427   5.839  -4.962
 4788CHOL    R367660   1.610   5.739  -4.966
 4788CHOL    R467661   1.494   5.872  -4.843
 4788CHOL    R567662   1.687   5.777  -4.831
 4788CHOL    C167663   1.801   5.834  -4.628
 4788CHOL    C267664   1.915   5.891  -4.425
 4789CHOL   ROH67665  -7.505  12.416   6.830
 4789CHOL    R167666  -7.349  12.395   6.861
 4789CHOL    R267667  -7.270  12.389   7.080
 4789CHOL    R367668  -7.174  12.371   6.895
 4789CHOL    R467669  -7.134  12.371   7.107
 4789CHOL    R567670  -7.019  12.350   6.926
 4789CHOL    C167671  -6.785  12.319   6.972
 4789CHOL    C267672  -6.551  12.288   7.018
 4790CHOL   ROH67673  13.137  27.427   8.008
 4790CHOL    R167674  13.107  27.271   8.028
 4790CHOL    R267675  13.237  27.141   8.172
 4790CHOL    R367676  13.074  27.096   8.049
 4790CHOL    R467677  13.211  27.005   8.189
 4790CHOL    R567678  13.044  26.940   8.069
 4790CHOL    C167679  12.999  26.706   8.098
 4790CHOL    C267680  12.955  26.472   8.128
 4791CHOL   ROH67681  22.658   1.009   1.319
 4791CHOL    R167682  22.545   1.089   1.400
 4791CHOL    R267683  22.594   1.290   1.507
 4791CHOL    R367684  22.418   1.178   1.491
 4791CHOL    R467685  22.495   1.359   1.578
 4791CHOL    R567686  22.305   1.258   1.572
 4791CHOL    C167687  22.136   1.377   1.693
 4791CHOL    C267688  21.966   1.496   1.814
 4792CHOL   ROH67689   4.221   9.829  26.830
 4792CHOL    R167690   4.267   9.823  26.677
 4792CHOL    R267691   4.490   9.784  26.620
 4792CHOL    R367692   4.319   9.815  26.505
 4792CHOL    R467693   4.530   9.779  26.486
 4792CHOL    R567694   4.365   9.809  26.351
 4792CHOL    C167695   4.434   9.799  26.122
 4792CHOL    C267696   4.503   9.790  25.892
 4793CHOL   ROH67697  14.872  19.611  -4.254
 4793CHOL    R167698  14.829  19.527  -4.125
 4793CHOL    R267699  14.774  19.301  -4.142
 4793CHOL    R367700  14.780  19.432  -3.980
 4793CHOL    R467701  14.736  19.227  -4.029
 4793CHOL    R567702  14.737  19.347  -3.851
 4793CHOL    C167703  14.672  19.221  -3.658
 4793CHOL    C267704  14.607  19.095  -3.464
 4794CHOL   ROH67705   4.085   2.597  -5.310
 4794CHOL    R167706   4.139   2.664  -5.175
 4794CHOL    R267707   4.356   2.623  -5.100
 4794CHOL    R367708   4.201   2.739  -5.023
 4794CHOL    R467709   4.404   2.681  -4.982
 4794CHOL    R567710   4.255   2.806  -4.889
 4794CHOL    C167711   4.337   2.906  -4.686
 4794CHOL    C267712   4.418   3.007  -4.484
 4795CHOL   ROH67713   7.736  27.683  11.227
 4795CHOL    R167714   7.752  27.524  11.216
 4795CHOL    R267715   7.845  27.401  11.391
 4795CHOL    R367716   7.769  27.345  11.205
 4795CHOL    R467717   7.859  27.262  11.382
 4795CHOL    R567718   7.785  27.186  11.194
 4795CHOL    C167719   7.809  26.948  11.178
 4795CHOL    C267720   7.832  26.710  11.162
 4796CHOL   ROH67721  14.415  15.801  26.151
 4796CHOL    R167722  14.379  15.745  26.005
 4796CHOL    R267723  14.502  15.571  25.910
 4796CHOL    R367724  14.339  15.683  25.842
 4796CHOL    R467725  14.471  15.522  25.783
 4796CHOL    R567726  14.303  15.627  25.696
 4796CHOL    C167727  14.250  15.543  25.478
 4796CHOL    C267728  14.196  15.460  25.259
 4797CHOL   ROH67729  12.908  27.498   8.256
 4797CHOL    R167730  12.881  27.341   8.273
 4797CHOL    R267731  13.012  27.211   8.415
 4797CHOL    R367732  12.850  27.165   8.291
 4797CHOL    R467733  12.988  27.074   8.429
 4797CHOL    R567734  12.823  27.008   8.308
 4797CHOL    C167735  12.782  26.773   8.333
 4797CHOL    C267736  12.741  26.538   8.358
 4798CHOL   ROH67737  26.151  13.036  16.501
 4798CHOL    R167738  26.004  13.008  16.445
 4798CHOL    R267739  25.943  12.796  16.369
 4798CHOL    R367740  25.839  12.976  16.381
 4798CHOL    R467741  25.815  12.771  16.320
 4798CHOL    R567742  25.691  12.948  16.325
 4798CHOL    C167743  25.471  12.905  16.241
 4798CHOL    C267744  25.250  12.863  16.156
 4799CHOL   ROH67745  -4.547  15.980   1.276
 4799CHOL    R167746  -4.415  15.924   1.347
 4799CHOL    R267747  -4.356  15.993   1.562
 4799CHOL    R367748  -4.268  15.860   1.428
 4799CHOL    R467749  -4.241  15.944   1.624
 4799CHOL    R567750  -4.136  15.804   1.499
 4799CHOL    C167751  -3.939  15.719   1.606
 4799CHOL    C267752  -3.741  15.634   1.713
 4800CHOL   ROH67753   5.886   6.776  27.027
 4800CHOL    R167754   5.920   6.807  26.874
 4800CHOL    R267755   6.140   6.806  26.797
 4800CHOL    R367756   5.958   6.841  26.701
 4800CHOL    R467757   6.170   6.833  26.663
 4800CHOL    R567758   5.992   6.871  26.548
 4800CHOL    C167759   6.043   6.917  26.318
 4800CHOL    C267760   6.094   6.963  26.088
 4801CHOL   ROH67761  26.989   8.684   5.173
 4801CHOL    R167762  26.834   8.695   5.213
 4801CHOL    R267763  26.670   8.593   5.083
 4801CHOL    R367764  26.661   8.707   5.258
 4801CHOL    R467765  26.534   8.603   5.118
 4801CHOL    R567766  26.506   8.718   5.297
 4801CHOL    C167767  26.274   8.735   5.357
 4801CHOL    C267768  26.042   8.752   5.417
 4802CHOL   ROH67769  20.410  -4.258  12.005
 4802CHOL    R167770  20.317  -4.130  11.986
 4802CHOL    R267771  20.406  -3.925  11.918
 4802CHOL    R367772  20.211  -3.985  11.965
 4802CHOL    R467773  20.324  -3.813  11.901
 4802CHOL    R567774  20.118  -3.856  11.946
 4802CHOL    C167775  19.978  -3.664  11.918
 4802CHOL    C267776  19.838  -3.471  11.890
 4803CHOL   ROH67777  11.667  12.829  27.469
 4803CHOL    R167778  11.650  12.800  27.313
 4803CHOL    R267779  11.767  12.628  27.208
 4803CHOL    R367780  11.630  12.768  27.136
 4803CHOL    R467781  11.752  12.603  27.071
 4803CHOL    R567782  11.613  12.740  26.980
 4803CHOL    C167783  11.586  12.697  26.745
 4803CHOL    C267784  11.560  12.654  26.511
 4804CHOL   ROH67785  -4.704  -0.019  12.551
 4804CHOL    R167786  -4.572   0.068  12.526
 4804CHOL    R267787  -4.374   0.022  12.639
 4804CHOL    R367788  -4.424   0.167  12.498
 4804CHOL    R467789  -4.259   0.098  12.617
 4804CHOL    R567790  -4.292   0.254  12.472
 4804CHOL    C167791  -4.095   0.385  12.435
 4804CHOL    C267792  -3.897   0.516  12.397
 4805CHOL   ROH67793   7.072  27.351   6.759
 4805CHOL    R167794   7.094  27.195   6.786
 4805CHOL    R267795   7.305  27.098   6.763
 4805CHOL    R367796   7.119  27.019   6.817
 4805CHOL    R467797   7.324  26.961   6.787
 4805CHOL    R567798   7.141  26.863   6.844
 4805CHOL    C167799   7.174  26.629   6.886
 4805CHOL    C267800   7.207  26.395   6.927
 4806CHOL   ROH67801   2.570  26.055   7.296
 4806CHOL    R167802   2.643  25.915   7.320
 4806CHOL    R267803   2.620  25.801   7.523
 4806CHOL    R367804   2.725  25.757   7.348
 4806CHOL    R467805   2.684  25.678   7.544
 4806CHOL    R567806   2.798  25.616   7.372
 4806CHOL    C167807   2.907  25.406   7.408
 4806CHOL    C267808   3.017  25.196   7.445
 4807CHOL   ROH67809   5.289   1.186  -4.984
 4807CHOL    R167810   5.332   1.266  -4.852
 4807CHOL    R267811   5.541   1.233  -4.754
 4807CHOL    R367812   5.380   1.356  -4.704
 4807CHOL    R467813   5.578   1.303  -4.639
 4807CHOL    R567814   5.422   1.436  -4.572
 4807CHOL    C167815   5.487   1.556  -4.374
 4807CHOL    C267816   5.551   1.676  -4.176
 4808CHOL   ROH67817   8.818  27.498  13.316
 4808CHOL    R167818   8.824  27.341  13.288
 4808CHOL    R267819   8.982  27.205  13.392
 4808CHOL    R367820   8.830  27.164  13.255
 4808CHOL    R467821   8.987  27.068  13.367
 4808CHOL    R567822   8.835  27.006  13.227
 4808CHOL    C167823   8.844  26.771  13.184
 4808CHOL    C267824   8.852  26.535  13.142
 4809CHOL   ROH67825   4.714  21.380  22.632
 4809CHOL    R167826   4.757  21.276  22.518
 4809CHOL    R267827   4.847  21.351  22.316
 4809CHOL    R367828   4.806  21.160  22.390
 4809CHOL    R467829   4.885  21.260  22.216
 4809CHOL    R567830   4.850  21.057  22.275
 4809CHOL    C167831   4.915  20.901  22.104
 4809CHOL    C267832   4.980  20.746  21.933
 4810CHOL   ROH67833  25.209  15.890   2.925
 4810CHOL    R167834  25.072  15.837   2.988
 4810CHOL    R267835  24.873  15.955   2.959
 4810CHOL    R367836  24.918  15.777   3.060
 4810CHOL    R467837  24.753  15.909   3.015
 4810CHOL    R567838  24.781  15.724   3.123
 4810CHOL    C167839  24.575  15.645   3.218
 4810CHOL    C267840  24.369  15.566   3.313
 4811CHOL   ROH67841  16.483  24.860  17.186
 4811CHOL    R167842  16.423  24.727  17.121
 4811CHOL    R267843  16.525  24.627  16.936
 4811CHOL    R367844  16.355  24.577  17.047
 4811CHOL    R467845  16.472  24.511  16.879
 4811CHOL    R567846  16.295  24.444  16.981
 4811CHOL    C167847  16.205  24.244  16.883
 4811CHOL    C267848  16.115  24.045  16.785
 4812CHOL   ROH67849  12.794  22.502  22.283
 4812CHOL    R167850  12.769  22.388  22.174
 4812CHOL    R267851  12.929  22.223  22.133
 4812CHOL    R367852  12.741  22.260  22.050
 4812CHOL    R467853  12.908  22.123  22.038
 4812CHOL    R567854  12.717  22.145  21.941
 4812CHOL    C167855  12.679  21.974  21.777
 4812CHOL    C267856  12.642  21.803  21.613
 4813CHOL   ROH67857  11.477  25.439   1.133
 4813CHOL    R167858  11.458  25.300   1.211
 4813CHOL    R267859  11.587  25.114   1.156
 4813CHOL    R367860  11.437  25.144   1.298
 4813CHOL    R467861  11.571  24.992   1.224
 4813CHOL    R567862  11.419  25.006   1.375
 4813CHOL    C167863  11.390  24.797   1.492
 4813CHOL    C267864  11.362  24.589   1.608
 4814CHOL   ROH67865  23.334   7.320  21.291
 4814CHOL    R167866  23.212   7.346  21.191
 4814CHOL    R267867  23.181   7.554  21.090
 4814CHOL    R367868  23.075   7.375  21.078
 4814CHOL    R467869  23.074   7.577  21.003
 4814CHOL    R567870  22.953   7.401  20.978
 4814CHOL    C167871  22.769   7.440  20.828
 4814CHOL    C267872  22.586   7.479  20.678
 4815CHOL   ROH67873   8.297   4.861  -7.054
 4815CHOL    R167874   8.307   4.906  -6.901
 4815CHOL    R267875   8.505   4.998  -6.816
 4815CHOL    R367876   8.319   4.958  -6.729
 4815CHOL    R467877   8.514   5.037  -6.682
 4815CHOL    R567878   8.330   5.003  -6.575
 4815CHOL    C167879   8.345   5.071  -6.346
 4815CHOL    C267880   8.361   5.139  -6.116
 4816CHOL   ROH67881   4.075  17.410  -5.237
 4816CHOL    R167882   4.127  17.344  -5.101
 4816CHOL    R267883   4.197  17.477  -4.922
 4816CHOL    R367884   4.186  17.270  -4.948
 4816CHOL    R467885   4.242  17.420  -4.803
 4816CHOL    R567886   4.238  17.205  -4.811
 4816CHOL    C167887   4.316  17.106  -4.607
 4816CHOL    C267888   4.394  17.007  -4.403
 4817CHOL   ROH67889  -1.922  20.170  18.672
 4817CHOL    R167890  -1.816  20.079  18.594
 4817CHOL    R267891  -1.592  20.075  18.657
 4817CHOL    R367892  -1.697  19.977  18.505
 4817CHOL    R467893  -1.499  19.995  18.588
 4817CHOL    R567894  -1.592  19.886  18.427
 4817CHOL    C167895  -1.433  19.750  18.309
 4817CHOL    C267896  -1.274  19.613  18.192
 4818CHOL   ROH67897  26.701   4.254   8.269
 4818CHOL    R167898  26.550   4.306   8.284
 4818CHOL    R267899  26.453   4.440   8.120
 4818CHOL    R367900  26.381   4.364   8.300
 4818CHOL    R467901  26.321   4.486   8.133
 4818CHOL    R567902  26.230   4.416   8.315
 4818CHOL    C167903  26.004   4.493   8.337
 4818CHOL    C267904  25.778   4.571   8.359
 4819CHOL   ROH67905  22.810   8.786  -2.278
 4819CHOL    R167906  22.692   8.793  -2.170
 4819CHOL    R267907  22.558   8.983  -2.151
 4819CHOL    R367908  22.559   8.801  -2.049
 4819CHOL    R467909  22.455   8.989  -2.057
 4819CHOL    R567910  22.441   8.808  -1.941
 4819CHOL    C167911  22.264   8.818  -1.780
 4819CHOL    C267912  22.087   8.828  -1.618
 4820CHOL   ROH67913  16.629  -0.476  -2.891
 4820CHOL    R167914  16.570  -0.380  -2.777
 4820CHOL    R267915  16.472  -0.175  -2.832
 4820CHOL    R367916  16.503  -0.272  -2.650
 4820CHOL    R467917  16.420  -0.092  -2.733
 4820CHOL    R567918  16.444  -0.176  -2.536
 4820CHOL    C167919  16.355  -0.033  -2.366
 4820CHOL    C267920  16.266   0.111  -2.195
 4821CHOL   ROH67921   5.734  -2.031  22.503
 4821CHOL    R167922   5.771  -1.921  22.393
 4821CHOL    R267923   5.938  -1.961  22.235
 4821CHOL    R367924   5.813  -1.798  22.269
 4821CHOL    R467925   5.971  -1.865  22.139
 4821CHOL    R567926   5.850  -1.688  22.159
 4821CHOL    C167927   5.906  -1.523  21.993
 4821CHOL    C267928   5.961  -1.359  21.828
 4822CHOL   ROH67929  14.951  -1.212  22.820
 4822CHOL    R167930  14.908  -1.109  22.705
 4822CHOL    R267931  14.940  -1.160  22.480
 4822CHOL    R367932  14.860  -0.993  22.577
 4822CHOL    R467933  14.902  -1.070  22.380
 4822CHOL    R567934  14.817  -0.890  22.462
 4822CHOL    C167935  14.753  -0.735  22.290
 4822CHOL    C267936  14.688  -0.581  22.118
 4823CHOL   ROH67937   7.178  27.150   5.704
 4823CHOL    R167938   7.201  26.996   5.741
 4823CHOL    R267939   7.408  26.894   5.709
 4823CHOL    R367940   7.226  26.823   5.782
 4823CHOL    R467941   7.428  26.760   5.741
 4823CHOL    R567942   7.249  26.668   5.819
 4823CHOL    C167943   7.283  26.437   5.874
 4823CHOL    C267944   7.317  26.206   5.929
 4824CHOL   ROH67945  -3.822   0.232  15.938
 4824CHOL    R167946  -3.698   0.318  15.885
 4824CHOL    R267947  -3.616   0.499  16.008
 4824CHOL    R367948  -3.559   0.415  15.826
 4824CHOL    R467949  -3.508   0.574  15.962
 4824CHOL    R567950  -3.435   0.502  15.773
 4824CHOL    C167951  -3.249   0.631  15.694
 4824CHOL    C267952  -3.063   0.760  15.615
 4825CHOL   ROH67953  26.488  16.131  12.133
 4825CHOL    R167954  26.339  16.077  12.115
 4825CHOL    R267955  26.255  16.026  11.903
 4825CHOL    R367956  26.171  16.015  12.094
 4825CHOL    R467957  26.124  15.978  11.887
 4825CHOL    R567958  26.022  15.961  12.075
 4825CHOL    C167959  25.798  15.879  12.048
 4825CHOL    C267960  25.574  15.798  12.020
 4826CHOL   ROH67961  19.515  20.023  21.134
 4826CHOL    R167962  19.427  19.935  21.033
 4826CHOL    R267963  19.525  19.819  20.857
 4826CHOL    R367964  19.327  19.837  20.920
 4826CHOL    R467965  19.448  19.742  20.769
 4826CHOL    R567966  19.239  19.750  20.819
 4826CHOL    C167967  19.106  19.618  20.669
 4826CHOL    C267968  18.973  19.487  20.518
 4827CHOL   ROH67969  26.539  10.892  16.275
 4827CHOL    R167970  26.389  10.880  16.220
 4827CHOL    R267971  26.326  10.701  16.084
 4827CHOL    R367972  26.221  10.865  16.158
 4827CHOL    R467973  26.195  10.690  16.036
 4827CHOL    R567974  26.071  10.853  16.102
 4827CHOL    C167975  25.847  10.834  16.020
 4827CHOL    C267976  25.623  10.816  15.937
 4828CHOL   ROH67977  23.744   4.380  19.576
 4828CHOL    R167978  23.619   4.427  19.488
 4828CHOL    R267979  23.593   4.355  19.268
 4828CHOL    R367980  23.478   4.481  19.389
 4828CHOL    R467981  23.483   4.396  19.191
 4828CHOL    R567982  23.353   4.528  19.301
 4828CHOL    C167983  23.166   4.599  19.170
 4828CHOL    C267984  22.979   4.670  19.038
 4829CHOL   ROH67985  -0.707  24.133   8.008
 4829CHOL    R167986  -0.614  24.004   8.027
 4829CHOL    R267987  -0.581  23.911   8.238
 4829CHOL    R367988  -0.510  23.859   8.048
 4829CHOL    R467989  -0.500  23.798   8.255
 4829CHOL    R567990  -0.417  23.730   8.067
 4829CHOL    C167991  -0.279  23.537   8.096
 4829CHOL    C267992  -0.140  23.343   8.125
 4830CHOL   ROH67993  21.629  20.819   2.111
 4830CHOL    R167994  21.526  20.720   2.184
 4830CHOL    R267995  21.571  20.492   2.201
 4830CHOL    R367996  21.411  20.609   2.265
 4830CHOL    R467997  21.481  20.405   2.264
 4830CHOL    R567998  21.308  20.510   2.338
 4830CHOL    C167999  21.154  20.362   2.447
 4830CHOL    C268000  21.000  20.213   2.556
 4831CHOL   ROH68001   8.769  22.799  -2.393
 4831CHOL    R168002   8.779  22.683  -2.283
 4831CHOL    R268003   8.946  22.688  -2.120
 4831CHOL    R368004   8.791  22.553  -2.159
 4831CHOL    R468005   8.955  22.586  -2.023
 4831CHOL    R568006   8.802  22.438  -2.049
 4831CHOL    C168007   8.817  22.264  -1.884
 4831CHOL    C268008   8.833  22.090  -1.719
 4832CHOL   ROH68009  19.930  24.574  12.133
 4832CHOL    R168010  19.841  24.442  12.116
 4832CHOL    R268011  19.901  24.275  11.965
 4832CHOL    R368012  19.741  24.294  12.097
 4832CHOL    R468013  19.823  24.160  11.951
 4832CHOL    R568014  19.652  24.162  12.080
 4832CHOL    C168015  19.518  23.964  12.055
 4832CHOL    C268016  19.384  23.766  12.030
 4833CHOL   ROH68017  -7.869   8.018  10.966
 4833CHOL    R168018  -7.711   8.038  10.953
 4833CHOL    R268019  -7.592   8.158  11.114
 4833CHOL    R368020  -7.533   8.061  10.938
 4833CHOL    R468021  -7.453   8.176  11.102
 4833CHOL    R568022  -7.375   8.082  10.925
 4833CHOL    C168023  -7.137   8.112  10.906
 4833CHOL    C268024  -6.900   8.142  10.887
 4834CHOL   ROH68025   1.704  15.679  -4.887
 4834CHOL    R168026   1.778  15.629  -4.755
 4834CHOL    R268027   1.681  15.657  -4.544
 4834CHOL    R368028   1.862  15.572  -4.605
 4834CHOL    R468029   1.746  15.612  -4.428
 4834CHOL    R568030   1.936  15.521  -4.473
 4834CHOL    C168031   2.048  15.446  -4.274
 4834CHOL    C268032   2.160  15.370  -4.076
 4835CHOL   ROH68033   7.866  27.564  12.514
 4835CHOL    R168034   7.881  27.406  12.492
 4835CHOL    R268035   7.935  27.265  12.670
 4835CHOL    R368036   7.897  27.229  12.468
 4835CHOL    R468037   7.948  27.127  12.651
 4835CHOL    R568038   7.912  27.071  12.446
 4835CHOL    C168039   7.934  26.834  12.413
 4835CHOL    C268040   7.956  26.598  12.381
 4836CHOL   ROH68041  26.015  16.323   5.807
 4836CHOL    R168042  25.871  16.261   5.840
 4836CHOL    R268043  25.748  16.151   5.675
 4836CHOL    R368044  25.710  16.191   5.877
 4836CHOL    R468045  25.622  16.097   5.704
 4836CHOL    R568046  25.566  16.128   5.910
 4836CHOL    C168047  25.350  16.035   5.959
 4836CHOL    C268048  25.135  15.942   6.009
 4837CHOL   ROH68049  14.659  26.805   6.506
 4837CHOL    R168050  14.616  26.655   6.540
 4837CHOL    R268051  14.748  26.474   6.473
 4837CHOL    R368052  14.568  26.485   6.577
 4837CHOL    R468053  14.710  26.343   6.503
 4837CHOL    R568054  14.524  26.335   6.611
 4837CHOL    C168055  14.460  26.109   6.661
 4837CHOL    C268056  14.395  25.884   6.712
 4838CHOL   ROH68057  -5.969  17.030  14.349
 4838CHOL    R168058  -5.827  16.968  14.311
 4838CHOL    R268059  -5.629  17.081  14.360
 4838CHOL    R368060  -5.666  16.898  14.268
 4838CHOL    R468061  -5.504  17.027  14.327
 4838CHOL    R568062  -5.524  16.835  14.230
 4838CHOL    C168063  -5.310  16.742  14.172
 4838CHOL    C268064  -5.097  16.649  14.115
 4839CHOL   ROH68065  16.168  20.047  -3.443
 4839CHOL    R168066  16.111  19.960  -3.321
 4839CHOL    R268067  16.130  19.728  -3.320
 4839CHOL    R368068  16.047  19.863  -3.184
 4839CHOL    R468069  16.081  19.652  -3.213
 4839CHOL    R568070  15.991  19.777  -3.061
 4839CHOL    C168071  15.905  19.647  -2.878
 4839CHOL    C268072  15.820  19.517  -2.695
 4840CHOL   ROH68073  25.399  17.168   4.935
 4840CHOL    R168074  25.260  17.100   4.975
 4840CHOL    R268075  25.151  16.954   4.830
 4840CHOL    R368076  25.104  17.023   5.021
 4840CHOL    R468077  25.029  16.894   4.865
 4840CHOL    R568078  24.965  16.954   5.061
 4840CHOL    C168079  24.757  16.852   5.122
 4840CHOL    C268080  24.548  16.750   5.183
 4841CHOL   ROH68081   2.895  23.449  19.385
 4841CHOL    R168082   2.956  23.328  19.300
 4841CHOL    R268083   3.167  23.344  19.202
 4841CHOL    R368084   3.024  23.192  19.203
 4841CHOL    R468085   3.220  23.238  19.127
 4841CHOL    R568086   3.084  23.071  19.118
 4841CHOL    C168087   3.175  22.890  18.990
 4841CHOL    C268088   3.266  22.708  18.862
 4842CHOL   ROH68089   9.947  13.656  -7.542
 4842CHOL    R168090   9.945  13.622  -7.386
 4842CHOL    R268091  10.069  13.444  -7.300
 4842CHOL    R368092   9.943  13.584  -7.210
 4842CHOL    R468093  10.067  13.415  -7.163
 4842CHOL    R568094   9.941  13.550  -7.053
 4842CHOL    C168095   9.937  13.500  -6.819
 4842CHOL    C268096   9.934  13.449  -6.585
 4843CHOL   ROH68097  12.173  18.442  25.458
 4843CHOL    R168098  12.149  18.370  25.317
 4843CHOL    R268099  12.329  18.305  25.183
 4843CHOL    R368100  12.122  18.288  25.159
 4843CHOL    R468101  12.308  18.242  25.060
 4843CHOL    R568102  12.098  18.215  25.019
 4843CHOL    C168103  12.062  18.107  24.808
 4843CHOL    C268104  12.026  17.998  24.597
 4844CHOL   ROH68105  22.039  17.198  20.769
 4844CHOL    R168106  21.932  17.135  20.668
 4844CHOL    R268107  21.998  16.986  20.501
 4844CHOL    R368108  21.812  17.065  20.553
 4844CHOL    R468109  21.905  16.931  20.412
 4844CHOL    R568110  21.705  17.002  20.452
 4844CHOL    C168111  21.545  16.908  20.300
 4844CHOL    C268112  21.385  16.814  20.148
 4845CHOL   ROH68113  -7.031   5.542   6.114
 4845CHOL    R168114  -6.880   5.585   6.146
 4845CHOL    R268115  -6.831   5.723   6.328
 4845CHOL    R368116  -6.711   5.633   6.183
 4845CHOL    R468117  -6.699   5.761   6.357
 4845CHOL    R568118  -6.560   5.676   6.216
 4845CHOL    C168119  -6.334   5.741   6.264
 4845CHOL    C268120  -6.108   5.806   6.313
 4846CHOL   ROH68121   6.589   9.866  -7.609
 4846CHOL    R168122   6.618   9.867  -7.452
 4846CHOL    R268123   6.596  10.064  -7.327
 4846CHOL    R368124   6.651   9.869  -7.275
 4846CHOL    R468125   6.621  10.065  -7.190
 4846CHOL    R568126   6.680   9.871  -7.117
 4846CHOL    C168127   6.723   9.873  -6.882
 4846CHOL    C268128   6.766   9.875  -6.646
 4847CHOL   ROH68129  11.020  24.962   0.271
 4847CHOL    R168130  11.010  24.829   0.359
 4847CHOL    R268131  11.142  24.643   0.311
 4847CHOL    R368132  10.999  24.679   0.458
 4847CHOL    R468133  11.134  24.526   0.388
 4847CHOL    R568134  10.989  24.546   0.546
 4847CHOL    C168135  10.974  24.346   0.679
 4847CHOL    C268136  10.959  24.147   0.811
 4848CHOL   ROH68137  18.064   3.048  24.191
 4848CHOL    R168138  17.989   3.110  24.064
 4848CHOL    R268139  18.053   3.316  23.975
 4848CHOL    R368140  17.905   3.179  23.921
 4848CHOL    R468141  17.987   3.370  23.864
 4848CHOL    R568142  17.830   3.241  23.793
 4848CHOL    C168143  17.718   3.333  23.603
 4848CHOL    C268144  17.605   3.425  23.412
 4849CHOL   ROH68145   5.737  -3.523  20.868
 4849CHOL    R168146   5.775  -3.403  20.769
 4849CHOL    R268147   5.925  -3.435  20.593
 4849CHOL    R368148   5.818  -3.268  20.658
 4849CHOL    R468149   5.958  -3.330  20.506
 4849CHOL    R568150   5.856  -3.148  20.559
 4849CHOL    C168151   5.912  -2.968  20.411
 4849CHOL    C268152   5.969  -2.788  20.262
 4850CHOL   ROH68153   0.824  20.608  -1.291
 4850CHOL    R168154   0.906  20.512  -1.192
 4850CHOL    R268155   1.137  20.493  -1.208
 4850CHOL    R368156   0.997  20.404  -1.082
 4850CHOL    R468157   1.209  20.409  -1.122
 4850CHOL    R568158   1.079  20.307  -0.983
 4850CHOL    C168159   1.201  20.163  -0.835
 4850CHOL    C268160   1.324  20.019  -0.687
 4851CHOL   ROH68161  24.422  17.405   2.685
 4851CHOL    R168162  24.291  17.339   2.750
 4851CHOL    R268163  24.082  17.363   2.649
 4851CHOL    R368164  24.145  17.264   2.822
 4851CHOL    R468165  23.968  17.305   2.705
 4851CHOL    R568166  24.014  17.198   2.887
 4851CHOL    C168167  23.818  17.099   2.984
 4851CHOL    C268168  23.622  16.999   3.081
 4852CHOL   ROH68169  19.081   7.940  -5.168
 4852CHOL    R168170  19.001   7.960  -5.031
 4852CHOL    R268171  19.004   8.165  -4.919
 4852CHOL    R368172  18.910   7.983  -4.877
 4852CHOL    R468173  18.933   8.182  -4.800
 4852CHOL    R568174  18.829   8.003  -4.740
 4852CHOL    C168175  18.709   8.033  -4.535
 4852CHOL    C268176  18.588   8.063  -4.330
 4853CHOL   ROH68177  24.512  16.487  17.904
 4853CHOL    R168178  24.379  16.431  17.835
 4853CHOL    R268179  24.389  16.288  17.652
 4853CHOL    R368180  24.228  16.369  17.758
 4853CHOL    R468181  24.272  16.239  17.592
 4853CHOL    R568182  24.095  16.313  17.690
 4853CHOL    C168183  23.895  16.230  17.587
 4853CHOL    C268184  23.695  16.147  17.484
 4854CHOL   ROH68185  -4.339   2.341   2.085
 4854CHOL    R168186  -4.212   2.410   2.153
 4854CHOL    R268187  -4.020   2.287   2.202
 4854CHOL    R368188  -4.069   2.488   2.230
 4854CHOL    R468189  -3.909   2.347   2.261
 4854CHOL    R568190  -3.942   2.557   2.298
 4854CHOL    C168191  -3.751   2.661   2.400
 4854CHOL    C268192  -3.560   2.764   2.502
 4855CHOL   ROH68193  21.496  20.116  18.902
 4855CHOL    R168194  21.392  20.022  18.825
 4855CHOL    R268195  21.466  19.856  18.679
 4855CHOL    R368196  21.275  19.916  18.737
 4855CHOL    R468197  21.376  19.774  18.611
 4855CHOL    R568198  21.171  19.823  18.660
 4855CHOL    C168199  21.016  19.682  18.544
 4855CHOL    C268200  20.860  19.541  18.428
 4856CHOL   ROH68201  10.635  22.490  -2.738
 4856CHOL    R168202  10.630  22.378  -2.623
 4856CHOL    R268203  10.807  22.350  -2.475
 4856CHOL    R368204  10.623  22.253  -2.494
 4856CHOL    R468205  10.803  22.252  -2.375
 4856CHOL    R568206  10.618  22.142  -2.379
 4856CHOL    C168207  10.610  21.974  -2.207
 4856CHOL    C268208  10.602  21.807  -2.035
 4857CHOL   ROH68209  -6.140  17.975  10.077
 4857CHOL    R168210  -5.996  17.906  10.074
 4857CHOL    R268211  -5.942  17.734  10.222
 4857CHOL    R368212  -5.834  17.827  10.070
 4857CHOL    R468213  -5.816  17.674  10.220
 4857CHOL    R568214  -5.689  17.758  10.067
 4857CHOL    C168215  -5.473  17.654  10.062
 4857CHOL    C268216  -5.257  17.550  10.057
 4858CHOL   ROH68217   8.049   7.379  -7.611
 4858CHOL    R168218   8.064   7.404  -7.454
 4858CHOL    R268219   8.092   7.226  -7.306
 4858CHOL    R368220   8.080   7.432  -7.277
 4858CHOL    R468221   8.105   7.248  -7.168
 4858CHOL    R568222   8.094   7.458  -7.119
 4858CHOL    C168223   8.116   7.495  -6.884
 4858CHOL    C268224   8.138   7.533  -6.648
 4859CHOL   ROH68225  26.685  12.115   4.309
 4859CHOL    R168226  26.534  12.101   4.360
 4859CHOL    R268227  26.407  11.912   4.309
 4859CHOL    R368228  26.364  12.085   4.417
 4859CHOL    R468229  26.275  11.900   4.353
 4859CHOL    R568230  26.213  12.071   4.468
 4859CHOL    C168231  25.986  12.050   4.544
 4859CHOL    C268232  25.760  12.029   4.620
 4860CHOL   ROH68233   9.147  27.808   9.857
 4860CHOL    R168234   9.152  27.648   9.858
 4860CHOL    R268235   9.330  27.533   9.761
 4860CHOL    R368236   9.157  27.468   9.859
 4860CHOL    R468237   9.334  27.393   9.761
 4860CHOL    R568238   9.162  27.308   9.859
 4860CHOL    C168239   9.169  27.068   9.861
 4860CHOL    C268240   9.176  26.828   9.862
 4861CHOL   ROH68241  16.698  -6.316   7.621
 4861CHOL    R168242  16.636  -6.170   7.643
 4861CHOL    R268243  16.773  -5.989   7.698
 4861CHOL    R368244  16.567  -6.006   7.668
 4861CHOL    R468245  16.719  -5.861   7.717
 4861CHOL    R568246  16.506  -5.860   7.689
 4861CHOL    C168247  16.413  -5.640   7.722
 4861CHOL    C268248  16.321  -5.421   7.755
 4862CHOL   ROH68249  25.101   1.240   6.919
 4862CHOL    R168250  24.964   1.319   6.944
 4862CHOL    R268251  24.858   1.433   6.770
 4862CHOL    R368252  24.810   1.407   6.972
 4862CHOL    R468253  24.738   1.502   6.792
 4862CHOL    R568254  24.673   1.486   6.997
 4862CHOL    C168255  24.467   1.603   7.034
 4862CHOL    C268256  24.261   1.721   7.071
 4863CHOL   ROH68257  26.496   3.611  11.140
 4863CHOL    R168258  26.347   3.667  11.128
 4863CHOL    R268259  26.302   3.866  11.015
 4863CHOL    R368260  26.178   3.730  11.114
 4863CHOL    R468261  26.171   3.915  11.004
 4863CHOL    R568262  26.029   3.786  11.102
 4863CHOL    C168263  25.805   3.870  11.084
 4863CHOL    C268264  25.581   3.954  11.066
 4864CHOL   ROH68265  10.776  -1.029  23.948
 4864CHOL    R168266  10.764  -0.927  23.825
 4864CHOL    R268267  10.902  -0.740  23.810
 4864CHOL    R368268  10.749  -0.812  23.687
 4864CHOL    R468269  10.891  -0.651  23.702
 4864CHOL    R568270  10.737  -0.711  23.565
 4864CHOL    C168271  10.718  -0.558  23.380
 4864CHOL    C268272  10.700  -0.405  23.196
 4865CHOL   ROH68273  24.575  10.516  20.052
 4865CHOL    R168274  24.443  10.514  19.961
 4865CHOL    R268275  24.435  10.632  19.760
 4865CHOL    R368276  24.296  10.512  19.859
 4865CHOL    R468277  24.320  10.630  19.680
 4865CHOL    R568278  24.164  10.509  19.767
 4865CHOL    C168279  23.967  10.506  19.631
 4865CHOL    C268280  23.769  10.503  19.494
 4866CHOL   ROH68281  -1.591  15.736  -2.527
 4866CHOL    R168282  -1.491  15.686  -2.413
 4866CHOL    R268283  -1.561  15.534  -2.250
 4866CHOL    R368284  -1.378  15.629  -2.285
 4866CHOL    R468285  -1.473  15.490  -2.150
 4866CHOL    R568286  -1.278  15.578  -2.170
 4866CHOL    C168287  -1.127  15.503  -1.999
 4866CHOL    C268288  -0.977  15.427  -1.828
 4867CHOL   ROH68289  -3.857   2.113  18.270
 4867CHOL    R168290  -3.735   2.185  18.195
 4867CHOL    R268291  -3.562   2.061  18.101
 4867CHOL    R368292  -3.598   2.266  18.112
 4867CHOL    R468293  -3.455   2.124  18.036
 4867CHOL    R568294  -3.476   2.338  18.037
 4867CHOL    C168295  -3.293   2.446  17.925
 4867CHOL    C268296  -3.110   2.554  17.813
 4868CHOL   ROH68297  -1.299  10.934  23.832
 4868CHOL    R168298  -1.200  10.922  23.707
 4868CHOL    R268299  -0.976  10.864  23.737
 4868CHOL    R368300  -1.088  10.910  23.566
 4868CHOL    R468301  -0.889  10.854  23.627
 4868CHOL    R568302  -0.989  10.898  23.442
 4868CHOL    C168303  -0.840  10.881  23.254
 4868CHOL    C268304  -0.691  10.863  23.067
 4869CHOL   ROH68305  16.977  -5.168   3.853
 4869CHOL    R168306  16.913  -5.032   3.907
 4869CHOL    R268307  17.045  -4.873   4.017
 4869CHOL    R368308  16.842  -4.878   3.968
 4869CHOL    R468309  16.989  -4.753   4.064
 4869CHOL    R568310  16.778  -4.742   4.022
 4869CHOL    C168311  16.682  -4.537   4.103
 4869CHOL    C268312  16.587  -4.332   4.184
 4870CHOL   ROH68313  -3.290   4.133  -0.688
 4870CHOL    R168314  -3.174   4.185  -0.591
 4870CHOL    R268315  -3.179   4.138  -0.362
 4870CHOL    R368316  -3.044   4.244  -0.481
 4870CHOL    R468317  -3.078   4.183  -0.277
 4870CHOL    R568318  -2.928   4.296  -0.384
 4870CHOL    C168319  -2.754   4.374  -0.237
 4870CHOL    C268320  -2.580   4.452  -0.091
 4871CHOL   ROH68321   8.524   7.035  -7.591
 4871CHOL    R168322   8.535   7.063  -7.434
 4871CHOL    R268323   8.742   7.100  -7.333
 4871CHOL    R368324   8.548   7.096  -7.257
 4871CHOL    R468325   8.752   7.125  -7.196
 4871CHOL    R568326   8.559   7.124  -7.100
 4871CHOL    C168327   8.576   7.167  -6.864
 4871CHOL    C268328   8.593   7.209  -6.629
 4872CHOL   ROH68329  -0.077  21.358  19.513
 4872CHOL    R168330   0.013  21.258  19.427
 4872CHOL    R268331   0.205  21.161  19.518
 4872CHOL    R368332   0.114  21.144  19.330
 4872CHOL    R468333   0.283  21.073  19.443
 4872CHOL    R568334   0.204  21.044  19.245
 4872CHOL    C168335   0.340  20.893  19.116
 4872CHOL    C268336   0.475  20.743  18.987
 4873CHOL   ROH68337   7.096  -7.261   6.224
 4873CHOL    R168338   7.120  -7.106   6.256
 4873CHOL    R268339   7.312  -6.996   6.182
 4873CHOL    R368340   7.147  -6.932   6.292
 4873CHOL    R468341   7.333  -6.861   6.210
 4873CHOL    R568342   7.170  -6.777   6.324
 4873CHOL    C168343   7.206  -6.545   6.372
 4873CHOL    C268344   7.242  -6.312   6.420
 4874CHOL   ROH68345  22.498  -2.646  10.223
 4874CHOL    R168346  22.386  -2.532  10.222
 4874CHOL    R268347  22.236  -2.514  10.044
 4874CHOL    R368348  22.260  -2.404  10.220
 4874CHOL    R468349  22.137  -2.414  10.043
 4874CHOL    R568350  22.147  -2.289  10.219
 4874CHOL    C168351  21.979  -2.118  10.217
 4874CHOL    C268352  21.811  -1.947  10.215
 4875CHOL   ROH68353  -6.931   4.010  10.480
 4875CHOL    R168354  -6.780   4.063  10.475
 4875CHOL    R268355  -6.600   3.918  10.502
 4875CHOL    R368356  -6.611   4.124  10.470
 4875CHOL    R468357  -6.468   3.964  10.498
 4875CHOL    R568358  -6.460   4.177  10.465
 4875CHOL    C168359  -6.234   4.257  10.458
 4875CHOL    C268360  -6.008   4.337  10.451
 4876CHOL   ROH68361   4.844  13.326  -6.902
 4876CHOL    R168362   4.889  13.297  -6.751
 4876CHOL    R268363   4.734  13.233  -6.590
 4876CHOL    R368364   4.941  13.264  -6.582
 4876CHOL    R468365   4.774  13.207  -6.458
 4876CHOL    R568366   4.986  13.235  -6.431
 4876CHOL    C168367   5.054  13.191  -6.206
 4876CHOL    C268368   5.122  13.148  -5.980
 4877CHOL   ROH68369  14.717  22.059  22.170
 4877CHOL    R168370  14.676  21.948  22.062
 4877CHOL    R268371  14.796  21.923  21.864
 4877CHOL    R368372  14.630  21.823  21.941
 4877CHOL    R468373  14.760  21.826  21.769
 4877CHOL    R568374  14.589  21.711  21.834
 4877CHOL    C168375  14.528  21.545  21.672
 4877CHOL    C268376  14.467  21.378  21.510
 4878CHOL   ROH68377  17.335  26.108  10.556
 4878CHOL    R168378  17.265  25.964  10.552
 4878CHOL    R268379  17.387  25.770  10.596
 4878CHOL    R368380  17.186  25.802  10.546
 4878CHOL    R468381  17.325  25.644  10.592
 4878CHOL    R568382  17.117  25.659  10.542
 4878CHOL    C168383  17.012  25.443  10.535
 4878CHOL    C268384  16.907  25.227  10.529
 4879CHOL   ROH68385  -0.955  21.875  17.748
 4879CHOL    R168386  -0.857  21.769  17.679
 4879CHOL    R268387  -0.628  21.770  17.726
 4879CHOL    R368388  -0.746  21.651  17.601
 4879CHOL    R468389  -0.542  21.678  17.666
 4879CHOL    R568390  -0.647  21.545  17.533
 4879CHOL    C168391  -0.500  21.387  17.429
 4879CHOL    C268392  -0.352  21.228  17.326
 4880CHOL   ROH68393  -7.429  13.417   7.291
 4880CHOL    R168394  -7.274  13.388   7.319
 4880CHOL    R268395  -7.175  13.446   7.521
 4880CHOL    R368396  -7.100  13.354   7.349
 4880CHOL    R468397  -7.039  13.421   7.545
 4880CHOL    R568398  -6.945  13.325   7.377
 4880CHOL    C168399  -6.713  13.281   7.418
 4880CHOL    C268400  -6.480  13.237   7.460
 4881CHOL   ROH68401  -1.172  -0.506   0.566
 4881CHOL    R168402  -1.077  -0.413   0.655
 4881CHOL    R268403  -0.916  -0.505   0.796
 4881CHOL    R368404  -0.970  -0.308   0.755
 4881CHOL    R468405  -0.833  -0.424   0.874
 4881CHOL    R568406  -0.876  -0.215   0.844
 4881CHOL    C168407  -0.733  -0.075   0.977
 4881CHOL    C268408  -0.591   0.064   1.111
 4882CHOL   ROH68409  -7.353  12.939  13.801
 4882CHOL    R168410  -7.199  12.914  13.765
 4882CHOL    R268411  -7.033  12.939  13.927
 4882CHOL    R368412  -7.026  12.885  13.726
 4882CHOL    R468413  -6.898  12.917  13.896
 4882CHOL    R568414  -6.872  12.860  13.690
 4882CHOL    C168415  -6.641  12.821  13.637
 4882CHOL    C268416  -6.410  12.783  13.583
 4883CHOL   ROH68417   9.512   4.150  -6.881
 4883CHOL    R168418   9.515   4.201  -6.729
 4883CHOL    R268419   9.716   4.225  -6.614
 4883CHOL    R368420   9.518   4.258  -6.559
 4883CHOL    R468421   9.719   4.270  -6.482
 4883CHOL    R568422   9.520   4.309  -6.407
 4883CHOL    C168423   9.525   4.386  -6.179
 4883CHOL    C268424   9.529   4.463  -5.952
 4884CHOL   ROH68425   1.356  -1.685  -0.447
 4884CHOL    R168426   1.431  -1.582  -0.350
 4884CHOL    R268427   1.664  -1.577  -0.338
 4884CHOL    R368428   1.516  -1.466  -0.242
 4884CHOL    R468429   1.730  -1.487  -0.254
 4884CHOL    R568430   1.591  -1.363  -0.145
 4884CHOL    C168431   1.704  -1.208   0.000
 4884CHOL    C268432   1.817  -1.054   0.145
 4885CHOL   ROH68433  15.858  -4.634   1.625
 4885CHOL    R168434  15.804  -4.502   1.698
 4885CHOL    R268435  15.931  -4.307   1.704
 4885CHOL    R368436  15.742  -4.355   1.780
 4885CHOL    R468437  15.883  -4.192   1.768
 4885CHOL    R568438  15.688  -4.223   1.854
 4885CHOL    C168439  15.606  -4.026   1.963
 4885CHOL    C268440  15.525  -3.828   2.073
 4886CHOL   ROH68441  -6.684  16.719   9.191
 4886CHOL    R168442  -6.536  16.659   9.197
 4886CHOL    R268443  -6.353  16.797   9.243
 4886CHOL    R368444  -6.369  16.592   9.204
 4886CHOL    R468445  -6.223  16.744   9.249
 4886CHOL    R568446  -6.221  16.533   9.209
 4886CHOL    C168447  -5.998  16.443   9.218
 4886CHOL    C268448  -5.776  16.353   9.227
 4887CHOL   ROH68449  13.937  -1.558  -3.045
 4887CHOL    R168450  13.900  -1.454  -2.929
 4887CHOL    R268451  14.016  -1.253  -2.907
 4887CHOL    R368452  13.858  -1.337  -2.799
 4887CHOL    R468453  13.984  -1.162  -2.806
 4887CHOL    R568454  13.821  -1.233  -2.684
 4887CHOL    C168455  13.765  -1.077  -2.510
 4887CHOL    C268456  13.710  -0.921  -2.336
 4888CHOL   ROH68457  -0.476  -0.460  20.076
 4888CHOL    R168458  -0.383  -0.369  19.983
 4888CHOL    R268459  -0.152  -0.364  20.013
 4888CHOL    R368460  -0.278  -0.267  19.878
 4888CHOL    R468461  -0.070  -0.285  19.931
 4888CHOL    R568462  -0.185  -0.176  19.785
 4888CHOL    C168463  -0.045  -0.039  19.646
 4888CHOL    C268464   0.094   0.098  19.507
 4889CHOL   ROH68465  -1.317  21.881  17.198
 4889CHOL    R168466  -1.216  21.775  17.134
 4889CHOL    R268467  -0.989  21.779  17.185
 4889CHOL    R368468  -1.103  21.655  17.061
 4889CHOL    R468469  -0.900  21.686  17.128
 4889CHOL    R568470  -1.002  21.549  16.997
 4889CHOL    C168471  -0.851  21.390  16.901
 4889CHOL    C268472  -0.700  21.230  16.804
 4890CHOL   ROH68473  25.672   2.574  13.723
 4890CHOL    R168474  25.530   2.639  13.690
 4890CHOL    R268475  25.409   2.574  13.501
 4890CHOL    R368476  25.369   2.712  13.653
 4890CHOL    R468477  25.285   2.631  13.472
 4890CHOL    R568478  25.227   2.777  13.620
 4890CHOL    C168479  25.013   2.874  13.570
 4890CHOL    C268480  24.800   2.972  13.520
 4891CHOL   ROH68481   8.507  -6.943  15.550
 4891CHOL    R168482   8.520  -6.793  15.496
 4891CHOL    R268483   8.722  -6.676  15.514
 4891CHOL    R368484   8.535  -6.624  15.436
 4891CHOL    R468485   8.733  -6.545  15.467
 4891CHOL    R568486   8.548  -6.474  15.382
 4891CHOL    C168487   8.568  -6.248  15.302
 4891CHOL    C268488   8.588  -6.023  15.222
 4892CHOL   ROH68489  17.839  15.275  24.995
 4892CHOL    R168490  17.762  15.227  24.863
 4892CHOL    R268491  17.737  15.368  24.680
 4892CHOL    R368492  17.675  15.172  24.716
 4892CHOL    R468493  17.669  15.326  24.565
 4892CHOL    R568494  17.598  15.123  24.584
 4892CHOL    C168495  17.482  15.051  24.387
 4892CHOL    C268496  17.367  14.978  24.189
 4893CHOL   ROH68497  11.518  27.032   4.952
 4893CHOL    R168498  11.499  26.880   4.997
 4893CHOL    R268499  11.603  26.798   5.189
 4893CHOL    R368500  11.478  26.708   5.048
 4893CHOL    R468501  11.586  26.664   5.229
 4893CHOL    R568502  11.459  26.556   5.092
 4893CHOL    C168503  11.431  26.328   5.160
 4893CHOL    C268504  11.402  26.099   5.227
 4894CHOL   ROH68505  10.533  14.733  -7.253
 4894CHOL    R168506  10.525  14.689  -7.099
 4894CHOL    R268507  10.614  14.486  -7.028
 4894CHOL    R368508  10.517  14.640  -6.926
 4894CHOL    R468509  10.607  14.448  -6.893
 4894CHOL    R568510  10.509  14.596  -6.773
 4894CHOL    C168511  10.497  14.531  -6.542
 4894CHOL    C268512  10.486  14.465  -6.311
 4895CHOL   ROH68513  10.661  26.909   4.279
 4895CHOL    R168514  10.650  26.757   4.328
 4895CHOL    R268515  10.681  26.700   4.552
 4895CHOL    R368516  10.638  26.586   4.382
 4895CHOL    R468517  10.672  26.567   4.594
 4895CHOL    R568518  10.626  26.434   4.431
 4895CHOL    C168519  10.610  26.206   4.504
 4895CHOL    C268520  10.593  25.978   4.577
 4896CHOL   ROH68521  -7.861   8.425   8.017
 4896CHOL    R168522  -7.703   8.437   8.038
 4896CHOL    R268523  -7.609   8.618   8.151
 4896CHOL    R368524  -7.525   8.449   8.061
 4896CHOL    R468525  -7.471   8.628   8.169
 4896CHOL    R568526  -7.366   8.461   8.082
 4896CHOL    C168527  -7.129   8.478   8.113
 4896CHOL    C268528  -6.892   8.496   8.144
 4897CHOL   ROH68529  24.028   2.806  18.170
 4897CHOL    R168530  23.902   2.868  18.094
 4897CHOL    R268531  23.929   2.994  17.900
 4897CHOL    R368532  23.760   2.938  18.008
 4897CHOL    R468533  23.819   3.049  17.833
 4897CHOL    R568534  23.634   2.999  17.932
 4897CHOL    C168535  23.444   3.092  17.817
 4897CHOL    C268536  23.255   3.185  17.703
 4898CHOL   ROH68537  19.078  -5.281  10.477
 4898CHOL    R168538  18.996  -5.144  10.471
 4898CHOL    R268539  19.090  -4.953  10.375
 4898CHOL    R368540  18.904  -4.989  10.463
 4898CHOL    R468541  19.018  -4.832  10.369
 4898CHOL    R568542  18.822  -4.851  10.457
 4898CHOL    C168543  18.700  -4.645  10.447
 4898CHOL    C268544  18.577  -4.439  10.438
 4899CHOL   ROH68545   1.062  12.807  -5.286
 4899CHOL    R168546   1.144  12.784  -5.150
 4899CHOL    R268547   1.158  12.952  -4.989
 4899CHOL    R368548   1.235  12.758  -4.998
 4899CHOL    R468549   1.230  12.932  -4.870
 4899CHOL    R568550   1.317  12.735  -4.862
 4899CHOL    C168551   1.439  12.700  -4.658
 4899CHOL    C268552   1.562  12.666  -4.455
 4900CHOL   ROH68553  22.780  -2.047  12.551
 4900CHOL    R168554  22.665  -1.939  12.525
 4900CHOL    R268555  22.684  -1.783  12.353
 4900CHOL    R368556  22.535  -1.818  12.495
 4900CHOL    R468557  22.583  -1.688  12.330
 4900CHOL    R568558  22.420  -1.710  12.468
 4900CHOL    C168559  22.246  -1.549  12.429
 4900CHOL    C268560  22.073  -1.387  12.389
 4901CHOL   ROH68561  14.659   5.993  -6.794
 4901CHOL    R168562  14.610   6.029  -6.646
 4901CHOL    R268563  14.544   6.246  -6.591
 4901CHOL    R368564  14.555   6.070  -6.479
 4901CHOL    R468565  14.501   6.277  -6.461
 4901CHOL    R568566  14.506   6.106  -6.331
 4901CHOL    C168567  14.433   6.160  -6.109
 4901CHOL    C268568  14.360   6.214  -5.887
 4902CHOL   ROH68569  24.962   4.109  17.455
 4902CHOL    R168570  24.826   4.156  17.385
 4902CHOL    R268571  24.779   4.383  17.354
 4902CHOL    R368572  24.673   4.209  17.307
 4902CHOL    R468573  24.660   4.424  17.293
 4902CHOL    R568574  24.537   4.256  17.237
 4902CHOL    C168575  24.332   4.327  17.133
 4902CHOL    C268576  24.128   4.398  17.029
 4903CHOL   ROH68577  14.321  -2.570  -1.913
 4903CHOL    R168578  14.279  -2.457  -1.807
 4903CHOL    R268579  14.441  -2.331  -1.696
 4903CHOL    R368580  14.232  -2.330  -1.689
 4903CHOL    R468581  14.404  -2.233  -1.603
 4903CHOL    R568582  14.191  -2.218  -1.583
 4903CHOL    C168583  14.128  -2.048  -1.425
 4903CHOL    C268584  14.065  -1.879  -1.266
 4904CHOL   ROH68585   1.055  14.649  24.702
 4904CHOL    R168586   1.138  14.606  24.572
 4904CHOL    R268587   1.254  14.404  24.565
 4904CHOL    R368588   1.231  14.559  24.426
 4904CHOL    R468589   1.327  14.367  24.451
 4904CHOL    R568590   1.315  14.516  24.296
 4904CHOL    C168591   1.439  14.452  24.101
 4904CHOL    C268592   1.564  14.388  23.906
 4905CHOL   ROH68593  27.195  11.049  13.970
 4905CHOL    R168594  27.039  11.037  13.935
 4905CHOL    R268595  26.928  11.210  13.824
 4905CHOL    R368596  26.864  11.025  13.896
 4905CHOL    R468597  26.792  11.200  13.794
 4905CHOL    R568598  26.709  11.013  13.861
 4905CHOL    C168599  26.475  10.996  13.808
 4905CHOL    C268600  26.241  10.978  13.755
 4906CHOL   ROH68601  23.492  21.453   8.559
 4906CHOL    R168602  23.366  21.356   8.575
 4906CHOL    R268603  23.187  21.365   8.425
 4906CHOL    R368604  23.224  21.246   8.592
 4906CHOL    R468605  23.077  21.280   8.439
 4906CHOL    R568606  23.098  21.149   8.608
 4906CHOL    C168607  22.909  21.003   8.632
 4906CHOL    C268608  22.720  20.857   8.655
 4907CHOL   ROH68609   5.881  27.256  12.423
 4907CHOL    R168610   5.917  27.102  12.400
 4907CHOL    R268611   6.008  26.973  12.572
 4907CHOL    R368612   5.959  26.929  12.374
 4907CHOL    R468613   6.040  26.839  12.552
 4907CHOL    R568614   5.995  26.775  12.351
 4907CHOL    C168615   6.050  26.543  12.317
 4907CHOL    C268616   6.104  26.312  12.283
 4908CHOL   ROH68617  11.188  12.294  27.602
 4908CHOL    R168618  11.176  12.271  27.444
 4908CHOL    R268619  11.267  12.081  27.343
 4908CHOL    R368620  11.163  12.245  27.266
 4908CHOL    R468621  11.256  12.061  27.205
 4908CHOL    R568622  11.151  12.222  27.108
 4908CHOL    C168623  11.133  12.187  26.872
 4908CHOL    C268624  11.115  12.153  26.635
 4909CHOL   ROH68625  13.794   4.725  -6.679
 4909CHOL    R168626  13.760   4.774  -6.531
 4909CHOL    R268627  13.680   4.989  -6.490
 4909CHOL    R368628  13.721   4.828  -6.363
 4909CHOL    R468629  13.651   5.032  -6.360
 4909CHOL    R568630  13.687   4.877  -6.215
 4909CHOL    C168631  13.636   4.950  -5.992
 4909CHOL    C268632  13.584   5.023  -5.770
 4910CHOL   ROH68633  21.448   1.946  20.822
 4910CHOL    R168634  21.345   2.016  20.722
 4910CHOL    R268635  21.400   2.053  20.499
 4910CHOL    R368636  21.229   2.096  20.610
 4910CHOL    R468637  21.310   2.115  20.411
 4910CHOL    R568638  21.126   2.166  20.510
 4910CHOL    C168639  20.971   2.272  20.360
 4910CHOL    C268640  20.816   2.377  20.210
 4911CHOL   ROH68641   2.210  19.536  -3.149
 4911CHOL    R168642   2.280  19.453  -3.031
 4911CHOL    R268643   2.175  19.426  -2.825
 4911CHOL    R368644   2.359  19.360  -2.899
 4911CHOL    R468645   2.236  19.354  -2.722
 4911CHOL    R568646   2.429  19.278  -2.781
 4911CHOL    C168647   2.533  19.153  -2.604
 4911CHOL    C268648   2.638  19.029  -2.428
 4912CHOL   ROH68649   6.181  -7.351  12.089
 4912CHOL    R168650   6.213  -7.195  12.070
 4912CHOL    R268651   6.244  -7.056  12.255
 4912CHOL    R368652   6.248  -7.020  12.050
 4912CHOL    R468653   6.272  -6.920  12.239
 4912CHOL    R568654   6.280  -6.864  12.031
 4912CHOL    C168655   6.328  -6.631  12.003
 4912CHOL    C268656   6.375  -6.397  11.975
 4913CHOL   ROH68657  24.481  15.238   1.136
 4913CHOL    R168658  24.350  15.192   1.215
 4913CHOL    R268659  24.147  15.164   1.104
 4913CHOL    R368660  24.202  15.140   1.304
 4913CHOL    R468661  24.032  15.123   1.174
 4913CHOL    R568662  24.071  15.094   1.383
 4913CHOL    C168663  23.874  15.025   1.502
 4913CHOL    C268664  23.677  14.956   1.621
 4914CHOL   ROH68665  20.113  16.499  -3.145
 4914CHOL    R168666  20.023  16.441  -3.026
 4914CHOL    R268667  19.799  16.386  -3.060
 4914CHOL    R368668  19.923  16.376  -2.892
 4914CHOL    R468669  19.721  16.335  -2.956
 4914CHOL    R568670  19.833  16.317  -2.773
 4914CHOL    C168671  19.699  16.230  -2.594
 4914CHOL    C268672  19.564  16.143  -2.415
 4915CHOL   ROH68673  25.561  12.493  18.072
 4915CHOL    R168674  25.419  12.470  18.002
 4915CHOL    R268675  25.395  12.323  17.823
 4915CHOL    R368676  25.259  12.445  17.924
 4915CHOL    R468677  25.271  12.303  17.762
 4915CHOL    R568678  25.117  12.422  17.854
 4915CHOL    C168679  24.903  12.388  17.749
 4915CHOL    C268680  24.690  12.354  17.645
 4916CHOL   ROH68681  -0.090  24.779  10.583
 4916CHOL    R168682  -0.002  24.645  10.585
 4916CHOL    R268683   0.203  24.636  10.474
 4916CHOL    R368684   0.097  24.495  10.586
 4916CHOL    R468685   0.280  24.519  10.476
 4916CHOL    R568686   0.185  24.361  10.588
 4916CHOL    C168687   0.317  24.161  10.590
 4916CHOL    C268688   0.449  23.961  10.593
 4917CHOL   ROH68689  16.052  -0.576  22.920
 4917CHOL    R168690  15.999  -0.478  22.805
 4917CHOL    R268691  16.021  -0.536  22.580
 4917CHOL    R368692  15.940  -0.368  22.675
 4917CHOL    R468693  15.974  -0.450  22.479
 4917CHOL    R568694  15.887  -0.270  22.560
 4917CHOL    C168695  15.808  -0.124  22.387
 4917CHOL    C268696  15.729   0.023  22.214
 4918CHOL   ROH68697   1.035   9.919  -5.551
 4918CHOL    R168698   1.118   9.916  -5.414
 4918CHOL    R268699   1.038  10.023  -5.223
 4918CHOL    R368700   1.211   9.913  -5.260
 4918CHOL    R468701   1.110  10.021  -5.104
 4918CHOL    R568702   1.294   9.910  -5.124
 4918CHOL    C168703   1.418   9.906  -4.918
 4918CHOL    C268704   1.543   9.902  -4.713
 4919CHOL   ROH68705   2.419  11.245  26.109
 4919CHOL    R168706   2.478  11.231  25.961
 4919CHOL    R268707   2.559  11.416  25.845
 4919CHOL    R368708   2.545  11.214  25.795
 4919CHOL    R468709   2.610  11.404  25.716
 4919CHOL    R568710   2.604  11.200  25.647
 4919CHOL    C168711   2.693  11.178  25.425
 4919CHOL    C268712   2.782  11.157  25.203
 4920CHOL   ROH68713  10.074   0.877  25.273
 4920CHOL    R168714  10.074   0.958  25.135
 4920CHOL    R268715  10.201   1.151  25.109
 4920CHOL    R368716  10.074   1.049  24.980
 4920CHOL    R468717  10.201   1.222  24.988
 4920CHOL    R568718  10.074   1.129  24.841
 4920CHOL    C168719  10.074   1.251  24.634
 4920CHOL    C268720  10.074   1.372  24.427
 4921CHOL   ROH68721  19.539   9.132  -5.019
 4921CHOL    R168722  19.454   9.140  -4.884
 4921CHOL    R268723  19.224   9.179  -4.889
 4921CHOL    R368724  19.358   9.150  -4.731
 4921CHOL    R468725  19.150   9.186  -4.770
 4921CHOL    R568726  19.273   9.159  -4.596
 4921CHOL    C168727  19.146   9.171  -4.393
 4921CHOL    C268728  19.019   9.184  -4.190
 4922CHOL   ROH68729  19.847  -4.609  12.293
 4922CHOL    R168730  19.758  -4.478  12.272
 4922CHOL    R268731  19.858  -4.271  12.228
 4922CHOL    R368732  19.658  -4.330  12.248
 4922CHOL    R468733  19.780  -4.156  12.210
 4922CHOL    R568734  19.570  -4.199  12.227
 4922CHOL    C168735  19.436  -4.001  12.195
 4922CHOL    C268736  19.303  -3.804  12.164
 4923CHOL   ROH68737  11.025  27.458   6.530
 4923CHOL    R168738  11.014  27.302   6.561
 4923CHOL    R268739  11.098  27.213   6.760
 4923CHOL    R368740  11.001  27.125   6.597
 4923CHOL    R468741  11.088  27.076   6.787
 4923CHOL    R568742  10.990  26.969   6.628
 4923CHOL    C168743  10.973  26.734   6.675
 4923CHOL    C268744  10.956  26.500   6.722
 4924CHOL   ROH68745  23.530  -1.531  10.327
 4924CHOL    R168746  23.407  -1.428  10.326
 4924CHOL    R268747  23.267  -1.410  10.141
 4924CHOL    R368748  23.270  -1.312  10.325
 4924CHOL    R468749  23.160  -1.320  10.140
 4924CHOL    R568750  23.147  -1.209  10.324
 4924CHOL    C168751  22.963  -1.055  10.323
 4924CHOL    C268752  22.779  -0.901  10.322
 4925CHOL   ROH68753  -6.024  16.210   4.896
 4925CHOL    R168754  -5.881  16.155   4.943
 4925CHOL    R268755  -5.786  16.226   5.143
 4925CHOL    R368756  -5.721  16.093   4.996
 4925CHOL    R468757  -5.661  16.177   5.184
 4925CHOL    R568758  -5.578  16.037   5.043
 4925CHOL    C168759  -5.365  15.955   5.114
 4925CHOL    C268760  -5.151  15.872   5.184
 4926CHOL   ROH68761   8.714  -7.403  13.927
 4926CHOL    R168762   8.724  -7.246  13.896
 4926CHOL    R268763   8.750  -7.168  13.678
 4926CHOL    R368764   8.735  -7.070  13.862
 4926CHOL    R468765   8.758  -7.031  13.652
 4926CHOL    R568766   8.745  -6.913  13.831
 4926CHOL    C168767   8.759  -6.678  13.786
 4926CHOL    C268768   8.774  -6.443  13.740
 4927CHOL   ROH68769  20.836  -3.290   5.202
 4927CHOL    R168770  20.738  -3.171   5.244
 4927CHOL    R268771  20.703  -2.988   5.103
 4927CHOL    R368772  20.628  -3.037   5.292
 4927CHOL    R468773  20.617  -2.884   5.140
 4927CHOL    R568774  20.530  -2.918   5.334
 4927CHOL    C168775  20.382  -2.739   5.398
 4927CHOL    C268776  20.235  -2.561   5.462
 4928CHOL   ROH68777   3.514  21.239  22.242
 4928CHOL    R168778   3.568  21.137  22.131
 4928CHOL    R268779   3.660  20.932  22.192
 4928CHOL    R368780   3.629  21.022  22.007
 4928CHOL    R468781   3.708  20.843  22.095
 4928CHOL    R568782   3.683  20.920  21.896
 4928CHOL    C168783   3.764  20.768  21.730
 4928CHOL    C268784   3.845  20.615  21.564
 4929CHOL   ROH68785  25.207  15.551  17.203
 4929CHOL    R168786  25.068  15.504  17.140
 4929CHOL    R268787  25.016  15.548  16.917
 4929CHOL    R368788  24.911  15.451  17.069
 4929CHOL    R468789  24.894  15.507  16.862
 4929CHOL    R568790  24.771  15.404  17.006
 4929CHOL    C168791  24.562  15.333  16.911
 4929CHOL    C268792  24.353  15.262  16.817
 4930CHOL   ROH68793  16.432  22.846  -0.582
 4930CHOL    R168794  16.368  22.730  -0.492
 4930CHOL    R268795  16.276  22.539  -0.589
 4930CHOL    R368796  16.295  22.601  -0.391
 4930CHOL    R468797  16.220  22.438  -0.511
 4930CHOL    R568798  16.231  22.485  -0.300
 4930CHOL    C168799  16.135  22.312  -0.165
 4930CHOL    C268800  16.038  22.138  -0.030
 4931CHOL   ROH68801  -2.912  11.953  -2.344
 4931CHOL    R168802  -2.799  11.939  -2.232
 4931CHOL    R268803  -2.812  12.060  -2.033
 4931CHOL    R368804  -2.672  11.924  -2.105
 4931CHOL    R468805  -2.713  12.048  -1.934
 4931CHOL    R568806  -2.558  11.911  -1.993
 4931CHOL    C168807  -2.389  11.890  -1.825
 4931CHOL    C268808  -2.219  11.870  -1.656
 4932CHOL   ROH68809  15.750  12.988  -6.671
 4932CHOL    R168810  15.699  12.961  -6.522
 4932CHOL    R268811  15.554  12.786  -6.473
 4932CHOL    R368812  15.643  12.932  -6.353
 4932CHOL    R468813  15.509  12.762  -6.343
 4932CHOL    R568814  15.592  12.905  -6.204
 4932CHOL    C168815  15.516  12.865  -5.980
 4932CHOL    C268816  15.440  12.825  -5.756
 4933CHOL   ROH68817  18.543  23.922  16.796
 4933CHOL    R168818  18.461  23.800  16.733
 4933CHOL    R268819  18.481  23.746  16.507
 4933CHOL    R368820  18.370  23.662  16.662
 4933CHOL    R468821  18.410  23.639  16.452
 4933CHOL    R568822  18.288  23.540  16.599
 4933CHOL    C168823  18.166  23.356  16.505
 4933CHOL    C268824  18.043  23.172  16.411
 4934CHOL   ROH68825  -5.840  17.756  13.470
 4934CHOL    R168826  -5.699  17.686  13.440
 4934CHOL    R268827  -5.601  17.543  13.595
 4934CHOL    R368828  -5.541  17.607  13.406
 4934CHOL    R468829  -5.478  17.481  13.569
 4934CHOL    R568830  -5.401  17.538  13.376
 4934CHOL    C168831  -5.190  17.433  13.331
 4934CHOL    C268832  -4.979  17.328  13.286
 4935CHOL   ROH68833  19.327   1.999  -2.913
 4935CHOL    R168834  19.237   2.069  -2.800
 4935CHOL    R268835  19.330   2.218  -2.648
 4935CHOL    R368836  19.136   2.147  -2.674
 4935CHOL    R468837  19.252   2.279  -2.549
 4935CHOL    R568838  19.046   2.216  -2.561
 4935CHOL    C168839  18.911   2.321  -2.392
 4935CHOL    C268840  18.776   2.425  -2.223
 4936CHOL   ROH68841  15.602  25.537   3.438
 4936CHOL    R168842  15.554  25.395   3.494
 4936CHOL    R268843  15.701  25.215   3.507
 4936CHOL    R368844  15.499  25.235   3.556
 4936CHOL    R468845  15.659  25.091   3.556
 4936CHOL    R568846  15.451  25.093   3.611
 4936CHOL    C168847  15.379  24.880   3.695
 4936CHOL    C268848  15.306  24.667   3.778
 4937CHOL   ROH68849   2.414  13.484  -5.903
 4937CHOL    R168850   2.484  13.455  -5.762
 4937CHOL    R268851   2.383  13.519  -5.562
 4937CHOL    R368852   2.563  13.422  -5.604
 4937CHOL    R468853   2.444  13.493  -5.439
 4937CHOL    R568854   2.633  13.392  -5.463
 4937CHOL    C168855   2.738  13.349  -5.252
 4937CHOL    C268856   2.843  13.305  -5.041
 4938CHOL   ROH68857  23.744  21.243  10.288
 4938CHOL    R168858  23.618  21.145  10.284
 4938CHOL    R268859  23.636  20.923  10.354
 4938CHOL    R368860  23.476  21.034  10.278
 4938CHOL    R468861  23.526  20.837  10.350
 4938CHOL    R568862  23.350  20.936  10.274
 4938CHOL    C168863  23.161  20.789  10.267
 4938CHOL    C268864  22.972  20.641  10.261
 4939CHOL   ROH68865   6.173  14.825  26.693
 4939CHOL    R168866   6.203  14.792  26.539
 4939CHOL    R268867   6.318  14.598  26.479
 4939CHOL    R368868   6.236  14.754  26.367
 4939CHOL    R468869   6.344  14.569  26.344
 4939CHOL    R568870   6.266  14.721  26.213
 4939CHOL    C168871   6.311  14.671  25.983
 4939CHOL    C268872   6.355  14.621  25.752
 4940CHOL   ROH68873   5.759  27.355   8.692
 4940CHOL    R168874   5.794  27.199   8.703
 4940CHOL    R268875   5.835  27.100   8.910
 4940CHOL    R368876   5.833  27.024   8.715
 4940CHOL    R468877   5.866  26.964   8.920
 4940CHOL    R568878   5.867  26.868   8.727
 4940CHOL    C168879   5.920  26.634   8.743
 4940CHOL    C268880   5.972  26.400   8.760
 4941CHOL   ROH68881  15.604  -6.409   5.924
 4941CHOL    R168882  15.550  -6.263   5.960
 4941CHOL    R268883  15.695  -6.099   6.041
 4941CHOL    R368884  15.490  -6.098   6.001
 4941CHOL    R468885  15.648  -5.970   6.073
 4941CHOL    R568886  15.436  -5.951   6.037
 4941CHOL    C168887  15.356  -5.732   6.091
 4941CHOL    C268888  15.276  -5.512   6.145
 4942CHOL   ROH68889   2.290   2.264  24.159
 4942CHOL    R168890   2.363   2.331  24.034
 4942CHOL    R268891   2.434   2.553  24.040
 4942CHOL    R368892   2.446   2.406  23.892
 4942CHOL    R468893   2.498   2.612  23.931
 4942CHOL    R568894   2.519   2.473  23.767
 4942CHOL    C168895   2.630   2.574  23.579
 4942CHOL    C268896   2.740   2.675  23.391
 4943CHOL   ROH68897  15.273  26.684   6.834
 4943CHOL    R168898  15.224  26.535   6.863
 4943CHOL    R268899  15.318  26.353   6.752
 4943CHOL    R368900  15.168  26.367   6.896
 4943CHOL    R468901  15.275  26.222   6.777
 4943CHOL    R568902  15.118  26.217   6.926
 4943CHOL    C168903  15.044  25.994   6.969
 4943CHOL    C268904  14.970  25.770   7.013
 4944CHOL   ROH68905   6.620  26.982   5.388
 4944CHOL    R168906   6.646  26.829   5.428
 4944CHOL    R268907   6.857  26.733   5.405
 4944CHOL    R368908   6.675  26.658   5.474
 4944CHOL    R468909   6.880  26.600   5.440
 4944CHOL    R568910   6.701  26.505   5.514
 4944CHOL    C168911   6.740  26.276   5.574
 4944CHOL    C268912   6.779  26.047   5.635
 4945CHOL   ROH68913  -4.349   6.482  -0.301
 4945CHOL    R168914  -4.222   6.509  -0.207
 4945CHOL    R268915  -4.062   6.344  -0.171
 4945CHOL    R368916  -4.080   6.540  -0.102
 4945CHOL    R468917  -3.951   6.368  -0.089
 4945CHOL    R568918  -3.953   6.568  -0.008
 4945CHOL    C168919  -3.763   6.609   0.133
 4945CHOL    C268920  -3.573   6.650   0.273
 4946CHOL   ROH68921  10.599   1.774  -5.892
 4946CHOL    R168922  10.593   1.848  -5.750
 4946CHOL    R268923  10.774   1.971  -5.670
 4946CHOL    R368924  10.585   1.931  -5.591
 4946CHOL    R468925  10.769   2.035  -5.546
 4946CHOL    R568926  10.579   2.006  -5.449
 4946CHOL    C168927  10.569   2.117  -5.236
 4946CHOL    C268928  10.560   2.228  -5.024
 4947CHOL   ROH68929   9.559  -6.781   3.775
 4947CHOL    R168930   9.566  -6.632   3.832
 4947CHOL    R268931   9.764  -6.547   3.923
 4947CHOL    R368932   9.574  -6.464   3.896
 4947CHOL    R468933   9.770  -6.417   3.973
 4947CHOL    R568934   9.581  -6.314   3.953
 4947CHOL    C168935   9.592  -6.091   4.039
 4947CHOL    C268936   9.602  -5.867   4.125
 4948CHOL   ROH68937  19.275   8.913  -5.166
 4948CHOL    R168938  19.192   8.924  -5.029
 4948CHOL    R268939  18.966   8.979  -5.030
 4948CHOL    R368940  19.100   8.936  -4.876
 4948CHOL    R468941  18.894   8.989  -4.911
 4948CHOL    R568942  19.017   8.947  -4.739
 4948CHOL    C168943  18.893   8.963  -4.534
 4948CHOL    C268944  18.769   8.980  -4.329
 4949CHOL   ROH68945   0.777  22.119  19.435
 4949CHOL    R168946   0.858  22.010  19.350
 4949CHOL    R268947   1.040  22.073  19.218
 4949CHOL    R368948   0.949  21.888  19.254
 4949CHOL    R468949   1.111  21.978  19.144
 4949CHOL    R568950   1.031  21.780  19.169
 4949CHOL    C168951   1.152  21.617  19.042
 4949CHOL    C268952   1.274  21.454  18.915
 4950CHOL   ROH68953  25.076  16.494   3.172
 4950CHOL    R168954  24.940  16.436   3.232
 4950CHOL    R268955  24.937  16.234   3.349
 4950CHOL    R368956  24.787  16.370   3.301
 4950CHOL    R468957  24.818  16.183   3.402
 4950CHOL    R568958  24.650  16.312   3.361
 4950CHOL    C168959  24.446  16.225   3.452
 4950CHOL    C268960  24.242  16.137   3.542
 4951CHOL   ROH68961  12.553  23.618  21.071
 4951CHOL    R168962  12.528  23.495  20.971
 4951CHOL    R268963  12.676  23.316  20.962
 4951CHOL    R368964  12.499  23.358  20.859
 4951CHOL    R468965  12.654  23.209  20.874
 4951CHOL    R568966  12.474  23.235  20.760
 4951CHOL    C168967  12.436  23.051  20.610
 4951CHOL    C268968  12.398  22.867  20.460
 4952CHOL   ROH68969  18.756  23.822   2.958
 4952CHOL    R168970  18.677  23.700   3.025
 4952CHOL    R268971  18.510  23.586   2.908
 4952CHOL    R368972  18.588  23.563   3.101
 4952CHOL    R468973  18.441  23.480   2.967
 4952CHOL    R568974  18.509  23.441   3.168
 4952CHOL    C168975  18.390  23.259   3.269
 4952CHOL    C268976  18.272  23.076   3.370
 4953CHOL   ROH68977  22.374   1.410   0.573
 4953CHOL    R168978  22.263   1.486   0.660
 4953CHOL    R268979  22.042   1.499   0.587
 4953CHOL    R368980  22.138   1.571   0.758
 4953CHOL    R468981  21.945   1.566   0.663
 4953CHOL    R568982  22.028   1.647   0.845
 4953CHOL    C168983  21.861   1.761   0.976
 4953CHOL    C268984  21.695   1.875   1.106
 4954CHOL   ROH68985  -3.532  21.638   7.667
 4954CHOL    R168986  -3.415  21.531   7.686
 4954CHOL    R268987  -3.322  21.491   7.896
 4954CHOL    R368988  -3.283  21.410   7.708
 4954CHOL    R468989  -3.219  21.397   7.913
 4954CHOL    R568990  -3.166  21.302   7.728
 4954CHOL    C168991  -2.990  21.141   7.757
 4954CHOL    C268992  -2.815  20.980   7.786
 4955CHOL   ROH68993  -1.409   8.696  -3.808
 4955CHOL    R168994  -1.308   8.704  -3.684
 4955CHOL    R268995  -1.303   8.892  -3.546
 4955CHOL    R368996  -1.194   8.714  -3.545
 4955CHOL    R468997  -1.214   8.899  -3.438
 4955CHOL    R568998  -1.093   8.722  -3.421
 4955CHOL    C168999  -0.941   8.734  -3.236
 4955CHOL    C269000  -0.790   8.747  -3.050
 4956CHOL   ROH69001   3.761  15.985  25.673
 4956CHOL    R169002   3.819  15.935  25.533
 4956CHOL    R269003   4.042  15.968  25.476
 4956CHOL    R369004   3.883  15.878  25.374
 4956CHOL    R469005   4.093  15.924  25.353
 4956CHOL    R569006   3.941  15.827  25.234
 4956CHOL    C169007   4.027  15.752  25.023
 4956CHOL    C269008   4.114  15.676  24.813
 4957CHOL   ROH69009  22.315   3.148  -0.808
 4957CHOL    R169010  22.205   3.212  -0.711
 4957CHOL    R269011  22.253   3.403  -0.586
 4957CHOL    R369012  22.082   3.284  -0.601
 4957CHOL    R469013  22.157   3.459  -0.500
 4957CHOL    R569014  21.972   3.348  -0.504
 4957CHOL    C169015  21.808   3.444  -0.358
 4957CHOL    C269016  21.644   3.540  -0.212
 4958CHOL   ROH69017   7.372  27.662   9.254
 4958CHOL    R169018   7.391  27.503   9.261
 4958CHOL    R269019   7.397  27.393   9.466
 4958CHOL    R369020   7.412  27.325   9.270
 4958CHOL    R469021   7.414  27.254   9.473
 4958CHOL    R569022   7.431  27.166   9.277
 4958CHOL    C169023   7.459  26.928   9.288
 4958CHOL    C269024   7.488  26.690   9.299
 4959CHOL   ROH69025  22.754  -2.253  11.727
 4959CHOL    R169026  22.640  -2.143  11.707
 4959CHOL    R269027  22.692  -1.915  11.704
 4959CHOL    R369028  22.512  -2.018  11.684
 4959CHOL    R469029  22.592  -1.819  11.686
 4959CHOL    R569030  22.398  -1.908  11.663
 4959CHOL    C169031  22.226  -1.742  11.633
 4959CHOL    C269032  22.055  -1.577  11.603
 4960CHOL   ROH69033   3.393   2.082  24.633
 4960CHOL    R169034   3.453   2.152  24.502
 4960CHOL    R269035   3.537   2.024  24.326
 4960CHOL    R369036   3.520   2.230  24.355
 4960CHOL    R469037   3.589   2.085  24.211
 4960CHOL    R569038   3.580   2.300  24.223
 4960CHOL    C169039   3.669   2.405  24.027
 4960CHOL    C269040   3.759   2.509  23.830
 4961CHOL   ROH69041  20.085  15.052  23.512
 4961CHOL    R169042  19.992  15.007  23.390
 4961CHOL    R269043  20.065  15.024  23.170
 4961CHOL    R369044  19.886  14.956  23.253
 4961CHOL    R469045  19.984  14.984  23.063
 4961CHOL    R569046  19.793  14.911  23.132
 4961CHOL    C169047  19.653  14.843  22.949
 4961CHOL    C269048  19.513  14.775  22.766
 4962CHOL   ROH69049   5.152   4.826  -6.538
 4962CHOL    R169050   5.192   4.871  -6.390
 4962CHOL    R269051   5.271   4.715  -6.235
 4962CHOL    R369052   5.237   4.921  -6.223
 4962CHOL    R469053   5.306   4.754  -6.105
 4962CHOL    R569054   5.277   4.966  -6.074
 4962CHOL    C169055   5.336   5.032  -5.852
 4962CHOL    C269056   5.396   5.099  -5.630
 4963CHOL   ROH69057  24.184   0.514  14.832
 4963CHOL    R169058  24.057   0.602  14.790
 4963CHOL    R269059  24.013   0.650  14.566
 4963CHOL    R369060  23.914   0.700  14.742
 4963CHOL    R469061  23.902   0.727  14.529
 4963CHOL    R569062  23.787   0.788  14.700
 4963CHOL    C169063  23.596   0.920  14.637
 4963CHOL    C269064  23.406   1.051  14.573
 4964CHOL   ROH69065   3.125  17.128  24.901
 4964CHOL    R169066   3.190  17.064  24.770
 4964CHOL    R269067   3.273  16.845  24.772
 4964CHOL    R369068   3.264  16.991  24.623
 4964CHOL    R469069   3.330  16.789  24.657
 4964CHOL    R569070   3.329  16.926  24.492
 4964CHOL    C169071   3.427  16.830  24.295
 4964CHOL    C269072   3.525  16.733  24.098
 4965CHOL   ROH69073  23.592  20.437   5.602
 4965CHOL    R169074  23.467  20.345   5.641
 4965CHOL    R269075  23.426  20.145   5.527
 4965CHOL    R369076  23.326  20.241   5.684
 4965CHOL    R469077  23.316  20.065   5.561
 4965CHOL    R569078  23.201  20.149   5.722
 4965CHOL    C169079  23.014  20.011   5.780
 4965CHOL    C269080  22.827  19.873   5.838
 4966CHOL   ROH69081   6.166   5.260  -6.891
 4966CHOL    R169082   6.195   5.301  -6.739
 4966CHOL    R269083   6.078   5.201  -6.564
 4966CHOL    R369084   6.228   5.347  -6.568
 4966CHOL    R469085   6.104   5.236  -6.431
 4966CHOL    R569086   6.257   5.388  -6.416
 4966CHOL    C169087   6.300   5.449  -6.188
 4966CHOL    C269088   6.343   5.510  -5.960
 4967CHOL   ROH69089  10.792  20.456  -4.473
 4967CHOL    R169090  10.784  20.359  -4.346
 4967CHOL    R269091  10.959  20.347  -4.192
 4967CHOL    R369092  10.774  20.251  -4.203
 4967CHOL    R469093  10.952  20.263  -4.081
 4967CHOL    R569094  10.766  20.154  -4.075
 4967CHOL    C169095  10.754  20.009  -3.885
 4967CHOL    C269096  10.741  19.864  -3.694
 4968CHOL   ROH69097  -4.929  13.091  19.457
 4968CHOL    R169098  -4.797  13.067  19.369
 4968CHOL    R269099  -4.595  13.168  19.427
 4968CHOL    R369100  -4.649  13.041  19.271
 4968CHOL    R469101  -4.480  13.147  19.351
 4968CHOL    R569102  -4.517  13.018  19.183
 4968CHOL    C169103  -4.319  12.982  19.051
 4968CHOL    C269104  -4.121  12.947  18.920
 4969CHOL   ROH69105  27.572   8.451   9.478
 4969CHOL    R169106  27.412   8.463   9.482
 4969CHOL    R269107  27.302   8.633   9.366
 4969CHOL    R369108  27.233   8.476   9.485
 4969CHOL    R469109  27.163   8.643   9.369
 4969CHOL    R569110  27.074   8.488   9.489
 4969CHOL    C169111  26.834   8.506   9.494
 4969CHOL    C269112  26.595   8.524   9.500
 4970CHOL   ROH69113   3.848  26.693  11.948
 4970CHOL    R169114   3.905  26.545  11.928
 4970CHOL    R269115   4.127  26.509  11.869
 4970CHOL    R369116   3.969  26.378  11.906
 4970CHOL    R469117   4.177  26.379  11.851
 4970CHOL    R569118   4.026  26.230  11.886
 4970CHOL    C169119   4.111  26.008  11.856
 4970CHOL    C269120   4.196  25.786  11.826
 4971CHOL   ROH69121  15.879  25.670   4.047
 4971CHOL    R169122  15.829  25.527   4.099
 4971CHOL    R269123  15.801  25.349   3.953
 4971CHOL    R369124  15.772  25.367   4.159
 4971CHOL    R469125  15.757  25.224   3.999
 4971CHOL    R569126  15.722  25.224   4.211
 4971CHOL    C169127  15.646  25.011   4.290
 4971CHOL    C269128  15.570  24.797   4.368
 4972CHOL   ROH69129  25.007   2.670  16.025
 4972CHOL    R169130  24.871   2.736  15.972
 4972CHOL    R269131  24.856   2.823  15.757
 4972CHOL    R369132  24.718   2.810  15.913
 4972CHOL    R469133  24.737   2.881  15.711
 4972CHOL    R569134  24.582   2.876  15.860
 4972CHOL    C169135  24.379   2.976  15.782
 4972CHOL    C269136  24.175   3.075  15.703
 4973CHOL   ROH69137  26.350  12.690   3.579
 4973CHOL    R169138  26.203  12.669   3.638
 4973CHOL    R269139  26.046  12.539   3.523
 4973CHOL    R369140  26.037  12.644   3.703
 4973CHOL    R469141  25.917  12.520   3.575
 4973CHOL    R569142  25.890  12.623   3.762
 4973CHOL    C169143  25.668  12.591   3.850
 4973CHOL    C269144  25.447  12.559   3.938
 4974CHOL   ROH69145   8.220  26.665   3.670
 4974CHOL    R169146   8.234  26.515   3.724
 4974CHOL    R269147   8.340  26.351   3.597
 4974CHOL    R369148   8.250  26.347   3.786
 4974CHOL    R469149   8.352  26.220   3.645
 4974CHOL    R569150   8.264  26.197   3.840
 4974CHOL    C169151   8.285  25.972   3.922
 4974CHOL    C269152   8.306  25.748   4.003
 4975CHOL   ROH69153  13.836  -5.974  16.885
 4975CHOL    R169154  13.797  -5.831  16.826
 4975CHOL    R269155  13.938  -5.722  16.675
 4975CHOL    R369156  13.754  -5.669  16.759
 4975CHOL    R469157  13.904  -5.596  16.623
 4975CHOL    R569158  13.715  -5.526  16.699
 4975CHOL    C169159  13.657  -5.311  16.610
 4975CHOL    C269160  13.599  -5.096  16.521
 4976CHOL   ROH69161  24.428   1.903  16.459
 4976CHOL    R169162  24.297   1.976  16.403
 4976CHOL    R269163  24.263   2.204  16.438
 4976CHOL    R369164  24.150   2.058  16.339
 4976CHOL    R469165  24.148   2.268  16.389
 4976CHOL    R569166  24.019   2.131  16.283
 4976CHOL    C169167  23.823   2.241  16.199
 4976CHOL    C269168  23.627   2.351  16.114
 4977CHOL   ROH69169  27.595  11.169   8.885
 4977CHOL    R169170  27.435  11.161   8.892
 4977CHOL    R269171  27.303  11.300   8.759
 4977CHOL    R369172  27.256  11.153   8.899
 4977CHOL    R469173  27.163  11.293   8.765
 4977CHOL    R569174  27.096  11.145   8.906
 4977CHOL    C169175  26.856  11.133   8.916
 4977CHOL    C269176  26.617  11.122   8.926
 4978CHOL   ROH69177  -0.894  22.400  16.966
 4978CHOL    R169178  -0.797  22.289  16.904
 4978CHOL    R269179  -0.640  22.179  17.038
 4978CHOL    R369180  -0.688  22.163  16.835
 4978CHOL    R469181  -0.555  22.081  16.983
 4978CHOL    R569182  -0.591  22.052  16.773
 4978CHOL    C169183  -0.446  21.885  16.680
 4978CHOL    C269184  -0.300  21.718  16.588
 4979CHOL   ROH69185  20.889   1.359  20.964
 4979CHOL    R169186  20.789   1.435  20.864
 4979CHOL    R269187  20.851   1.478  20.643
 4979CHOL    R369188  20.678   1.519  20.751
 4979CHOL    R469189  20.764   1.544  20.556
 4979CHOL    R569190  20.578   1.595  20.651
 4979CHOL    C169191  20.429   1.708  20.501
 4979CHOL    C269192  20.279   1.822  20.351
 4980CHOL   ROH69193  17.384   0.244  -3.053
 4980CHOL    R169194  17.316   0.332  -2.939
 4980CHOL    R269195  17.190   0.521  -2.992
 4980CHOL    R369196  17.239   0.432  -2.810
 4980CHOL    R469197  17.130   0.599  -2.892
 4980CHOL    R569198  17.170   0.521  -2.695
 4980CHOL    C169199  17.068   0.653  -2.524
 4980CHOL    C269200  16.966   0.786  -2.352
 4981CHOL   ROH69201  -6.276   6.048   3.334
 4981CHOL    R169202  -6.131   6.080   3.394
 4981CHOL    R269203  -6.108   6.199   3.593
 4981CHOL    R369204  -5.969   6.116   3.462
 4981CHOL    R469205  -5.982   6.228   3.646
 4981CHOL    R569206  -5.824   6.149   3.522
 4981CHOL    C169207  -5.607   6.197   3.612
 4981CHOL    C269208  -5.390   6.245   3.702
 4982CHOL   ROH69209   8.031  24.683  19.945
 4982CHOL    R169210   8.048  24.552  19.855
 4982CHOL    R269211   8.260  24.472  19.799
 4982CHOL    R369212   8.068  24.405  19.753
 4982CHOL    R469213   8.276  24.357  19.720
 4982CHOL    R569214   8.086  24.273  19.663
 4982CHOL    C169215   8.112  24.077  19.528
 4982CHOL    C269216   8.138  23.880  19.392
 4983CHOL   ROH69217   6.785  27.598  10.392
 4983CHOL    R169218   6.810  27.440  10.389
 4983CHOL    R269219   6.880  27.333  10.194
 4983CHOL    R369220   6.838  27.262  10.386
 4983CHOL    R469221   6.902  27.195  10.191
 4983CHOL    R569222   6.863  27.104  10.383
 4983CHOL    C169223   6.900  26.867  10.378
 4983CHOL    C269224   6.938  26.630  10.373
 4984CHOL   ROH69225   5.173  27.140   7.918
 4984CHOL    R169226   5.214  26.986   7.935
 4984CHOL    R269227   5.226  26.888   8.147
 4984CHOL    R369228   5.261  26.814   7.955
 4984CHOL    R469229   5.262  26.754   8.162
 4984CHOL    R569230   5.302  26.660   7.972
 4984CHOL    C169231   5.365  26.430   7.998
 4984CHOL    C269232   5.427  26.199   8.024
 4985CHOL   ROH69233   6.236  17.267  -5.966
 4985CHOL    R169234   6.269  17.202  -5.824
 4985CHOL    R269235   6.294  17.335  -5.634
 4985CHOL    R369236   6.306  17.129  -5.663
 4985CHOL    R469237   6.323  17.278  -5.509
 4985CHOL    R569238   6.340  17.063  -5.521
 4985CHOL    C169239   6.389  16.966  -5.307
 4985CHOL    C269240   6.439  16.868  -5.094
 4986CHOL   ROH69241  -4.056   9.191  21.062
 4986CHOL    R169242  -3.931   9.196  20.963
 4986CHOL    R269243  -3.712   9.195  21.045
 4986CHOL    R369244  -3.789   9.201  20.851
 4986CHOL    R469245  -3.603   9.199  20.958
 4986CHOL    R569246  -3.664   9.206  20.752
 4986CHOL    C169247  -3.476   9.212  20.603
 4986CHOL    C269248  -3.288   9.219  20.454
 4987CHOL   ROH69249  -7.275   7.618   5.476
 4987CHOL    R169250  -7.121   7.633   5.518
 4987CHOL    R269251  -7.062   7.698   5.734
 4987CHOL    R369252  -6.949   7.650   5.566
 4987CHOL    R469253  -6.928   7.711   5.771
 4987CHOL    R569254  -6.795   7.665   5.608
 4987CHOL    C169255  -6.565   7.688   5.671
 4987CHOL    C269256  -6.334   7.710   5.735
 4988CHOL   ROH69257  16.360  -6.611  10.976
 4988CHOL    R169258  16.299  -6.463  10.967
 4988CHOL    R269259  16.328  -6.333  10.775
 4988CHOL    R369260  16.231  -6.297  10.956
 4988CHOL    R469261  16.275  -6.204  10.767
 4988CHOL    R569262  16.171  -6.149  10.947
 4988CHOL    C169263  16.080  -5.927  10.933
 4988CHOL    C269264  15.989  -5.705  10.919
 4989CHOL   ROH69265   4.621  -4.590  18.860
 4989CHOL    R169266   4.669  -4.461  18.779
 4989CHOL    R269267   4.816  -4.307  18.874
 4989CHOL    R369268   4.722  -4.315  18.687
 4989CHOL    R469269   4.858  -4.194  18.802
 4989CHOL    R569270   4.770  -4.186  18.606
 4989CHOL    C169271   4.842  -3.992  18.484
 4989CHOL    C269272   4.913  -3.798  18.362
 4990CHOL   ROH69273   1.626  25.157   5.618
 4990CHOL    R169274   1.704  25.022   5.655
 4990CHOL    R269275   1.937  25.019   5.672
 4990CHOL    R369276   1.792  24.871   5.697
 4990CHOL    R469277   2.005  24.902   5.705
 4990CHOL    R569278   1.870  24.737   5.734
 4990CHOL    C169279   1.987  24.535   5.790
 4990CHOL    C269280   2.104  24.333   5.846
 4991CHOL   ROH69281  17.939  -4.662   3.792
 4991CHOL    R169282  17.868  -4.529   3.846
 4991CHOL    R269283  17.993  -4.342   3.906
 4991CHOL    R369284  17.788  -4.380   3.908
 4991CHOL    R469285  17.931  -4.226   3.954
 4991CHOL    R569286  17.717  -4.247   3.962
 4991CHOL    C169287  17.610  -4.049   4.044
 4991CHOL    C269288  17.504  -3.850   4.125
 4992CHOL   ROH69289  20.323   1.548  -1.750
 4992CHOL    R169290  20.226   1.622  -1.646
 4992CHOL    R269291  20.303   1.800  -1.517
 4992CHOL    R369292  20.117   1.705  -1.530
 4992CHOL    R469293  20.218   1.864  -1.426
 4992CHOL    R569294  20.021   1.779  -1.426
 4992CHOL    C169295  19.875   1.890  -1.270
 4992CHOL    C269296  19.730   2.001  -1.115
 4993CHOL   ROH69297   3.650   1.906  24.653
 4993CHOL    R169298   3.706   1.977  24.521
 4993CHOL    R269299   3.798   1.852  24.347
 4993CHOL    R369300   3.770   2.058  24.374
 4993CHOL    R469301   3.847   1.915  24.232
 4993CHOL    R569302   3.826   2.129  24.242
 4993CHOL    C169303   3.911   2.236  24.045
 4993CHOL    C269304   3.996   2.343  23.847
 4994CHOL   ROH69305  24.068  18.616  16.502
 4994CHOL    R169306  23.943  18.534  16.447
 4994CHOL    R269307  23.912  18.501  16.218
 4994CHOL    R369308  23.801  18.441  16.384
 4994CHOL    R469309  23.802  18.429  16.169
 4994CHOL    R569310  23.676  18.359  16.329
 4994CHOL    C169311  23.488  18.235  16.246
 4994CHOL    C269312  23.300  18.111  16.163
 4995CHOL   ROH69313  10.733  -6.032   2.064
 4995CHOL    R169314  10.727  -5.889   2.136
 4995CHOL    R269315  10.856  -5.845   2.326
 4995CHOL    R369316  10.721  -5.729   2.217
 4995CHOL    R469317  10.851  -5.720   2.389
 4995CHOL    R569318  10.715  -5.586   2.289
 4995CHOL    C169319  10.706  -5.372   2.398
 4995CHOL    C269320  10.698  -5.158   2.506
 4996CHOL   ROH69321  -2.737  -1.529  15.242
 4996CHOL    R169322  -2.623  -1.427  15.195
 4996CHOL    R269323  -2.414  -1.424  15.298
 4996CHOL    R369324  -2.495  -1.312  15.141
 4996CHOL    R469325  -2.314  -1.335  15.257
 4996CHOL    R569326  -2.381  -1.211  15.094
 4996CHOL    C169327  -2.210  -1.058  15.023
 4996CHOL    C269328  -2.039  -0.905  14.952
 4997CHOL   ROH69329  10.494   6.302  -7.496
 4997CHOL    R169330  10.492   6.338  -7.340
 4997CHOL    R269331  10.685   6.413  -7.232
 4997CHOL    R369332  10.490   6.379  -7.165
 4997CHOL    R469333  10.683   6.444  -7.095
 4997CHOL    R569334  10.487   6.415  -7.009
 4997CHOL    C169335  10.484   6.469  -6.775
 4997CHOL    C269336  10.481   6.523  -6.541
 4998CHOL   ROH69337  11.329  -7.348   5.615
 4998CHOL    R169338  11.318  -7.193   5.653
 4998CHOL    R269339  11.359  -7.119   5.870
 4998CHOL    R369340  11.305  -7.019   5.696
 4998CHOL    R469341  11.349  -6.984   5.904
 4998CHOL    R569342  11.293  -6.864   5.734
 4998CHOL    C169343  11.276  -6.631   5.791
 4998CHOL    C269344  11.259  -6.398   5.848
 4999CHOL   ROH69345   6.618  16.771  26.190
 4999CHOL    R169346   6.643  16.710  26.044
 4999CHOL    R269347   6.856  16.642  25.977
 4999CHOL    R369348   6.670  16.640  25.881
 4999CHOL    R469349   6.877  16.588  25.850
 4999CHOL    R569350   6.695  16.579  25.735
 4999CHOL    C169351   6.732  16.487  25.517
 4999CHOL    C269352   6.769  16.395  25.298
 5000CHOL   ROH69353   2.590  22.435  -0.603
 5000CHOL    R169354   2.654  22.320  -0.512
 5000CHOL    R269355   2.751  22.371  -0.306
 5000CHOL    R369356   2.727  22.192  -0.409
 5000CHOL    R469357   2.807  22.271  -0.226
 5000CHOL    R569358   2.791  22.077  -0.318
 5000CHOL    C169359   2.887  21.905  -0.181
 5000CHOL    C269360   2.984  21.733  -0.044
 5001CHOL   ROH69361  12.791  -4.902  19.353
 5001CHOL    R169362  12.764  -4.772  19.264
 5001CHOL    R269363  12.928  -4.607  19.240
 5001CHOL    R369364  12.734  -4.625  19.164
 5001CHOL    R469365  12.904  -4.493  19.162
 5001CHOL    R569366  12.707  -4.495  19.075
 5001CHOL    C169367  12.667  -4.299  18.942
 5001CHOL    C269368  12.626  -4.103  18.809
 5002CHOL   ROH69369  12.505  -7.655   8.446
 5002CHOL    R169370  12.484  -7.497   8.458
 5002CHOL    R269371  12.553  -7.380   8.647
 5002CHOL    R369372  12.459  -7.319   8.470
 5002CHOL    R469373  12.534  -7.242   8.657
 5002CHOL    R569374  12.438  -7.161   8.482
 5002CHOL    C169375  12.406  -6.924   8.499
 5002CHOL    C269376  12.374  -6.687   8.517
 5003CHOL   ROH69377  16.336  -2.930  -0.546
 5003CHOL    R169378  16.281  -2.814  -0.451
 5003CHOL    R269379  16.254  -2.596  -0.531
 5003CHOL    R369380  16.219  -2.683  -0.344
 5003CHOL    R469381  16.206  -2.494  -0.447
 5003CHOL    R569382  16.165  -2.567  -0.249
 5003CHOL    C169383  16.082  -2.392  -0.106
 5003CHOL    C269384  16.000  -2.218   0.037
 5004CHOL   ROH69385  17.850  -0.530  21.940
 5004CHOL    R169386  17.777  -0.435  21.834
 5004CHOL    R269387  17.898  -0.329  21.665
 5004CHOL    R369388  17.695  -0.328  21.714
 5004CHOL    R469389  17.834  -0.246  21.572
 5004CHOL    R569390  17.622  -0.234  21.608
 5004CHOL    C169391  17.513  -0.091  21.449
 5004CHOL    C269392  17.403   0.051  21.289
 5005CHOL   ROH69393   7.713  -3.250  -1.847
 5005CHOL    R169394   7.733  -3.131  -1.742
 5005CHOL    R269395   7.939  -3.024  -1.720
 5005CHOL    R369396   7.757  -2.998  -1.623
 5005CHOL    R469397   7.957  -2.920  -1.628
 5005CHOL    R569398   7.777  -2.880  -1.517
 5005CHOL    C169399   7.808  -2.702  -1.359
 5005CHOL    C269400   7.838  -2.524  -1.201
 5006CHOL   ROH69401   2.944   4.332  25.414
 5006CHOL    R169402   3.009   4.381  25.276
 5006CHOL    R269403   3.055   4.607  25.239
 5006CHOL    R369404   3.082   4.436  25.121
 5006CHOL    R469405   3.112   4.650  25.119
 5006CHOL    R569406   3.147   4.485  24.984
 5006CHOL    C169407   3.244   4.559  24.777
 5006CHOL    C269408   3.342   4.633  24.570
 5007CHOL   ROH69409  26.050  11.746   2.616
 5007CHOL    R169410  25.905  11.731   2.683
 5007CHOL    R269411  25.770  11.547   2.636
 5007CHOL    R369412  25.743  11.714   2.758
 5007CHOL    R469413  25.644  11.534   2.694
 5007CHOL    R569414  25.598  11.699   2.824
 5007CHOL    C169415  25.381  11.676   2.925
 5007CHOL    C269416  25.164  11.654   3.025
 5008CHOL   ROH69417  13.839  -4.948   0.963
 5008CHOL    R169418  13.803  -4.815   1.045
 5008CHOL    R269419  13.856  -4.604   0.960
 5008CHOL    R369420  13.763  -4.666   1.137
 5008CHOL    R469421  13.825  -4.488   1.032
 5008CHOL    R569422  13.728  -4.533   1.218
 5008CHOL    C169423  13.674  -4.334   1.341
 5008CHOL    C269424  13.620  -4.135   1.464
 5009CHOL   ROH69425  -3.057   6.245  -1.824
 5009CHOL    R169426  -2.940   6.274  -1.719
 5009CHOL    R269427  -2.978   6.255  -1.489
 5009CHOL    R369428  -2.808   6.307  -1.600
 5009CHOL    R469429  -2.875   6.280  -1.397
 5009CHOL    R569430  -2.692   6.336  -1.495
 5009CHOL    C169431  -2.516   6.379  -1.337
 5009CHOL    C269432  -2.341   6.422  -1.179
 5010CHOL   ROH69433  -2.199  13.113  22.691
 5010CHOL    R169434  -2.094  13.083  22.574
 5010CHOL    R269435  -1.956  12.895  22.582
 5010CHOL    R369436  -1.976  13.049  22.442
 5010CHOL    R469437  -1.864  12.869  22.480
 5010CHOL    R569438  -1.872  13.018  22.325
 5010CHOL    C169439  -1.714  12.973  22.149
 5010CHOL    C269440  -1.557  12.928  21.974
 5011CHOL   ROH69441  -7.641  11.418   6.973
 5011CHOL    R169442  -7.484  11.405   7.003
 5011CHOL    R269443  -7.407  11.273   7.179
 5011CHOL    R369444  -7.308  11.390   7.037
 5011CHOL    R469445  -7.270  11.261   7.205
 5011CHOL    R569446  -7.152  11.377   7.067
 5011CHOL    C169447  -6.917  11.357   7.112
 5011CHOL    C269448  -6.682  11.338   7.157
 5012CHOL   ROH69449  23.493  17.876   1.495
 5012CHOL    R169450  23.372  17.806   1.572
 5012CHOL    R269451  23.173  17.753   1.462
 5012CHOL    R369452  23.235  17.727   1.660
 5012CHOL    R469453  23.067  17.691   1.530
 5012CHOL    R569454  23.114  17.657   1.737
 5012CHOL    C169455  22.932  17.552   1.853
 5012CHOL    C269456  22.750  17.447   1.969
 5013CHOL   ROH69457  -3.089  19.533   2.163
 5013CHOL    R169458  -2.972  19.449   2.232
 5013CHOL    R269459  -2.935  19.461   2.462
 5013CHOL    R369460  -2.841  19.353   2.311
 5013CHOL    R469461  -2.833  19.387   2.523
 5013CHOL    R569462  -2.724  19.269   2.380
 5013CHOL    C169463  -2.549  19.142   2.484
 5013CHOL    C269464  -2.374  19.016   2.588
 5014CHOL   ROH69465   5.938  -3.210  21.311
 5014CHOL    R169466   5.974  -3.092  21.209
 5014CHOL    R269467   6.066  -3.139  20.999
 5014CHOL    R369468   6.014  -2.960  21.093
 5014CHOL    R469469   6.097  -3.036  20.910
 5014CHOL    R569470   6.050  -2.843  20.991
 5014CHOL    C169471   6.104  -2.666  20.837
 5014CHOL    C269472   6.158  -2.490  20.684
 5015CHOL   ROH69473  21.439  20.390   1.301
 5015CHOL    R169474  21.337  20.294   1.379
 5015CHOL    R269475  21.203  20.143   1.263
 5015CHOL    R369476  21.223  20.186   1.467
 5015CHOL    R469477  21.114  20.059   1.332
 5015CHOL    R569478  21.121  20.090   1.544
 5015CHOL    C169479  20.969  19.946   1.661
 5015CHOL    C269480  20.817  19.802   1.778
 5016CHOL   ROH69481  -6.710  10.457  16.571
 5016CHOL    R169482  -6.561  10.458  16.514
 5016CHOL    R269483  -6.412  10.630  16.569
 5016CHOL    R369484  -6.392  10.459  16.450
 5016CHOL    R469485  -6.282  10.631  16.519
 5016CHOL    R569486  -6.243  10.460  16.393
 5016CHOL    C169487  -6.019  10.462  16.308
 5016CHOL    C269488  -5.795  10.464  16.222
 5017CHOL   ROH69489  11.716  17.888  25.799
 5017CHOL    R169490  11.695  17.822  25.655
 5017CHOL    R269491  11.874  17.727  25.539
 5017CHOL    R369492  11.672  17.747  25.493
 5017CHOL    R469493  11.856  17.669  25.413
 5017CHOL    R569494  11.651  17.680  25.349
 5017CHOL    C169495  11.620  17.581  25.133
 5017CHOL    C269496  11.589  17.481  24.917
 5018CHOL   ROH69497   9.008  27.664   7.653
 5018CHOL    R169498   9.015  27.505   7.672
 5018CHOL    R269499   9.210  27.402   7.748
 5018CHOL    R369500   9.023  27.327   7.693
 5018CHOL    R469501   9.216  27.263   7.765
 5018CHOL    R569502   9.030  27.168   7.712
 5018CHOL    C169503   9.041  26.930   7.740
 5018CHOL    C269504   9.051  26.692   7.769
 5019CHOL   ROH69505  -5.581  18.896   8.225
 5019CHOL    R169506  -5.442  18.818   8.241
 5019CHOL    R269507  -5.420  18.643   8.394
 5019CHOL    R369508  -5.286  18.730   8.259
 5019CHOL    R469509  -5.298  18.574   8.408
 5019CHOL    R569510  -5.147  18.652   8.275
 5019CHOL    C169511  -4.939  18.535   8.299
 5019CHOL    C269512  -4.731  18.418   8.323
 5020CHOL   ROH69513  11.548  23.252  -1.883
 5020CHOL    R169514  11.537  23.134  -1.776
 5020CHOL    R269515  11.724  23.008  -1.716
 5020CHOL    R369516  11.524  23.001  -1.655
 5020CHOL    R469517  11.714  22.905  -1.622
 5020CHOL    R569518  11.513  22.882  -1.548
 5020CHOL    C169519  11.496  22.705  -1.387
 5020CHOL    C269520  11.479  22.528  -1.226
 5021CHOL   ROH69521  18.777  -4.906  14.055
 5021CHOL    R169522  18.697  -4.772  14.019
 5021CHOL    R269523  18.807  -4.586  13.932
 5021CHOL    R369524  18.606  -4.622  13.978
 5021CHOL    R469525  18.736  -4.469  13.900
 5021CHOL    R569526  18.526  -4.488  13.942
 5021CHOL    C169527  18.406  -4.288  13.888
 5021CHOL    C269528  18.285  -4.088  13.834
 5022CHOL   ROH69529  10.438  26.900  15.688
 5022CHOL    R169530  10.430  26.748  15.639
 5022CHOL    R269531  10.573  26.586  15.727
 5022CHOL    R369532  10.421  26.577  15.584
 5022CHOL    R469533  10.565  26.453  15.684
 5022CHOL    R569534  10.412  26.424  15.535
 5022CHOL    C169535  10.400  26.196  15.462
 5022CHOL    C269536  10.388  25.968  15.388
 5023CHOL   ROH69537  12.136  -1.699  23.131
 5023CHOL    R169538  12.112  -1.591  23.015
 5023CHOL    R269539  12.291  -1.488  22.907
 5023CHOL    R369540  12.085  -1.470  22.885
 5023CHOL    R469541  12.270  -1.394  22.806
 5023CHOL    R569542  12.060  -1.362  22.769
 5023CHOL    C169543  12.024  -1.201  22.595
 5023CHOL    C269544  11.988  -1.039  22.421
 5024CHOL   ROH69545  -0.415  24.161   6.946
 5024CHOL    R169546  -0.324  24.032   6.972
 5024CHOL    R269547  -0.091  24.045   6.956
 5024CHOL    R369548  -0.221  23.887   7.001
 5024CHOL    R469549  -0.011  23.932   6.978
 5024CHOL    R569550  -0.129  23.759   7.027
 5024CHOL    C169551   0.008  23.565   7.065
 5024CHOL    C269552   0.145  23.372   7.104
 5025CHOL   ROH69553  16.128  -2.545  -1.115
 5025CHOL    R169554  16.075  -2.432  -1.015
 5025CHOL    R269555  16.024  -2.218  -1.093
 5025CHOL    R369556  16.015  -2.304  -0.903
 5025CHOL    R469557  15.977  -2.119  -1.005
 5025CHOL    R569558  15.962  -2.191  -0.803
 5025CHOL    C169559  15.882  -2.021  -0.653
 5025CHOL    C269560  15.803  -1.851  -0.503
 5026CHOL   ROH69561   4.711  22.983  20.990
 5026CHOL    R169562   4.755  22.867  20.889
 5026CHOL    R269563   4.893  22.913  20.706
 5026CHOL    R369564   4.805  22.737  20.775
 5026CHOL    R469565   4.932  22.812  20.618
 5026CHOL    R569566   4.849  22.621  20.674
 5026CHOL    C169567   4.915  22.447  20.522
 5026CHOL    C269568   4.981  22.273  20.371
 5027CHOL   ROH69569  18.666   6.919  -5.229
 5027CHOL    R169570  18.589   6.947  -5.092
 5027CHOL    R269571  18.513   7.160  -5.037
 5027CHOL    R369572  18.502   6.977  -4.937
 5027CHOL    R469573  18.446   7.184  -4.917
 5027CHOL    R569574  18.425   7.005  -4.800
 5027CHOL    C169575  18.309   7.046  -4.593
 5027CHOL    C269576  18.193   7.088  -4.387
 5028CHOL   ROH69577  14.686  -3.739  20.251
 5028CHOL    R169578  14.646  -3.618  20.154
 5028CHOL    R269579  14.596  -3.656  19.930
 5028CHOL    R369580  14.601  -3.482  20.045
 5028CHOL    R469581  14.561  -3.550  19.845
 5028CHOL    R569582  14.562  -3.361  19.949
 5028CHOL    C169583  14.502  -3.180  19.803
 5028CHOL    C269584  14.442  -2.998  19.658
 5029CHOL   ROH69585   1.608  23.622   2.011
 5029CHOL    R169586   1.685  23.500   2.080
 5029CHOL    R269587   1.914  23.512   2.123
 5029CHOL    R369588   1.772  23.363   2.158
 5029CHOL    R469589   1.981  23.405   2.184
 5029CHOL    R569590   1.848  23.240   2.226
 5029CHOL    C169591   1.964  23.057   2.330
 5029CHOL    C269592   2.079  22.874   2.433
 5030CHOL   ROH69593  15.621   3.826  -5.802
 5030CHOL    R169594  15.568   3.876  -5.660
 5030CHOL    R269595  15.533   4.102  -5.617
 5030CHOL    R369596  15.508   3.932  -5.499
 5030CHOL    R469597  15.487   4.146  -5.492
 5030CHOL    R569598  15.454   3.982  -5.357
 5030CHOL    C169599  15.375   4.056  -5.143
 5030CHOL    C269600  15.295   4.131  -4.930
 5031CHOL   ROH69601  17.253  20.074  -2.850
 5031CHOL    R169602  17.185  19.986  -2.735
 5031CHOL    R269603  17.308  19.826  -2.618
 5031CHOL    R369604  17.109  19.887  -2.606
 5031CHOL    R469605  17.249  19.749  -2.517
 5031CHOL    R569606  17.041  19.799  -2.491
 5031CHOL    C169607  16.939  19.666  -2.319
 5031CHOL    C269608  16.837  19.534  -2.146
 5032CHOL   ROH69609   2.795  -6.121  12.984
 5032CHOL    R169610   2.859  -5.977  12.958
 5032CHOL    R269611   2.863  -5.815  13.126
 5032CHOL    R369612   2.930  -5.814  12.929
 5032CHOL    R469613   2.918  -5.689  13.104
 5032CHOL    R569614   2.994  -5.669  12.903
 5032CHOL    C169615   3.090  -5.453  12.864
 5032CHOL    C269616   3.185  -5.236  12.825
 5033CHOL   ROH69617  22.268  -1.327  16.009
 5033CHOL    R169618  22.156  -1.226  15.956
 5033CHOL    R269619  22.172  -0.997  15.997
 5033CHOL    R369620  22.030  -1.112  15.896
 5033CHOL    R469621  22.075  -0.908  15.950
 5033CHOL    R569622  21.919  -1.010  15.843
 5033CHOL    C169623  21.751  -0.859  15.763
 5033CHOL    C269624  21.583  -0.707  15.684
 5034CHOL   ROH69625  24.060  19.411  15.219
 5034CHOL    R169626  23.934  19.325  15.172
 5034CHOL    R269627  23.854  19.337  14.953
 5034CHOL    R369628  23.792  19.227  15.120
 5034CHOL    R469629  23.744  19.262  14.913
 5034CHOL    R569630  23.666  19.141  15.073
 5034CHOL    C169631  23.476  19.011  15.003
 5034CHOL    C269632  23.287  18.882  14.933
 5035CHOL   ROH69633  25.130   5.828   1.593
 5035CHOL    R169634  24.993   5.863   1.668
 5035CHOL    R269635  24.858   6.039   1.595
 5035CHOL    R369636  24.839   5.903   1.752
 5035CHOL    R469637  24.738   6.070   1.661
 5035CHOL    R569638  24.702   5.938   1.827
 5035CHOL    C169639  24.497   5.991   1.939
 5035CHOL    C269640  24.291   6.044   2.052
 5036CHOL   ROH69641   0.630  24.299   4.852
 5036CHOL    R169642   0.714  24.171   4.898
 5036CHOL    R269643   0.946  24.182   4.923
 5036CHOL    R369644   0.809  24.027   4.950
 5036CHOL    R469645   1.019  24.070   4.963
 5036CHOL    R569646   0.893  23.899   4.995
 5036CHOL    C169647   1.019  23.706   5.064
 5036CHOL    C269648   1.145  23.514   5.133
 5037CHOL   ROH69649  18.861  10.380  -5.439
 5037CHOL    R169650  18.781  10.376  -5.300
 5037CHOL    R269651  18.573  10.478  -5.279
 5037CHOL    R369652  18.691  10.371  -5.145
 5037CHOL    R469653  18.503  10.474  -5.157
 5037CHOL    R569654  18.612  10.367  -5.006
 5037CHOL    C169655  18.492  10.360  -4.798
 5037CHOL    C269656  18.372  10.354  -4.590
 5038CHOL   ROH69657   4.477   5.918  -6.632
 5038CHOL    R169658   4.524   5.953  -6.483
 5038CHOL    R269659   4.651   5.801  -6.359
 5038CHOL    R369660   4.578   5.992  -6.316
 5038CHOL    R469661   4.693   5.832  -6.229
 5038CHOL    R569662   4.625   6.027  -6.167
 5038CHOL    C169663   4.696   6.079  -5.944
 5038CHOL    C269664   4.767   6.132  -5.721
 5039CHOL   ROH69665   8.499  -5.848   1.837
 5039CHOL    R169666   8.513  -5.706   1.909
 5039CHOL    R269667   8.721  -5.629   1.982
 5039CHOL    R369668   8.529  -5.546   1.991
 5039CHOL    R469669   8.733  -5.504   2.046
 5039CHOL    R569670   8.543  -5.405   2.064
 5039CHOL    C169671   8.564  -5.192   2.172
 5039CHOL    C269672   8.585  -4.979   2.281
 5040CHOL   ROH69673  16.918  -6.250  12.203
 5040CHOL    R169674  16.853  -6.105  12.183
 5040CHOL    R269675  16.976  -5.912  12.227
 5040CHOL    R369676  16.780  -5.942  12.160
 5040CHOL    R469677  16.919  -5.785  12.209
 5040CHOL    R569678  16.716  -5.798  12.139
 5040CHOL    C169679  16.618  -5.580  12.109
 5040CHOL    C269680  16.521  -5.363  12.079
 5041CHOL   ROH69681  23.691   0.120   4.393
 5041CHOL    R169682  23.567   0.209   4.440
 5041CHOL    R269683  23.582   0.442   4.447
 5041CHOL    R369684  23.427   0.310   4.494
 5041CHOL    R469685  23.474   0.520   4.488
 5041CHOL    R569686  23.303   0.399   4.541
 5041CHOL    C169687  23.117   0.533   4.612
 5041CHOL    C269688  22.931   0.667   4.683
 5042CHOL   ROH69689  25.428  12.419  18.360
 5042CHOL    R169690  25.287  12.397  18.288
 5042CHOL    R269691  25.266  12.251  18.107
 5042CHOL    R369692  25.128  12.372  18.206
 5042CHOL    R469693  25.143  12.231  18.044
 5042CHOL    R569694  24.987  12.350  18.134
 5042CHOL    C169695  24.776  12.318  18.026
 5042CHOL    C269696  24.565  12.285  17.917
 5043CHOL   ROH69697  23.650   1.955   1.887
 5043CHOL    R169698  23.528   2.027   1.962
 5043CHOL    R269699  23.508   2.260   1.961
 5043CHOL    R369700  23.392   2.109   2.046
 5043CHOL    R469701  23.401   2.323   2.026
 5043CHOL    R569702  23.270   2.181   2.121
 5043CHOL    C169703  23.088   2.289   2.233
 5043CHOL    C269704  22.905   2.398   2.345
 5044CHOL   ROH69705   0.219   2.525  22.873
 5044CHOL    R169706   0.308   2.589  22.757
 5044CHOL    R269707   0.500   2.712  22.806
 5044CHOL    R369708   0.409   2.661  22.626
 5044CHOL    R469709   0.579   2.768  22.705
 5044CHOL    R569710   0.498   2.724  22.510
 5044CHOL    C169711   0.633   2.820  22.335
 5044CHOL    C269712   0.767   2.916  22.161
 5045CHOL   ROH69713  -1.899  -0.933  17.809
 5045CHOL    R169714  -1.793  -0.836  17.738
 5045CHOL    R269715  -1.597  -0.772  17.848
 5045CHOL    R369716  -1.674  -0.727  17.659
 5045CHOL    R469717  -1.505  -0.687  17.786
 5045CHOL    R569718  -1.568  -0.630  17.588
 5045CHOL    C169719  -1.410  -0.484  17.482
 5045CHOL    C269720  -1.251  -0.338  17.376
 5046CHOL   ROH69721  17.180  -6.032  12.811
 5046CHOL    R169722  17.113  -5.889  12.785
 5046CHOL    R269723  17.198  -5.697  12.886
 5046CHOL    R369724  17.038  -5.728  12.756
 5046CHOL    R469725  17.140  -5.572  12.864
 5046CHOL    R569726  16.971  -5.585  12.730
 5046CHOL    C169727  16.871  -5.370  12.692
 5046CHOL    C269728  16.770  -5.156  12.653
 5047CHOL   ROH69729  -5.323  11.140  19.234
 5047CHOL    R169730  -5.189  11.129  19.146
 5047CHOL    R269731  -4.994  11.039  19.236
 5047CHOL    R369732  -5.039  11.117  19.048
 5047CHOL    R469733  -4.877  11.030  19.160
 5047CHOL    R569734  -4.906  11.106  18.961
 5047CHOL    C169735  -4.705  11.090  18.829
 5047CHOL    C269736  -4.505  11.074  18.698
 5048CHOL   ROH69737  -1.583  14.709  22.727
 5048CHOL    R169738  -1.483  14.666  22.610
 5048CHOL    R269739  -1.253  14.657  22.646
 5048CHOL    R369740  -1.370  14.618  22.478
 5048CHOL    R469741  -1.165  14.620  22.543
 5048CHOL    R569742  -1.270  14.575  22.360
 5048CHOL    C169743  -1.120  14.511  22.185
 5048CHOL    C269744  -0.970  14.446  22.009
 5049CHOL   ROH69745   4.805  -3.287  -0.888
 5049CHOL    R169746   4.852  -3.170  -0.790
 5049CHOL    R269747   4.850  -3.199  -0.558
 5049CHOL    R369748   4.904  -3.038  -0.679
 5049CHOL    R469749   4.890  -3.097  -0.472
 5049CHOL    R569750   4.951  -2.920  -0.580
 5049CHOL    C169751   5.021  -2.745  -0.433
 5049CHOL    C269752   5.091  -2.569  -0.285
 5050CHOL   ROH69753  20.251  -2.959   3.300
 5050CHOL    R169754  20.159  -2.842   3.359
 5050CHOL    R269755  20.220  -2.618   3.335
 5050CHOL    R369756  20.056  -2.710   3.425
 5050CHOL    R469757  20.139  -2.516   3.387
 5050CHOL    R569758  19.964  -2.594   3.483
 5050CHOL    C169759  19.826  -2.418   3.572
 5050CHOL    C269760  19.688  -2.243   3.660
 5051CHOL   ROH69761  17.061  25.127  16.027
 5051CHOL    R169762  16.997  24.992  15.970
 5051CHOL    R269763  17.006  24.942  15.742
 5051CHOL    R369764  16.925  24.840  15.905
 5051CHOL    R469765  16.950  24.824  15.692
 5051CHOL    R569766  16.861  24.705  15.848
 5051CHOL    C169767  16.765  24.503  15.762
 5051CHOL    C269768  16.669  24.301  15.676
 5052CHOL   ROH69769  21.911   7.504  -3.032
 5052CHOL    R169770  21.804   7.524  -2.915
 5052CHOL    R269771  21.593   7.614  -2.960
 5052CHOL    R369772  21.683   7.546  -2.783
 5052CHOL    R469773  21.499   7.631  -2.857
 5052CHOL    R569774  21.575   7.566  -2.667
 5052CHOL    C169775  21.414   7.596  -2.491
 5052CHOL    C269776  21.253   7.626  -2.316
 5053CHOL   ROH69777  -7.517  14.143  10.507
 5053CHOL    R169778  -7.362  14.103  10.503
 5053CHOL    R269779  -7.283  13.914  10.614
 5053CHOL    R369780  -7.188  14.059  10.498
 5053CHOL    R469781  -7.147  13.880  10.611
 5053CHOL    R569782  -7.033  14.020  10.493
 5053CHOL    C169783  -6.800  13.960  10.487
 5053CHOL    C269784  -6.567  13.901  10.481
 5054CHOL   ROH69785  24.418  20.312  10.210
 5054CHOL    R169786  24.286  20.221  10.209
 5054CHOL    R269787  24.300  19.990  10.238
 5054CHOL    R369788  24.139  20.118  10.208
 5054CHOL    R469789  24.185  19.910  10.237
 5054CHOL    R569790  24.007  20.027  10.208
 5054CHOL    C169791  23.810  19.890  10.206
 5054CHOL    C269792  23.612  19.753  10.205
 5055CHOL   ROH69793  15.492  15.293  -6.163
 5055CHOL    R169794  15.446  15.244  -6.018
 5055CHOL    R269795  15.603  15.188  -5.855
 5055CHOL    R369796  15.394  15.189  -5.854
 5055CHOL    R469797  15.563  15.145  -5.727
 5055CHOL    R569798  15.348  15.140  -5.709
 5055CHOL    C169799  15.279  15.067  -5.491
 5055CHOL    C269800  15.210  14.994  -5.273
 5056CHOL   ROH69801  10.506  27.745  11.369
 5056CHOL    R169802  10.500  27.586  11.356
 5056CHOL    R269803  10.691  27.462  11.306
 5056CHOL    R369804  10.493  27.406  11.342
 5056CHOL    R469805  10.685  27.322  11.295
 5056CHOL    R569806  10.486  27.247  11.329
 5056CHOL    C169807  10.477  27.008  11.311
 5056CHOL    C269808  10.468  26.769  11.292
 5057CHOL   ROH69809   7.784  -5.790  18.057
 5057CHOL    R169810   7.803  -5.649  17.984
 5057CHOL    R269811   8.015  -5.567  17.934
 5057CHOL    R369812   7.824  -5.490  17.903
 5057CHOL    R469813   8.032  -5.444  17.870
 5057CHOL    R569814   7.843  -5.349  17.830
 5057CHOL    C169815   7.871  -5.137  17.721
 5057CHOL    C269816   7.900  -4.925  17.612
 5058CHOL   ROH69817  25.772   8.136   2.054
 5058CHOL    R169818  25.630   8.151   2.125
 5058CHOL    R269819  25.434   8.084   2.018
 5058CHOL    R369820  25.469   8.169   2.206
 5058CHOL    R469821  25.309   8.097   2.081
 5058CHOL    R569822  25.327   8.184   2.277
 5058CHOL    C169823  25.113   8.207   2.384
 5058CHOL    C269824  24.900   8.230   2.491
 5059CHOL   ROH69825  25.286  11.084   1.051
 5059CHOL    R169826  25.149  11.075   1.133
 5059CHOL    R269827  24.999  11.254   1.138
 5059CHOL    R369828  24.995  11.065   1.226
 5059CHOL    R469829  24.879  11.246   1.210
 5059CHOL    R569830  24.858  11.055   1.308
 5059CHOL    C169831  24.653  11.042   1.432
 5059CHOL    C269832  24.447  11.028   1.556
 5060CHOL   ROH69833   6.657  10.972  -7.600
 5060CHOL    R169834   6.685  10.965  -7.443
 5060CHOL    R269835   6.573  11.105  -7.294
 5060CHOL    R369836   6.717  10.956  -7.266
 5060CHOL    R469837   6.598  11.099  -7.157
 5060CHOL    R569838   6.745  10.949  -7.109
 5060CHOL    C169839   6.787  10.938  -6.873
 5060CHOL    C269840   6.829  10.927  -6.637
 5061CHOL   ROH69841   3.018   8.078  -6.466
 5061CHOL    R169842   3.079   8.094  -6.319
 5061CHOL    R269843   2.993   8.251  -6.169
 5061CHOL    R369844   3.148   8.112  -6.154
 5061CHOL    R469845   3.047   8.265  -6.041
 5061CHOL    R569846   3.209   8.128  -6.007
 5061CHOL    C169847   3.301   8.151  -5.786
 5061CHOL    C269848   3.392   8.175  -5.565
 5062CHOL   ROH69849  23.356  20.074  15.741
 5062CHOL    R169850  23.238  19.979  15.689
 5062CHOL    R269851  23.137  20.016  15.482
 5062CHOL    R369852  23.106  19.872  15.630
 5062CHOL    R469853  23.034  19.933  15.437
 5062CHOL    R569854  22.988  19.777  15.578
 5062CHOL    C169855  22.811  19.634  15.500
 5062CHOL    C269856  22.635  19.492  15.422
 5063CHOL   ROH69857   9.512  27.791  10.893
 5063CHOL    R169858   9.513  27.631  10.885
 5063CHOL    R269859   9.692  27.518  10.787
 5063CHOL    R369860   9.515  27.451  10.876
 5063CHOL    R469861   9.693  27.378  10.779
 5063CHOL    R569862   9.516  27.291  10.868
 5063CHOL    C169863   9.519  27.052  10.855
 5063CHOL    C269864   9.521  26.812  10.843
 5064CHOL   ROH69865  13.026  -5.611   1.778
 5064CHOL    R169866  12.998  -5.473   1.853
 5064CHOL    R269867  13.088  -5.273   1.773
 5064CHOL    R369868  12.966  -5.317   1.937
 5064CHOL    R469869  13.063  -5.152   1.839
 5064CHOL    R569870  12.938  -5.179   2.013
 5064CHOL    C169871  12.896  -4.971   2.125
 5064CHOL    C269872  12.854  -4.763   2.238
 5065CHOL   ROH69873  -4.976  16.318   2.400
 5065CHOL    R169874  -4.841  16.260   2.464
 5065CHOL    R269875  -4.760  16.343   2.667
 5065CHOL    R369876  -4.690  16.196   2.537
 5065CHOL    R469877  -4.642  16.292   2.724
 5065CHOL    R569878  -4.555  16.138   2.601
 5065CHOL    C169879  -4.353  16.052   2.698
 5065CHOL    C269880  -4.151  15.965   2.795
 5066CHOL   ROH69881   8.091  -5.306  18.995
 5066CHOL    R169882   8.107  -5.169  18.914
 5066CHOL    R269883   8.159  -4.970  19.023
 5066CHOL    R369884   8.125  -5.015  18.822
 5066CHOL    R469885   8.173  -4.850  18.952
 5066CHOL    R569886   8.141  -4.878  18.741
 5066CHOL    C169887   8.166  -4.673  18.619
 5066CHOL    C269888   8.190  -4.467  18.497
 5067CHOL   ROH69889  18.536  -1.140  20.833
 5067CHOL    R169890  18.457  -1.040  20.737
 5067CHOL    R269891  18.397  -1.104  20.520
 5067CHOL    R369892  18.368  -0.927  20.628
 5067CHOL    R469893  18.328  -1.016  20.436
 5067CHOL    R569894  18.288  -0.827  20.532
 5067CHOL    C169895  18.170  -0.677  20.387
 5067CHOL    C269896  18.051  -0.527  20.242
 5068CHOL   ROH69897   4.542  -3.867  19.879
 5068CHOL    R169898   4.590  -3.744  19.789
 5068CHOL    R269899   4.767  -3.767  19.639
 5068CHOL    R369900   4.644  -3.605  19.688
 5068CHOL    R469901   4.809  -3.659  19.560
 5068CHOL    R569902   4.693  -3.481  19.599
 5068CHOL    C169903   4.765  -3.296  19.464
 5068CHOL    C269904   4.837  -3.111  19.329
 5069CHOL   ROH69905  -2.100   4.979  -2.366
 5069CHOL    R169906  -1.994   5.025  -2.256
 5069CHOL    R269907  -1.998   4.936  -2.040
 5069CHOL    R369908  -1.874   5.077  -2.131
 5069CHOL    R469909  -1.905   4.977  -1.944
 5069CHOL    R569910  -1.768   5.124  -2.021
 5069CHOL    C169911  -1.609   5.193  -1.855
 5069CHOL    C269912  -1.449   5.262  -1.690
 5070CHOL   ROH69913   4.640  15.551  -6.223
 5070CHOL    R169914   4.687  15.499  -6.079
 5070CHOL    R269915   4.558  15.538  -5.889
 5070CHOL    R369916   4.741  15.442  -5.917
 5070CHOL    R469917   4.599  15.493  -5.763
 5070CHOL    R569918   4.788  15.390  -5.773
 5070CHOL    C169919   4.859  15.313  -5.558
 5070CHOL    C269920   4.930  15.235  -5.342
 5071CHOL   ROH69921  18.473  24.851   5.014
 5071CHOL    R169922  18.401  24.714   5.054
 5071CHOL    R269923  18.521  24.537   5.147
 5071CHOL    R369924  18.319  24.560   5.098
 5071CHOL    R469925  18.457  24.417   5.181
 5071CHOL    R569926  18.247  24.423   5.138
 5071CHOL    C169927  18.138  24.218   5.197
 5071CHOL    C269928  18.029  24.012   5.256
 5072CHOL   ROH69929  21.530  -2.117   3.863
 5072CHOL    R169930  21.425  -2.009   3.917
 5072CHOL    R269931  21.495  -1.830   4.050
 5072CHOL    R369932  21.307  -1.886   3.977
 5072CHOL    R469933  21.403  -1.735   4.097
 5072CHOL    R569934  21.203  -1.778   4.031
 5072CHOL    C169935  21.045  -1.615   4.111
 5072CHOL    C269936  20.888  -1.453   4.191
 5073CHOL   ROH69937   2.522  -5.376  15.368
 5073CHOL    R169938   2.587  -5.238  15.320
 5073CHOL    R269939   2.803  -5.231  15.232
 5073CHOL    R369940   2.660  -5.083  15.265
 5073CHOL    R469941   2.860  -5.111  15.190
 5073CHOL    R569942   2.724  -4.945  15.216
 5073CHOL    C169943   2.822  -4.738  15.144
 5073CHOL    C269944   2.919  -4.531  15.071
 5074CHOL   ROH69945   7.744  20.229  24.411
 5074CHOL    R169946   7.764  20.135  24.283
 5074CHOL    R269947   7.972  20.119  24.178
 5074CHOL    R369948   7.788  20.029  24.139
 5074CHOL    R469949   7.990  20.036  24.067
 5074CHOL    R569950   7.808  19.936  24.011
 5074CHOL    C169951   7.839  19.795  23.820
 5074CHOL    C269952   7.869  19.654  23.628
 5075CHOL   ROH69953  20.787  18.084  21.444
 5075CHOL    R169954  20.689  18.015  21.338
 5075CHOL    R269955  20.772  17.872  21.173
 5075CHOL    R369956  20.579  17.937  21.219
 5075CHOL    R469957  20.686  17.811  21.081
 5075CHOL    R569958  20.481  17.867  21.113
 5075CHOL    C169959  20.334  17.764  20.954
 5075CHOL    C269960  20.187  17.660  20.795
 5076CHOL   ROH69961  -3.712   6.593  -1.149
 5076CHOL    R169962  -3.589   6.618  -1.049
 5076CHOL    R269963  -3.547   6.473  -0.872
 5076CHOL    R369964  -3.452   6.646  -0.937
 5076CHOL    R469965  -3.440   6.495  -0.785
 5076CHOL    R569966  -3.329   6.672  -0.837
 5076CHOL    C169967  -3.145   6.709  -0.688
 5076CHOL    C269968  -2.961   6.747  -0.538
 5077CHOL   ROH69969  17.992  17.021  -4.318
 5077CHOL    R169970  17.918  16.957  -4.191
 5077CHOL    R269971  17.825  16.744  -4.202
 5077CHOL    R369972  17.834  16.886  -4.049
 5077CHOL    R469973  17.760  16.688  -4.091
 5077CHOL    R569974  17.759  16.822  -3.922
 5077CHOL    C169975  17.648  16.726  -3.733
 5077CHOL    C269976  17.536  16.631  -3.543
 5078CHOL   ROH69977  13.525  23.425  21.035
 5078CHOL    R169978  13.493  23.303  20.936
 5078CHOL    R269979  13.594  23.095  20.967
 5078CHOL    R369980  13.458  23.166  20.825
 5078CHOL    R469981  13.566  22.988  20.880
 5078CHOL    R569982  13.426  23.044  20.726
 5078CHOL    C169983  13.379  22.861  20.578
 5078CHOL    C269984  13.332  22.678  20.429
 5079CHOL   ROH69985   7.295  -4.160  20.544
 5079CHOL    R169986   7.317  -4.033  20.449
 5079CHOL    R269987   7.519  -3.917  20.450
 5079CHOL    R369988   7.342  -3.891  20.342
 5079CHOL    R469989   7.539  -3.806  20.367
 5079CHOL    R569990   7.365  -3.764  20.247
 5079CHOL    C169991   7.398  -3.574  20.104
 5079CHOL    C269992   7.431  -3.384  19.962
 5080CHOL   ROH69993  -7.497  12.071   6.575
 5080CHOL    R169994  -7.341  12.053   6.608
 5080CHOL    R269995  -7.264  12.054   6.828
 5080CHOL    R369996  -7.166  12.033   6.644
 5080CHOL    R469997  -7.128  12.038   6.856
 5080CHOL    R569998  -7.010  12.015   6.677
 5080CHOL    C169999  -6.777  11.988   6.726
 5080CHOL    C270000  -6.543  11.961   6.775
 5081CHOL   ROH70001   5.331  25.889  16.641
 5081CHOL    R170002   5.373  25.746  16.582
 5081CHOL    R270003   5.382  25.558  16.720
 5081CHOL    R370004   5.420  25.585  16.516
 5081CHOL    R470005   5.418  25.433  16.668
 5081CHOL    R570006   5.461  25.442  16.458
 5081CHOL    C170007   5.524  25.228  16.369
 5081CHOL    C270008   5.587  25.014  16.281
 5082CHOL   ROH70009  -3.547  18.527   1.817
 5082CHOL    R170010  -3.424  18.453   1.889
 5082CHOL    R270011  -3.377  18.490   2.114
 5082CHOL    R370012  -3.286  18.370   1.969
 5082CHOL    R470013  -3.270  18.425   2.177
 5082CHOL    R570014  -3.164  18.296   2.041
 5082CHOL    C170015  -2.979  18.186   2.148
 5082CHOL    C270016  -2.795  18.075   2.255
 5083CHOL   ROH70017  23.579  15.477  -0.105
 5083CHOL    R170018  23.455  15.430  -0.016
 5083CHOL    R270019  23.236  15.451  -0.095
 5083CHOL    R370020  23.314  15.376   0.084
 5083CHOL    R470021  23.127  15.409  -0.017
 5083CHOL    R570022  23.190  15.329   0.172
 5083CHOL    C170023  23.003  15.258   0.306
 5083CHOL    C270024  22.817  15.187   0.439
 5084CHOL   ROH70025  24.646  19.207   6.379
 5084CHOL    R170026  24.513  19.124   6.411
 5084CHOL    R270027  24.442  18.953   6.270
 5084CHOL    R370028  24.364  19.030   6.447
 5084CHOL    R470029  24.326  18.880   6.298
 5084CHOL    R570030  24.231  18.946   6.480
 5084CHOL    C170031  24.033  18.821   6.528
 5084CHOL    C270032  23.834  18.696   6.576
 5085CHOL   ROH70033  -5.904   3.561  15.259
 5085CHOL    R170034  -5.762   3.620  15.214
 5085CHOL    R270035  -5.639   3.757  15.357
 5085CHOL    R370036  -5.603   3.687  15.164
 5085CHOL    R470037  -5.514   3.809  15.318
 5085CHOL    R570038  -5.461   3.747  15.119
 5085CHOL    C170039  -5.248   3.836  15.052
 5085CHOL    C270040  -5.036   3.925  14.985
 5086CHOL   ROH70041  10.887  13.715  27.355
 5086CHOL    R170042  10.876  13.679  27.200
 5086CHOL    R270043  11.060  13.599  27.082
 5086CHOL    R370044  10.863  13.637  27.025
 5086CHOL    R470045  11.051  13.567  26.946
 5086CHOL    R570046  10.852  13.601  26.869
 5086CHOL    C170047  10.835  13.546  26.636
 5086CHOL    C270048  10.818  13.492  26.403
 5087CHOL   ROH70049  26.345  11.236  16.695
 5087CHOL    R170050  26.197  11.221  16.636
 5087CHOL    R270051  26.133  11.029  16.520
 5087CHOL    R370052  26.031  11.204  16.569
 5087CHOL    R470053  26.004  11.016  16.468
 5087CHOL    R570054  25.883  11.189  16.510
 5087CHOL    C170055  25.661  11.166  16.420
 5087CHOL    C270056  25.439  11.144  16.331
 5088CHOL   ROH70057  14.374  27.217   8.725
 5088CHOL    R170058  14.331  27.063   8.737
 5088CHOL    R270059  14.388  26.910   8.571
 5088CHOL    R370060  14.283  26.890   8.750
 5088CHOL    R470061  14.351  26.775   8.581
 5088CHOL    R570062  14.240  26.737   8.762
 5088CHOL    C170063  14.176  26.506   8.779
 5088CHOL    C270064  14.111  26.275   8.797
 5089CHOL   ROH70065   9.651  -5.438   0.948
 5089CHOL    R170066   9.654  -5.300   1.029
 5089CHOL    R270067   9.722  -5.293   1.252
 5089CHOL    R370068   9.658  -5.145   1.120
 5089CHOL    R470069   9.725  -5.172   1.323
 5089CHOL    R570070   9.661  -5.006   1.201
 5089CHOL    C170071   9.667  -4.799   1.322
 5089CHOL    C270072   9.672  -4.592   1.443
 5090CHOL   ROH70073  -2.549  -1.554  15.622
 5090CHOL    R170074  -2.437  -1.452  15.571
 5090CHOL    R270075  -2.233  -1.433  15.683
 5090CHOL    R370076  -2.310  -1.337  15.514
 5090CHOL    R470077  -2.134  -1.344  15.638
 5090CHOL    R570078  -2.198  -1.236  15.463
 5090CHOL    C170079  -2.029  -1.083  15.387
 5090CHOL    C270080  -1.860  -0.930  15.311
 5091CHOL   ROH70081  16.700  13.702  26.062
 5091CHOL    R170082  16.638  13.668  25.918
 5091CHOL    R270083  16.767  13.562  25.755
 5091CHOL    R370084  16.569  13.629  25.757
 5091CHOL    R470085  16.713  13.532  25.629
 5091CHOL    R570086  16.508  13.595  25.613
 5091CHOL    C170087  16.415  13.544  25.397
 5091CHOL    C270088  16.323  13.492  25.182
 5092CHOL   ROH70089  17.952  24.476  16.424
 5092CHOL    R170090  17.877  24.348  16.364
 5092CHOL    R270091  17.849  24.323  16.134
 5092CHOL    R370092  17.793  24.204  16.296
 5092CHOL    R470093  17.783  24.211  16.081
 5092CHOL    R570094  17.717  24.076  16.236
 5092CHOL    C170095  17.605  23.885  16.146
 5092CHOL    C270096  17.492  23.693  16.056
 5093CHOL   ROH70097  -0.290   0.127  20.794
 5093CHOL    R170098  -0.198   0.213  20.695
 5093CHOL    R270099   0.027   0.249  20.741
 5093CHOL    R370100  -0.095   0.309  20.583
 5093CHOL    R470101   0.107   0.324  20.655
 5093CHOL    R570102  -0.003   0.395  20.484
 5093CHOL    C170103   0.134   0.524  20.335
 5093CHOL    C270104   0.272   0.652  20.186
 5094CHOL   ROH70105  -0.683  20.861   0.461
 5094CHOL    R170106  -0.589  20.761   0.543
 5094CHOL    R270107  -0.645  20.693   0.759
 5094CHOL    R370108  -0.483  20.648   0.635
 5094CHOL    R470109  -0.563  20.605   0.831
 5094CHOL    R570110  -0.389  20.548   0.718
 5094CHOL    C170111  -0.247  20.398   0.841
 5094CHOL    C270112  -0.106  20.248   0.964
 5095CHOL   ROH70113   5.257   7.981  27.067
 5095CHOL    R170114   5.295   7.998  26.913
 5095CHOL    R270115   5.513   8.053  26.848
 5095CHOL    R370116   5.339   8.017  26.739
 5095CHOL    R470117   5.546   8.068  26.713
 5095CHOL    R570118   5.377   8.035  26.585
 5095CHOL    C170119   5.435   8.060  26.353
 5095CHOL    C270120   5.492   8.086  26.121
 5096CHOL   ROH70121  -7.850  10.778  12.255
 5096CHOL    R170122  -7.692  10.773  12.232
 5096CHOL    R270123  -7.554  10.948  12.302
 5096CHOL    R370124  -7.514  10.767  12.205
 5096CHOL    R470125  -7.416  10.943  12.281
 5096CHOL    R570126  -7.356  10.761  12.182
 5096CHOL    C170127  -7.118  10.754  12.147
 5096CHOL    C270128  -6.881  10.746  12.112
 5097CHOL   ROH70129  10.110  -7.021  15.482
 5097CHOL    R170130  10.106  -6.869  15.431
 5097CHOL    R270131  10.271  -6.717  15.495
 5097CHOL    R370132  10.103  -6.699  15.374
 5097CHOL    R470133  10.268  -6.585  15.451
 5097CHOL    R570134  10.099  -6.547  15.322
 5097CHOL    C170135  10.094  -6.320  15.246
 5097CHOL    C270136  10.088  -6.093  15.169
 5098CHOL   ROH70137  -5.386   2.144  14.807
 5098CHOL    R170138  -5.249   2.215  14.764
 5098CHOL    R270139  -5.159   2.389  14.890
 5098CHOL    R370140  -5.095   2.294  14.716
 5098CHOL    R470141  -5.039   2.451  14.852
 5098CHOL    R570142  -4.958   2.365  14.673
 5098CHOL    C170143  -4.753   2.470  14.608
 5098CHOL    C270144  -4.547   2.576  14.543
 5099CHOL   ROH70145  22.657   0.547   1.800
 5099CHOL    R170146  22.544   0.631   1.876
 5099CHOL    R270147  22.591   0.839   1.970
 5099CHOL    R370148  22.416   0.726   1.960
 5099CHOL    R470149  22.492   0.912   2.036
 5099CHOL    R570150  22.303   0.810   2.036
 5099CHOL    C170151  22.132   0.936   2.149
 5099CHOL    C270152  21.962   1.062   2.263
 5100CHOL   ROH70153   3.645  -6.043   5.069
 5100CHOL    R170154   3.698  -5.899   5.114
 5100CHOL    R270155   3.738  -5.850   5.338
 5100CHOL    R370156   3.759  -5.737   5.164
 5100CHOL    R470157   3.785  -5.724   5.378
 5100CHOL    R570158   3.812  -5.593   5.209
 5100CHOL    C170159   3.892  -5.377   5.276
 5100CHOL    C270160   3.972  -5.161   5.343
 5101CHOL   ROH70161  25.187   0.826  10.186
 5101CHOL    R170162  25.049   0.907  10.187
 5101CHOL    R270163  25.042   1.132  10.125
 5101CHOL    R370164  24.894   0.999  10.188
 5101CHOL    R470165  24.921   1.203  10.126
 5101CHOL    R570166  24.756   1.080  10.189
 5101CHOL    C170167  24.550   1.202  10.190
 5101CHOL    C270168  24.343   1.324  10.192
 5102CHOL   ROH70169   5.498   1.998  25.278
 5102CHOL    R170170   5.528   2.065  25.136
 5102CHOL    R270171   5.633   1.945  24.966
 5102CHOL    R370172   5.561   2.140  24.976
 5102CHOL    R470173   5.659   2.003  24.841
 5102CHOL    R570174   5.591   2.207  24.834
 5102CHOL    C170175   5.636   2.308  24.620
 5102CHOL    C270176   5.680   2.409  24.407
 5103CHOL   ROH70177  15.085  25.054   1.958
 5103CHOL    R170178  15.040  24.916   2.026
 5103CHOL    R270179  15.157  24.830   2.209
 5103CHOL    R370180  14.990  24.762   2.104
 5103CHOL    R470181  15.118  24.709   2.269
 5103CHOL    R570182  14.946  24.624   2.172
 5103CHOL    C170183  14.879  24.418   2.275
 5103CHOL    C270184  14.812  24.211   2.377
 5104CHOL   ROH70185  14.738   7.141  -7.008
 5104CHOL    R170186  14.688   7.167  -6.858
 5104CHOL    R270187  14.662   7.384  -6.777
 5104CHOL    R370188  14.631   7.197  -6.690
 5104CHOL    R470189  14.618   7.407  -6.646
 5104CHOL    R570190  14.581   7.223  -6.541
 5104CHOL    C170191  14.506   7.263  -6.316
 5104CHOL    C270192  14.430   7.303  -6.092
 5105CHOL   ROH70193   0.973  25.389   9.280
 5105CHOL    R170194   1.055  25.252   9.290
 5105CHOL    R270195   1.270  25.234   9.201
 5105CHOL    R370196   1.147  25.098   9.301
 5105CHOL    R470197   1.341  25.114   9.210
 5105CHOL    R570198   1.229  24.960   9.311
 5105CHOL    C170199   1.352  24.755   9.326
 5105CHOL    C270200   1.475  24.549   9.341
 5106CHOL   ROH70201  -0.632  -1.015  19.330
 5106CHOL    R170202  -0.538  -0.918  19.244
 5106CHOL    R270203  -0.308  -0.908  19.284
 5106CHOL    R370204  -0.432  -0.809  19.148
 5106CHOL    R470205  -0.226  -0.823  19.209
 5106CHOL    R570206  -0.338  -0.712  19.062
 5106CHOL    C170207  -0.196  -0.567  18.934
 5106CHOL    C270208  -0.055  -0.421  18.806
 5107CHOL   ROH70209  -1.758   0.684  19.781
 5107CHOL    R170210  -1.655   0.766  19.690
 5107CHOL    R270211  -1.443   0.681  19.644
 5107CHOL    R370212  -1.539   0.858  19.588
 5107CHOL    R470213  -1.352   0.752  19.564
 5107CHOL    R570214  -1.436   0.939  19.497
 5107CHOL    C170215  -1.281   1.062  19.361
 5107CHOL    C270216  -1.126   1.185  19.224
 5108CHOL   ROH70217  17.434  -5.789  13.419
 5108CHOL    R170218  17.365  -5.648  13.388
 5108CHOL    R270219  17.401  -5.464  13.526
 5108CHOL    R370220  17.288  -5.489  13.353
 5108CHOL    R470221  17.341  -5.340  13.499
 5108CHOL    R570222  17.219  -5.348  13.322
 5108CHOL    C170223  17.116  -5.136  13.275
 5108CHOL    C270224  17.013  -4.925  13.229
 5109CHOL   ROH70225  11.281  15.117  26.928
 5109CHOL    R170226  11.267  15.068  26.776
 5109CHOL    R270227  11.453  14.999  26.654
 5109CHOL    R370228  11.250  15.012  26.606
 5109CHOL    R470229  11.440  14.955  26.522
 5109CHOL    R570230  11.236  14.963  26.455
 5109CHOL    C170231  11.214  14.888  26.227
 5109CHOL    C270232  11.193  14.814  26.000
 5110CHOL   ROH70233   5.752  -3.555  -0.952
 5110CHOL    R170234   5.787  -3.435  -0.853
 5110CHOL    R270235   5.990  -3.321  -0.870
 5110CHOL    R370236   5.827  -3.299  -0.741
 5110CHOL    R470237   6.021  -3.215  -0.783
 5110CHOL    R570238   5.863  -3.179  -0.642
 5110CHOL    C170239   5.916  -2.998  -0.493
 5110CHOL    C270240   5.969  -2.817  -0.344
 5111CHOL   ROH70241   4.493  -2.406  -1.730
 5111CHOL    R170242   4.544  -2.296  -1.626
 5111CHOL    R270243   4.567  -2.346  -1.400
 5111CHOL    R370244   4.601  -2.172  -1.509
 5111CHOL    R470245   4.612  -2.250  -1.308
 5111CHOL    R570246   4.652  -2.061  -1.405
 5111CHOL    C170247   4.728  -1.896  -1.248
 5111CHOL    C270248   4.805  -1.731  -1.092
 5112CHOL   ROH70249  25.852  17.507   7.836
 5112CHOL    R170250  25.708  17.440   7.856
 5112CHOL    R270251  25.627  17.284   7.703
 5112CHOL    R370252  25.546  17.365   7.878
 5112CHOL    R470253  25.501  17.225   7.720
 5112CHOL    R570254  25.403  17.298   7.898
 5112CHOL    C170255  25.187  17.197   7.928
 5112CHOL    C270256  24.971  17.096   7.958
 5113CHOL   ROH70257  11.474  27.468  13.032
 5113CHOL    R170258  11.459  27.311  13.004
 5113CHOL    R270259  11.616  27.197  12.874
 5113CHOL    R370260  11.442  27.135  12.973
 5113CHOL    R470261  11.603  27.060  12.850
 5113CHOL    R570262  11.428  26.978  12.945
 5113CHOL    C170263  11.405  26.743  12.903
 5113CHOL    C270264  11.383  26.508  12.861
 5114CHOL   ROH70265  -6.870   5.272   5.752
 5114CHOL    R170266  -6.721   5.317   5.787
 5114CHOL    R270267  -6.677   5.456   5.969
 5114CHOL    R370268  -6.552   5.368   5.827
 5114CHOL    R470269  -6.546   5.495   6.000
 5114CHOL    R570270  -6.403   5.413   5.862
 5114CHOL    C170271  -6.179   5.481   5.915
 5114CHOL    C270272  -5.955   5.548   5.968
 5115CHOL   ROH70273   2.880  -6.300  12.052
 5115CHOL    R170274   2.943  -6.154  12.034
 5115CHOL    R270275   3.077  -6.059  12.199
 5115CHOL    R370276   3.014  -5.990  12.013
 5115CHOL    R470277   3.132  -5.932  12.183
 5115CHOL    R570278   3.077  -5.844  11.994
 5115CHOL    C170279   3.171  -5.625  11.967
 5115CHOL    C270280   3.265  -5.406  11.939
 5116CHOL   ROH70281   6.350  -2.546  22.170
 5116CHOL    R170282   6.382  -2.432  22.062
 5116CHOL    R270283   6.408  -2.210  22.126
 5116CHOL    R370284   6.418  -2.305  21.940
 5116CHOL    R470285   6.435  -2.110  22.031
 5116CHOL    R570286   6.450  -2.191  21.832
 5116CHOL    C170287   6.497  -2.021  21.670
 5116CHOL    C270288   6.545  -1.850  21.508
 5117CHOL   ROH70289  11.175  18.149  -5.872
 5117CHOL    R170290  11.161  18.077  -5.730
 5117CHOL    R270291  11.215  17.851  -5.704
 5117CHOL    R370292  11.146  17.996  -5.570
 5117CHOL    R470293  11.203  17.788  -5.579
 5117CHOL    R570294  11.132  17.924  -5.427
 5117CHOL    C170295  11.111  17.816  -5.214
 5117CHOL    C270296  11.091  17.708  -5.001
 5118CHOL   ROH70297  11.786  25.207  19.065
 5118CHOL    R170298  11.763  25.073  18.981
 5118CHOL    R270299  11.925  24.995  18.832
 5118CHOL    R370300  11.737  24.922  18.887
 5118CHOL    R470301  11.904  24.877  18.759
 5118CHOL    R570302  11.713  24.787  18.803
 5118CHOL    C170303  11.679  24.586  18.677
 5118CHOL    C270304  11.644  24.385  18.551
 5119CHOL   ROH70305  17.812  13.620  -5.665
 5119CHOL    R170306  17.740  13.590  -5.525
 5119CHOL    R270307  17.515  13.526  -5.518
 5119CHOL    R370308  17.658  13.557  -5.369
 5119CHOL    R470309  17.452  13.500  -5.396
 5119CHOL    R570310  17.585  13.527  -5.229
 5119CHOL    C170311  17.477  13.482  -5.020
 5119CHOL    C270312  17.368  13.438  -4.810
 5120CHOL   ROH70313  -3.890  10.397  21.252
 5120CHOL    R170314  -3.766  10.390  21.151
 5120CHOL    R270315  -3.637  10.579  21.106
 5120CHOL    R370316  -3.627  10.383  21.037
 5120CHOL    R470317  -3.529  10.573  21.018
 5120CHOL    R570318  -3.503  10.376  20.936
 5120CHOL    C170319  -3.318  10.366  20.784
 5120CHOL    C270320  -3.132  10.356  20.632
 5121CHOL   ROH70321  12.894   5.640  26.983
 5121CHOL    R170322  12.865   5.677  26.830
 5121CHOL    R270323  12.917   5.527  26.659
 5121CHOL    R370324  12.832   5.719  26.658
 5121CHOL    R470325  12.891   5.560  26.525
 5121CHOL    R570326  12.804   5.755  26.505
 5121CHOL    C170327  12.760   5.811  26.276
 5121CHOL    C270328  12.717   5.866  26.046
 5122CHOL   ROH70329  24.503  19.991   8.288
 5122CHOL    R170330  24.371  19.903   8.306
 5122CHOL    R270331  24.384  19.672   8.339
 5122CHOL    R370332  24.222  19.803   8.326
 5122CHOL    R470333  24.268  19.595   8.354
 5122CHOL    R570334  24.090  19.715   8.344
 5122CHOL    C170335  23.892  19.583   8.371
 5122CHOL    C270336  23.694  19.450   8.398
 5123CHOL   ROH70337   8.771  -7.027  15.369
 5123CHOL    R170338   8.782  -6.876  15.318
 5123CHOL    R270339   8.978  -6.754  15.345
 5123CHOL    R370340   8.793  -6.706  15.261
 5123CHOL    R470341   8.988  -6.621  15.300
 5123CHOL    R570342   8.804  -6.555  15.209
 5123CHOL    C170343   8.820  -6.328  15.133
 5123CHOL    C270344   8.836  -6.101  15.056
 5124CHOL   ROH70345  12.400  18.706  25.276
 5124CHOL    R170346  12.374  18.630  25.137
 5124CHOL    R270347  12.553  18.564  25.002
 5124CHOL    R370348  12.346  18.545  24.982
 5124CHOL    R470349  12.530  18.498  24.881
 5124CHOL    R570350  12.320  18.469  24.843
 5124CHOL    C170351  12.282  18.355  24.635
 5124CHOL    C270352  12.243  18.241  24.427
 5125CHOL   ROH70353  14.670  26.465   5.245
 5125CHOL    R170354  14.628  26.317   5.290
 5125CHOL    R270355  14.686  26.132   5.161
 5125CHOL    R370356  14.581  26.151   5.341
 5125CHOL    R470357  14.649  26.003   5.201
 5125CHOL    R570358  14.539  26.004   5.386
 5125CHOL    C170359  14.476  25.782   5.454
 5125CHOL    C270360  14.413  25.560   5.521
 5126CHOL   ROH70361  15.661  -5.620   3.558
 5126CHOL    R170362  15.605  -5.480   3.612
 5126CHOL    R270363  15.749  -5.319   3.699
 5126CHOL    R370364  15.542  -5.323   3.674
 5126CHOL    R470365  15.700  -5.197   3.746
 5126CHOL    R570366  15.486  -5.183   3.728
 5126CHOL    C170367  15.402  -4.974   3.810
 5126CHOL    C270368  15.318  -4.764   3.891
 5127CHOL   ROH70369  13.563   9.781  -7.581
 5127CHOL    R170370  13.528   9.782  -7.425
 5127CHOL    R270371  13.391   9.947  -7.334
 5127CHOL    R370372  13.489   9.783  -7.249
 5127CHOL    R470373  13.360   9.948  -7.197
 5127CHOL    R570374  13.454   9.784  -7.093
 5127CHOL    C170375  13.402   9.785  -6.859
 5127CHOL    C270376  13.349   9.787  -6.625
 5128CHOL   ROH70377  12.358  27.079   5.557
 5128CHOL    R170378  12.332  26.927   5.598
 5128CHOL    R270379  12.443  26.831   5.779
 5128CHOL    R370380  12.303  26.755   5.644
 5128CHOL    R470381  12.421  26.697   5.815
 5128CHOL    R570382  12.277  26.603   5.686
 5128CHOL    C170383  12.238  26.374   5.747
 5128CHOL    C270384  12.199  26.145   5.809
 5129CHOL   ROH70385   3.573  17.721  -4.880
 5129CHOL    R170386   3.630  17.654  -4.746
 5129CHOL    R270387   3.706  17.785  -4.569
 5129CHOL    R370388   3.693  17.578  -4.596
 5129CHOL    R470389   3.756  17.726  -4.452
 5129CHOL    R570390   3.750  17.510  -4.463
 5129CHOL    C170391   3.835  17.409  -4.262
 5129CHOL    C270392   3.920  17.308  -4.062
 5130CHOL   ROH70393  12.309  -6.624  16.083
 5130CHOL    R170394  12.281  -6.475  16.033
 5130CHOL    R270395  12.343  -6.291  16.163
 5130CHOL    R370396  12.251  -6.306  15.976
 5130CHOL    R470397  12.319  -6.160  16.119
 5130CHOL    R570398  12.223  -6.157  15.926
 5130CHOL    C170399  12.182  -5.933  15.851
 5130CHOL    C270400  12.140  -5.709  15.775
 5131CHOL   ROH70401   7.424   6.318  -7.345
 5131CHOL    R170402   7.443   6.351  -7.190
 5131CHOL    R270403   7.352   6.213  -7.025
 5131CHOL    R370404   7.465   6.388  -7.015
 5131CHOL    R470405   7.369   6.242  -6.889
 5131CHOL    R570406   7.484   6.421  -6.859
 5131CHOL    C170407   7.514   6.470  -6.626
 5131CHOL    C270408   7.543   6.520  -6.393
 5132CHOL   ROH70409  -4.725  19.343  14.215
 5132CHOL    R170410  -4.597  19.256  14.176
 5132CHOL    R270411  -4.402  19.358  14.099
 5132CHOL    R370412  -4.453  19.158  14.131
 5132CHOL    R470413  -4.289  19.281  14.064
 5132CHOL    R570414  -4.325  19.071  14.092
 5132CHOL    C170415  -4.132  18.940  14.033
 5132CHOL    C270416  -3.940  18.809  13.974
 5133CHOL   ROH70417  25.019  18.744   6.776
 5133CHOL    R170418  24.883  18.664   6.805
 5133CHOL    R270419  24.808  18.499   6.659
 5133CHOL    R370420  24.731  18.574   6.838
 5133CHOL    R470421  24.689  18.429   6.685
 5133CHOL    R570422  24.596  18.495   6.868
 5133CHOL    C170423  24.392  18.375   6.911
 5133CHOL    C270424  24.189  18.255   6.955
 5134CHOL   ROH70425  16.306  19.734  -3.596
 5134CHOL    R170426  16.248  19.650  -3.473
 5134CHOL    R270427  16.228  19.418  -3.485
 5134CHOL    R370428  16.183  19.555  -3.335
 5134CHOL    R470429  16.177  19.344  -3.378
 5134CHOL    R570430  16.125  19.470  -3.211
 5134CHOL    C170431  16.037  19.344  -3.027
 5134CHOL    C270432  15.950  19.218  -2.842
 5135CHOL   ROH70433  22.759  22.141   7.582
 5135CHOL    R170434  22.641  22.035   7.606
 5135CHOL    R270435  22.477  22.000   7.444
 5135CHOL    R370436  22.509  21.916   7.633
 5135CHOL    R470437  22.374  21.908   7.465
 5135CHOL    R570438  22.391  21.810   7.657
 5135CHOL    C170439  22.215  21.652   7.692
 5135CHOL    C270440  22.039  21.493   7.728
 5136CHOL   ROH70441  13.420   0.843  24.877
 5136CHOL    R170442  13.389   0.928  24.745
 5136CHOL    R270443  13.562   1.007  24.610
 5136CHOL    R370444  13.354   1.024  24.597
 5136CHOL    R470445  13.535   1.081  24.495
 5136CHOL    R570446  13.323   1.110  24.466
 5136CHOL    C170447  13.276   1.237  24.268
 5136CHOL    C270448  13.230   1.365  24.070
 5137CHOL   ROH70449  16.866  -4.367   1.974
 5137CHOL    R170450  16.802  -4.237   2.042
 5137CHOL    R270451  16.877  -4.023   1.988
 5137CHOL    R370452  16.729  -4.091   2.119
 5137CHOL    R470453  16.821  -3.910   2.047
 5137CHOL    R570454  16.665  -3.961   2.187
 5137CHOL    C170455  16.569  -3.767   2.289
 5137CHOL    C270456  16.472  -3.572   2.391
 5138CHOL   ROH70457  -4.236   1.135   3.383
 5138CHOL    R170458  -4.109   1.216   3.436
 5138CHOL    R270459  -3.942   1.110   3.560
 5138CHOL    R370460  -3.965   1.307   3.495
 5138CHOL    R470461  -3.831   1.181   3.607
 5138CHOL    R570462  -3.838   1.389   3.548
 5138CHOL    C170463  -3.647   1.510   3.627
 5138CHOL    C270464  -3.456   1.632   3.706
 5139CHOL   ROH70465  -3.189   1.112   1.442
 5139CHOL    R170466  -3.074   1.193   1.518
 5139CHOL    R270467  -2.886   1.084   1.603
 5139CHOL    R370468  -2.945   1.284   1.604
 5139CHOL    R470469  -2.785   1.155   1.669
 5139CHOL    R570470  -2.830   1.365   1.681
 5139CHOL    C170471  -2.658   1.487   1.795
 5139CHOL    C270472  -2.485   1.609   1.909
 5140CHOL   ROH70473  -3.212  18.534  18.602
 5140CHOL    R170474  -3.096  18.456  18.525
 5140CHOL    R270475  -2.924  18.572  18.418
 5140CHOL    R370476  -2.964  18.368  18.438
 5140CHOL    R470477  -2.822  18.504  18.350
 5140CHOL    R570478  -2.848  18.290  18.361
 5140CHOL    C170479  -2.673  18.173  18.246
 5140CHOL    C270480  -2.499  18.056  18.131
 5141CHOL   ROH70481  24.674   2.425  16.540
 5141CHOL    R170482  24.541   2.493  16.483
 5141CHOL    R270483  24.548   2.632  16.295
 5141CHOL    R370484  24.391   2.570  16.419
 5141CHOL    R470485  24.432   2.692  16.245
 5141CHOL    R570486  24.258   2.639  16.362
 5141CHOL    C170487  24.059   2.741  16.276
 5141CHOL    C270488  23.860   2.843  16.190
 5142CHOL   ROH70489   7.345  13.075  27.261
 5142CHOL    R170490   7.372  13.052  27.105
 5142CHOL    R270491   7.586  13.001  27.027
 5142CHOL    R370492   7.403  13.025  26.930
 5142CHOL    R470493   7.610  12.980  26.891
 5142CHOL    R570494   7.430  13.002  26.774
 5142CHOL    C170495   7.472  12.967  26.540
 5142CHOL    C270496   7.513  12.932  26.306
 5143CHOL   ROH70497  10.029   0.085  -4.917
 5143CHOL    R170498  10.024   0.172  -4.783
 5143CHOL    R270499  10.209   0.297  -4.714
 5143CHOL    R370500  10.019   0.270  -4.632
 5143CHOL    R470501  10.205   0.373  -4.597
 5143CHOL    R570502  10.014   0.357  -4.498
 5143CHOL    C170503  10.007   0.488  -4.297
 5143CHOL    C270504  10.000   0.619  -4.096
 5144CHOL   ROH70505  14.799  13.479  -6.866
 5144CHOL    R170506  14.756  13.447  -6.715
 5144CHOL    R270507  14.545  13.362  -6.666
 5144CHOL    R370508  14.709  13.410  -6.545
 5144CHOL    R470509  14.508  13.334  -6.534
 5144CHOL    R570510  14.666  13.378  -6.395
 5144CHOL    C170511  14.602  13.330  -6.168
 5144CHOL    C270512  14.538  13.281  -5.942
 5145CHOL   ROH70513  27.110   5.535  11.098
 5145CHOL    R170514  26.955   5.574  11.087
 5145CHOL    R270515  26.838   5.544  10.887
 5145CHOL    R370516  26.781   5.618  11.074
 5145CHOL    R470517  26.703   5.578  10.878
 5145CHOL    R570518  26.627   5.657  11.063
 5145CHOL    C170519  26.394   5.716  11.046
 5145CHOL    C270520  26.162   5.774  11.029
 5146CHOL   ROH70521   7.806  -1.673  -3.441
 5146CHOL    R170522   7.826  -1.567  -3.323
 5146CHOL    R270523   7.842  -1.635  -3.101
 5146CHOL    R370524   7.849  -1.447  -3.191
 5146CHOL    R470525   7.860  -1.542  -2.998
 5146CHOL    R570526   7.869  -1.340  -3.073
 5146CHOL    C170527   7.899  -1.181  -2.896
 5146CHOL    C270528   7.929  -1.021  -2.720
 5147CHOL   ROH70529  -5.976   2.360   7.127
 5147CHOL    R170530  -5.833   2.427   7.152
 5147CHOL    R270531  -5.738   2.430   7.365
 5147CHOL    R370532  -5.672   2.502   7.180
 5147CHOL    R470533  -5.612   2.488   7.387
 5147CHOL    R570534  -5.529   2.568   7.206
 5147CHOL    C170535  -5.314   2.669   7.243
 5147CHOL    C270536  -5.099   2.769   7.281
 5148CHOL   ROH70537  -0.636  24.069   7.296
 5148CHOL    R170538  -0.544  23.941   7.319
 5148CHOL    R270539  -0.313  23.951   7.284
 5148CHOL    R370540  -0.439  23.796   7.345
 5148CHOL    R470541  -0.232  23.838   7.305
 5148CHOL    R570542  -0.347  23.667   7.368
 5148CHOL    C170543  -0.208  23.475   7.403
 5148CHOL    C270544  -0.070  23.282   7.438
 5149CHOL   ROH70545  -6.735  11.592  16.425
 5149CHOL    R170546  -6.586  11.581  16.368
 5149CHOL    R270547  -6.423  11.458  16.481
 5149CHOL    R370548  -6.418  11.569  16.304
 5149CHOL    R470549  -6.293  11.448  16.431
 5149CHOL    R570550  -6.269  11.558  16.247
 5149CHOL    C170551  -6.045  11.542  16.162
 5149CHOL    C270552  -5.822  11.525  16.076
 5150CHOL   ROH70553  25.543  12.129  18.216
 5150CHOL    R170554  25.401  12.110  18.145
 5150CHOL    R270555  25.379  11.974  17.957
 5150CHOL    R370556  25.241  12.088  18.065
 5150CHOL    R470557  25.255  11.957  17.894
 5150CHOL    R570558  25.100  12.069  17.993
 5150CHOL    C170559  24.887  12.039  17.887
 5150CHOL    C270560  24.674  12.010  17.780
 5151CHOL   ROH70561   5.387  27.314  10.097
 5151CHOL    R170562   5.427  27.159  10.096
 5151CHOL    R270563   5.536  27.062  10.278
 5151CHOL    R370564   5.471  26.985  10.096
 5151CHOL    R470565   5.570  26.927  10.278
 5151CHOL    R570566   5.510  26.830  10.095
 5151CHOL    C170567   5.570  26.597  10.094
 5151CHOL    C270568   5.629  26.364  10.093
 5152CHOL   ROH70569  12.520  -7.034   5.001
 5152CHOL    R170570  12.494  -6.882   5.046
 5152CHOL    R270571  12.447  -6.717   4.888
 5152CHOL    R370572  12.465  -6.712   5.096
 5152CHOL    R470573  12.424  -6.585   4.927
 5152CHOL    R570574  12.438  -6.560   5.141
 5152CHOL    C170575  12.399  -6.333   5.207
 5152CHOL    C270576  12.360  -6.106   5.274
 5153CHOL   ROH70577   6.144  18.188  25.404
 5153CHOL    R170578   6.175  18.112  25.267
 5153CHOL    R270579   6.373  18.150  25.150
 5153CHOL    R370580   6.210  18.025  25.113
 5153CHOL    R470581   6.400  18.083  25.030
 5153CHOL    R570582   6.241  17.949  24.976
 5153CHOL    C170583   6.287  17.834  24.770
 5153CHOL    C270584   6.333  17.720  24.564
 5154CHOL   ROH70585  22.429  10.852  -2.676
 5154CHOL    R170586  22.313  10.844  -2.566
 5154CHOL    R270587  22.168  11.024  -2.532
 5154CHOL    R370588  22.183  10.836  -2.442
 5154CHOL    R470589  22.067  11.017  -2.435
 5154CHOL    R570590  22.067  10.828  -2.332
 5154CHOL    C170591  21.893  10.816  -2.167
 5154CHOL    C270592  21.719  10.805  -2.002
 5155CHOL   ROH70593   0.402  25.092  10.757
 5155CHOL    R170594   0.486  24.956  10.756
 5155CHOL    R270595   0.709  24.953  10.686
 5155CHOL    R370596   0.581  24.803  10.755
 5155CHOL    R470597   0.782  24.834  10.686
 5155CHOL    R570598   0.665  24.667  10.754
 5155CHOL    C170599   0.791  24.462  10.753
 5155CHOL    C270600   0.917  24.258  10.752
 5156CHOL   ROH70601  10.918  -6.822  15.950
 5156CHOL    R170602  10.909  -6.671  15.898
 5156CHOL    R270603  11.021  -6.499  16.008
 5156CHOL    R370604  10.899  -6.501  15.839
 5156CHOL    R470605  11.013  -6.367  15.962
 5156CHOL    R570606  10.890  -6.351  15.786
 5156CHOL    C170607  10.876  -6.124  15.708
 5156CHOL    C270608  10.862  -5.898  15.630
 5157CHOL   ROH70609   9.340   9.752  -7.909
 5157CHOL    R170610   9.346   9.756  -7.749
 5157CHOL    R270611   9.152   9.734  -7.621
 5157CHOL    R370612   9.352   9.760  -7.569
 5157CHOL    R470613   9.157   9.738  -7.482
 5157CHOL    R570614   9.358   9.763  -7.410
 5157CHOL    C170615   9.367   9.769  -7.170
 5157CHOL    C270616   9.375   9.775  -6.930
 5158CHOL   ROH70617   9.678   4.508  -7.000
 5158CHOL    R170618   9.680   4.556  -6.848
 5158CHOL    R270619   9.863   4.673  -6.761
 5158CHOL    R370620   9.683   4.611  -6.676
 5158CHOL    R470621   9.865   4.716  -6.628
 5158CHOL    R570622   9.685   4.660  -6.523
 5158CHOL    C170623   9.688   4.732  -6.295
 5158CHOL    C270624   9.692   4.805  -6.066
 5159CHOL   ROH70625  17.863   6.056  -5.465
 5159CHOL    R170626  17.793   6.090  -5.325
 5159CHOL    R270627  17.711   6.303  -5.281
 5159CHOL    R370628  17.713   6.127  -5.168
 5159CHOL    R470629  17.650   6.333  -5.158
 5159CHOL    R570630  17.643   6.161  -5.029
 5159CHOL    C170631  17.537   6.211  -4.819
 5159CHOL    C270632  17.432   6.262  -4.609
 5160CHOL   ROH70633  -2.363  21.472   3.822
 5160CHOL    R170634  -2.257  21.366   3.878
 5160CHOL    R270635  -2.270  21.287   4.097
 5160CHOL    R370636  -2.138  21.247   3.940
 5160CHOL    R470637  -2.177  21.194   4.145
 5160CHOL    R570638  -2.032  21.140   3.996
 5160CHOL    C170639  -1.872  20.981   4.080
 5160CHOL    C270640  -1.713  20.822   4.163
 5161CHOL   ROH70641   3.613  25.884   4.632
 5161CHOL    R170642   3.675  25.744   4.680
 5161CHOL    R270643   3.655  25.674   4.902
 5161CHOL    R370644   3.745  25.588   4.734
 5161CHOL    R470645   3.709  25.552   4.944
 5161CHOL    R570646   3.807  25.448   4.782
 5161CHOL    C170647   3.899  25.239   4.855
 5161CHOL    C270648   3.992  25.029   4.927
 5162CHOL   ROH70649  -6.663   3.746   7.750
 5162CHOL    R170650  -6.515   3.803   7.770
 5162CHOL    R270651  -6.361   3.693   7.905
 5162CHOL    R370652  -6.348   3.868   7.793
 5162CHOL    R470653  -6.231   3.743   7.923
 5162CHOL    R570654  -6.200   3.926   7.813
 5162CHOL    C170655  -5.978   4.012   7.843
 5162CHOL    C270656  -5.756   4.098   7.873
 5163CHOL   ROH70657   9.057   4.214  26.756
 5163CHOL    R170658   9.067   4.268  26.606
 5163CHOL    R270659   9.140   4.128  26.433
 5163CHOL    R370660   9.079   4.328  26.436
 5163CHOL    R470661   9.150   4.175  26.302
 5163CHOL    R570662   9.090   4.382  26.286
 5163CHOL    C170663   9.105   4.462  26.060
 5163CHOL    C270664   9.121   4.542  25.835
 5164CHOL   ROH70665  12.506   5.487  27.014
 5164CHOL    R170666  12.481   5.526  26.861
 5164CHOL    R270667  12.546   5.382  26.689
 5164CHOL    R370668  12.453   5.569  26.688
 5164CHOL    R470669  12.524   5.416  26.555
 5164CHOL    R570670  12.428   5.607  26.535
 5164CHOL    C170671  12.391   5.665  26.305
 5164CHOL    C270672  12.353   5.723  26.075
 5165CHOL   ROH70673   2.331  -5.378  15.095
 5165CHOL    R170674   2.398  -5.240  15.049
 5165CHOL    R270675   2.573  -5.237  14.896
 5165CHOL    R370676   2.473  -5.085  14.998
 5165CHOL    R470677   2.632  -5.116  14.856
 5165CHOL    R570678   2.539  -4.947  14.952
 5165CHOL    C170679   2.640  -4.740  14.883
 5165CHOL    C270680   2.740  -4.533  14.815
 5166CHOL   ROH70681  13.349  -3.108  -1.677
 5166CHOL    R170682  13.315  -2.991  -1.573
 5166CHOL    R270683  13.319  -2.767  -1.639
 5166CHOL    R370684  13.277  -2.860  -1.456
 5166CHOL    R470685  13.289  -2.665  -1.548
 5166CHOL    R570686  13.243  -2.743  -1.352
 5166CHOL    C170687  13.192  -2.568  -1.197
 5166CHOL    C270688  13.141  -2.393  -1.041
 5167CHOL   ROH70689  21.857   0.723   0.546
 5167CHOL    R170690  21.750   0.804   0.633
 5167CHOL    R270691  21.533   0.839   0.554
 5167CHOL    R370692  21.630   0.896   0.731
 5167CHOL    R470693  21.440   0.910   0.630
 5167CHOL    R570694  21.523   0.977   0.817
 5167CHOL    C170695  21.363   1.099   0.948
 5167CHOL    C270696  21.202   1.221   1.078
 5168CHOL   ROH70697  18.190   0.136  -2.448
 5168CHOL    R170698  18.114   0.224  -2.338
 5168CHOL    R270699  18.021   0.431  -2.394
 5168CHOL    R370700  18.028   0.323  -2.215
 5168CHOL    R470701  17.954   0.508  -2.297
 5168CHOL    R570702  17.952   0.411  -2.105
 5168CHOL    C170703  17.838   0.543  -1.940
 5168CHOL    C270704  17.724   0.675  -1.776
 5169CHOL   ROH70705  24.164  18.320  16.706
 5169CHOL    R170706  24.037  18.242  16.648
 5169CHOL    R270707  24.040  18.151  16.433
 5169CHOL    R370708  23.894  18.155  16.583
 5169CHOL    R470709  23.928  18.083  16.383
 5169CHOL    R570710  23.766  18.077  16.525
 5169CHOL    C170711  23.576  17.960  16.438
 5169CHOL    C270712  23.385  17.844  16.351
 5170CHOL   ROH70713  -6.882  15.941   8.064
 5170CHOL    R170714  -6.732  15.889   8.084
 5170CHOL    R270715  -6.550  16.032   8.056
 5170CHOL    R370716  -6.563  15.830   8.106
 5170CHOL    R470717  -6.419  15.986   8.073
 5170CHOL    R570718  -6.414  15.778   8.126
 5170CHOL    C170719  -6.189  15.699   8.156
 5170CHOL    C270720  -5.964  15.621   8.186
 5171CHOL   ROH70721  12.445  -7.138  14.285
 5171CHOL    R170722  12.422  -6.985  14.246
 5171CHOL    R270723  12.526  -6.891  14.059
 5171CHOL    R370724  12.396  -6.812  14.202
 5171CHOL    R470725  12.506  -6.757  14.025
 5171CHOL    R570726  12.374  -6.659  14.163
 5171CHOL    C170727  12.339  -6.428  14.105
 5171CHOL    C270728  12.305  -6.198  14.047
 5172CHOL   ROH70729  26.319  16.429   7.782
 5172CHOL    R170730  26.173  16.367   7.801
 5172CHOL    R270731  26.137  16.137   7.784
 5172CHOL    R370732  26.008  16.297   7.822
 5172CHOL    R470733  26.009  16.082   7.800
 5172CHOL    R570734  25.862  16.234   7.840
 5172CHOL    C170735  25.643  16.141   7.869
 5172CHOL    C270736  25.423  16.048   7.897
 5173CHOL   ROH70737   1.993  18.175  23.703
 5173CHOL    R170738   2.068  18.103  23.581
 5173CHOL    R270739   2.224  17.934  23.620
 5173CHOL    R370740   2.153  18.022  23.445
 5173CHOL    R470741   2.290  17.871  23.513
 5173CHOL    R570742   2.228  17.951  23.323
 5173CHOL    C170743   2.341  17.843  23.141
 5173CHOL    C270744   2.454  17.735  22.958
 5174CHOL   ROH70745   1.385  14.145  -5.195
 5174CHOL    R170746   1.463  14.110  -5.060
 5174CHOL    R270747   1.358  14.125  -4.853
 5174CHOL    R370748   1.551  14.070  -4.908
 5174CHOL    R470749   1.426  14.094  -4.735
 5174CHOL    R570750   1.629  14.035  -4.773
 5174CHOL    C170751   1.747  13.982  -4.570
 5174CHOL    C270752   1.864  13.929  -4.368
 5175CHOL   ROH70753  19.154   2.438  23.145
 5175CHOL    R170754  19.068   2.505  23.028
 5175CHOL    R270755  18.998   2.379  22.844
 5175CHOL    R370756  18.971   2.580  22.896
 5175CHOL    R470757  18.923   2.438  22.741
 5175CHOL    R570758  18.886   2.647  22.778
 5175CHOL    C170759  18.757   2.747  22.603
 5175CHOL    C270760  18.628   2.847  22.427
 5176CHOL   ROH70761  23.380   2.310   1.159
 5176CHOL    R170762  23.262   2.379   1.242
 5176CHOL    R270763  23.261   2.609   1.279
 5176CHOL    R370764  23.129   2.457   1.335
 5176CHOL    R470765  23.157   2.670   1.351
 5176CHOL    R570766  23.011   2.527   1.417
 5176CHOL    C170767  22.834   2.630   1.542
 5176CHOL    C270768  22.657   2.734   1.666
 5177CHOL   ROH70769  -7.852   7.510   9.670
 5177CHOL    R170770  -7.694   7.534   9.669
 5177CHOL    R270771  -7.585   7.618   9.857
 5177CHOL    R370772  -7.516   7.562   9.668
 5177CHOL    R470773  -7.446   7.639   9.857
 5177CHOL    R570774  -7.358   7.587   9.668
 5177CHOL    C170775  -7.121   7.623   9.666
 5177CHOL    C270776  -6.884   7.660   9.665
 5178CHOL   ROH70777   3.485  22.722  20.686
 5178CHOL    R170778   3.539  22.607  20.588
 5178CHOL    R270779   3.672  22.660  20.404
 5178CHOL    R370780   3.600  22.479  20.479
 5178CHOL    R470781   3.719  22.560  20.318
 5178CHOL    R570782   3.655  22.364  20.381
 5178CHOL    C170783   3.736  22.192  20.235
 5178CHOL    C270784   3.817  22.020  20.088
 5179CHOL   ROH70785  20.570  13.947  -3.796
 5179CHOL    R170786  20.475  13.910  -3.673
 5179CHOL    R270787  20.252  13.850  -3.707
 5179CHOL    R370788  20.367  13.869  -3.534
 5179CHOL    R470789  20.168  13.818  -3.599
 5179CHOL    R570790  20.272  13.832  -3.411
 5179CHOL    C170791  20.129  13.778  -3.226
 5179CHOL    C270792  19.986  13.723  -3.041
 5180CHOL   ROH70793  23.826  14.813  20.003
 5180CHOL    R170794  23.702  14.772  19.910
 5180CHOL    R270795  23.587  14.932  19.786
 5180CHOL    R370796  23.564  14.726  19.805
 5180CHOL    R470797  23.479  14.896  19.704
 5180CHOL    R570798  23.440  14.685  19.712
 5180CHOL    C170799  23.255  14.623  19.572
 5180CHOL    C270800  23.069  14.561  19.433
 5181CHOL   ROH70801  -2.003  23.312  10.880
 5181CHOL    R170802  -1.897  23.192  10.877
 5181CHOL    R270803  -1.725  23.180  11.034
 5181CHOL    R370804  -1.777  23.058  10.873
 5181CHOL    R470805  -1.632  23.075  11.031
 5181CHOL    R570806  -1.671  22.938  10.869
 5181CHOL    C170807  -1.512  22.758  10.864
 5181CHOL    C270808  -1.352  22.579  10.859
 5182CHOL   ROH70809  11.614  22.883  22.122
 5182CHOL    R170810  11.594  22.767  22.014
 5182CHOL    R270811  11.738  22.584  22.005
 5182CHOL    R370812  11.571  22.637  21.891
 5182CHOL    R470813  11.720  22.483  21.910
 5182CHOL    R570814  11.551  22.521  21.783
 5182CHOL    C170815  11.520  22.347  21.620
 5182CHOL    C270816  11.490  22.173  21.458
 5183CHOL   ROH70817  15.007   1.585  -5.011
 5183CHOL    R170818  14.967   1.661  -4.876
 5183CHOL    R270819  15.110   1.662  -4.692
 5183CHOL    R370820  14.922   1.747  -4.724
 5183CHOL    R470821  15.074   1.728  -4.574
 5183CHOL    R570822  14.881   1.823  -4.589
 5183CHOL    C170823  14.821   1.937  -4.387
 5183CHOL    C270824  14.761   2.051  -4.185
 5184CHOL   ROH70825   7.238  24.879  19.463
 5184CHOL    R170826   7.262  24.746  19.378
 5184CHOL    R270827   7.475  24.655  19.353
 5184CHOL    R370828   7.288  24.596  19.282
 5184CHOL    R470829   7.496  24.539  19.278
 5184CHOL    R570830   7.312  24.463  19.196
 5184CHOL    C170831   7.348  24.263  19.069
 5184CHOL    C270832   7.383  24.063  18.941
 5185CHOL   ROH70833  14.192  27.255  11.455
 5185CHOL    R170834  14.154  27.100  11.441
 5185CHOL    R270835  14.260  26.938  11.571
 5185CHOL    R370836  14.111  26.926  11.425
 5185CHOL    R470837  14.227  26.803  11.559
 5185CHOL    R570838  14.073  26.771  11.410
 5185CHOL    C170839  14.017  26.539  11.389
 5185CHOL    C270840  13.960  26.306  11.368
 5186CHOL   ROH70841  23.590  10.080  -1.379
 5186CHOL    R170842  23.465  10.077  -1.279
 5186CHOL    R270843  23.260   9.989  -1.346
 5186CHOL    R370844  23.324  10.075  -1.167
 5186CHOL    R470845  23.151   9.986  -1.259
 5186CHOL    R570846  23.199  10.072  -1.067
 5186CHOL    C170847  23.012  10.068  -0.917
 5186CHOL    C270848  22.825  10.064  -0.767
 5187CHOL   ROH70849  -0.003   0.145  21.068
 5187CHOL    R170850   0.086   0.231  20.967
 5187CHOL    R270851   0.298   0.306  21.028
 5187CHOL    R370852   0.187   0.327  20.853
 5187CHOL    R470853   0.377   0.381  20.940
 5187CHOL    R570854   0.276   0.413  20.752
 5187CHOL    C170855   0.411   0.541  20.600
 5187CHOL    C270856   0.545   0.669  20.448
 5188CHOL   ROH70857  18.158  -2.366  19.780
 5188CHOL    R170858  18.082  -2.258  19.689
 5188CHOL    R270859  18.045  -2.296  19.462
 5188CHOL    R370860  17.997  -2.136  19.588
 5188CHOL    R470861  17.979  -2.202  19.383
 5188CHOL    R570862  17.921  -2.028  19.497
 5188CHOL    C170863  17.807  -1.866  19.361
 5188CHOL    C270864  17.693  -1.704  19.225
 5189CHOL   ROH70865  -3.196   2.117   0.519
 5189CHOL    R170866  -3.082   2.188   0.607
 5189CHOL    R270867  -2.905   2.065   0.695
 5189CHOL    R370868  -2.955   2.268   0.705
 5189CHOL    R470869  -2.806   2.127   0.772
 5189CHOL    R570870  -2.841   2.339   0.793
 5189CHOL    C170871  -2.671   2.445   0.925
 5189CHOL    C270872  -2.500   2.551   1.056
 5190CHOL   ROH70873   3.013   5.107  25.702
 5190CHOL    R170874   3.076   5.151  25.562
 5190CHOL    R270875   3.144   4.991  25.406
 5190CHOL    R370876   3.147   5.200  25.404
 5190CHOL    R470877   3.199   5.029  25.283
 5190CHOL    R570878   3.211   5.244  25.263
 5190CHOL    C170879   3.305   5.309  25.053
 5190CHOL    C270880   3.400   5.375  24.843
 5191CHOL   ROH70881  10.175  -6.414  17.072
 5191CHOL    R170882  10.176  -6.267  17.008
 5191CHOL    R270883  10.373  -6.144  16.992
 5191CHOL    R370884  10.176  -6.102  16.937
 5191CHOL    R470885  10.374  -6.016  16.937
 5191CHOL    R570886  10.177  -5.956  16.873
 5191CHOL    C170887  10.178  -5.735  16.777
 5191CHOL    C270888  10.179  -5.515  16.682
 5192CHOL   ROH70889   3.056   6.920  -6.318
 5192CHOL    R170890   3.117   6.946  -6.172
 5192CHOL    R270891   2.984   6.925  -5.982
 5192CHOL    R370892   3.185   6.975  -6.008
 5192CHOL    R470893   3.037   6.947  -5.854
 5192CHOL    R570894   3.246   7.001  -5.862
 5192CHOL    C170895   3.336   7.040  -5.644
 5192CHOL    C270896   3.427   7.079  -5.425
 5193CHOL   ROH70897  14.896  18.132  24.970
 5193CHOL    R170898  14.853  18.060  24.834
 5193CHOL    R270899  14.858  17.828  24.813
 5193CHOL    R370900  14.805  17.980  24.680
 5193CHOL    R470901  14.821  17.765  24.694
 5193CHOL    R570902  14.761  17.908  24.544
 5193CHOL    C170903  14.697  17.800  24.340
 5193CHOL    C270904  14.632  17.693  24.135
 5194CHOL   ROH70905  19.615  -4.521  13.486
 5194CHOL    R170906  19.528  -4.391  13.454
 5194CHOL    R270907  19.565  -4.266  13.260
 5194CHOL    R370908  19.430  -4.244  13.418
 5194CHOL    R470909  19.489  -4.152  13.232
 5194CHOL    R570910  19.344  -4.113  13.386
 5194CHOL    C170911  19.213  -3.918  13.338
 5194CHOL    C270912  19.083  -3.722  13.290
 5195CHOL   ROH70913  10.495   6.903  27.526
 5195CHOL    R170914  10.491   6.932  27.369
 5195CHOL    R270915  10.688   6.947  27.244
 5195CHOL    R370916  10.486   6.964  27.192
 5195CHOL    R470917  10.684   6.972  27.107
 5195CHOL    R570918  10.482   6.993  27.035
 5195CHOL    C170919  10.476   7.036  26.799
 5195CHOL    C270920  10.470   7.079  26.563
 5196CHOL   ROH70921  17.756  -5.139  15.184
 5196CHOL    R170922  17.685  -5.003  15.138
 5196CHOL    R270923  17.691  -4.813  15.274
 5196CHOL    R370924  17.606  -4.850  15.087
 5196CHOL    R470925  17.630  -4.694  15.234
 5196CHOL    R570926  17.535  -4.714  15.042
 5196CHOL    C170927  17.430  -4.509  14.973
 5196CHOL    C270928  17.324  -4.305  14.905
 5197CHOL   ROH70929  26.716   4.419  11.794
 5197CHOL    R170930  26.565   4.469  11.776
 5197CHOL    R270931  26.511   4.636  11.623
 5197CHOL    R370932  26.395   4.525  11.757
 5197CHOL    R470933  26.379   4.679  11.608
 5197CHOL    R570934  26.244   4.574  11.739
 5197CHOL    C170935  26.017   4.649  11.713
 5197CHOL    C270936  25.791   4.724  11.686
 5198CHOL   ROH70937  26.049   6.979   2.987
 5198CHOL    R170938  25.904   7.004   3.050
 5198CHOL    R270939  25.740   6.839   3.043
 5198CHOL    R370940  25.741   7.033   3.120
 5198CHOL    R470941  25.613   6.861   3.097
 5198CHOL    R570942  25.596   7.059   3.183
 5198CHOL    C170943  25.379   7.097   3.276
 5198CHOL    C270944  25.161   7.135   3.370
 5199CHOL   ROH70945  20.446  10.377  -4.430
 5199CHOL    R170946  20.354  10.373  -4.299
 5199CHOL    R270947  20.278  10.170  -4.212
 5199CHOL    R370948  20.249  10.368  -4.153
 5199CHOL    R470949  20.197  10.166  -4.098
 5199CHOL    R570950  20.157  10.363  -4.022
 5199CHOL    C170951  20.018  10.357  -3.826
 5199CHOL    C270952  19.880  10.351  -3.630
 5200CHOL   ROH70953  -5.354   3.847  17.089
 5200CHOL    R170954  -5.218   3.906  17.029
 5200CHOL    R270955  -5.063   3.767  16.923
 5200CHOL    R370956  -5.064   3.972  16.963
 5200CHOL    R470957  -4.944   3.818  16.871
 5200CHOL    R570958  -4.928   4.030  16.903
 5200CHOL    C170959  -4.724   4.119  16.814
 5200CHOL    C270960  -4.519   4.207  16.724
 5201CHOL   ROH70961  -4.984   7.771  19.627
 5201CHOL    R170962  -4.852   7.788  19.539
 5201CHOL    R270963  -4.699   7.959  19.582
 5201CHOL    R370964  -4.703   7.807  19.439
 5201CHOL    R470965  -4.584   7.973  19.505
 5201CHOL    R570966  -4.571   7.824  19.351
 5201CHOL    C170967  -4.373   7.849  19.218
 5201CHOL    C270968  -4.175   7.874  19.085
 5202CHOL   ROH70969  17.111  16.516  -5.034
 5202CHOL    R170970  17.046  16.456  -4.901
 5202CHOL    R270971  16.995  16.228  -4.884
 5202CHOL    R370972  16.973  16.387  -4.751
 5202CHOL    R470973  16.939  16.175  -4.768
 5202CHOL    R570974  16.909  16.327  -4.618
 5202CHOL    C170975  16.811  16.236  -4.418
 5202CHOL    C270976  16.714  16.146  -4.218
 5203CHOL   ROH70977  14.638  24.723   1.066
 5203CHOL    R170978  14.596  24.589   1.142
 5203CHOL    R270979  14.658  24.552   1.364
 5203CHOL    R370980  14.548  24.438   1.228
 5203CHOL    R470981  14.622  24.434   1.430
 5203CHOL    R570982  14.506  24.303   1.304
 5203CHOL    C170983  14.443  24.102   1.418
 5203CHOL    C270984  14.379  23.901   1.532
 5204CHOL   ROH70985  16.353  18.555  24.190
 5204CHOL    R170986  16.296  18.479  24.061
 5204CHOL    R270987  16.359  18.259  24.014
 5204CHOL    R370988  16.232  18.393  23.916
 5204CHOL    R470989  16.309  18.193  23.901
 5204CHOL    R570990  16.175  18.317  23.787
 5204CHOL    C170991  16.090  18.203  23.594
 5204CHOL    C270992  16.004  18.089  23.401
 5205CHOL   ROH70993  27.594  10.907   8.628
 5205CHOL    R170994  27.434  10.902   8.637
 5205CHOL    R270995  27.303  11.073   8.548
 5205CHOL    R370996  27.255  10.895   8.647
 5205CHOL    R470997  27.163  11.068   8.556
 5205CHOL    R570998  27.095  10.890   8.657
 5205CHOL    C170999  26.855  10.882   8.670
 5205CHOL    C271000  26.616  10.874   8.684
 5206CHOL   ROH71001  -1.586  12.851  -3.403
 5206CHOL    R171002  -1.485  12.828  -3.281
 5206CHOL    R271003  -1.420  13.006  -3.145
 5206CHOL    R371004  -1.372  12.803  -3.144
 5206CHOL    R471005  -1.332  12.987  -3.038
 5206CHOL    R571006  -1.271  12.780  -3.021
 5206CHOL    C171007  -1.120  12.747  -2.838
 5206CHOL    C271008  -0.969  12.713  -2.655
 5207CHOL   ROH71009  -6.362  15.771  14.763
 5207CHOL    R171010  -6.216  15.718  14.723
 5207CHOL    R271011  -6.054  15.863  14.640
 5207CHOL    R371012  -6.053  15.658  14.679
 5207CHOL    R471013  -5.927  15.816  14.606
 5207CHOL    R571014  -5.907  15.605  14.640
 5207CHOL    C171015  -5.689  15.525  14.580
 5207CHOL    C271016  -5.470  15.445  14.521
 5208CHOL   ROH71017  25.582   5.209   2.830
 5208CHOL    R171018  25.441   5.250   2.893
 5208CHOL    R271019  25.394   5.472   2.949
 5208CHOL    R371020  25.282   5.296   2.964
 5208CHOL    R471021  25.271   5.508   3.004
 5208CHOL    R571022  25.140   5.337   3.026
 5208CHOL    C171023  24.929   5.399   3.121
 5208CHOL    C271024  24.717   5.461   3.215
 5209CHOL   ROH71025  18.630  25.354  12.126
 5209CHOL    R171026  18.555  25.213  12.114
 5209CHOL    R271027  18.640  25.043  11.979
 5209CHOL    R371028  18.471  25.054  12.102
 5209CHOL    R471029  18.575  24.920  11.969
 5209CHOL    R571030  18.397  24.914  12.090
 5209CHOL    C171031  18.284  24.702  12.073
 5209CHOL    C271032  18.172  24.491  12.055
 5210CHOL   ROH71033  -4.294  -0.632  12.449
 5210CHOL    R171034  -4.167  -0.538  12.425
 5210CHOL    R271035  -4.013  -0.499  12.596
 5210CHOL    R371036  -4.023  -0.432  12.399
 5210CHOL    R471037  -3.901  -0.417  12.575
 5210CHOL    R571038  -3.896  -0.338  12.375
 5210CHOL    C171039  -3.705  -0.197  12.339
 5210CHOL    C271040  -3.514  -0.056  12.304
 5211CHOL   ROH71041   1.514   8.488  25.730
 5211CHOL    R171042   1.587   8.502  25.589
 5211CHOL    R271043   1.802   8.417  25.555
 5211CHOL    R371044   1.670   8.518  25.429
 5211CHOL    R471045   1.866   8.429  25.432
 5211CHOL    R571046   1.744   8.532  25.288
 5211CHOL    C171047   1.854   8.554  25.076
 5211CHOL    C271048   1.964   8.575  24.864
 5212CHOL   ROH71049  26.862  12.784   5.137
 5212CHOL    R171050  26.709  12.762   5.180
 5212CHOL    R271051  26.539  12.757   5.020
 5212CHOL    R371052  26.538  12.737   5.228
 5212CHOL    R471053  26.406  12.738   5.057
 5212CHOL    R571054  26.385  12.716   5.271
 5212CHOL    C171055  26.156  12.683   5.335
 5212CHOL    C271056  25.927  12.650   5.399
 5213CHOL   ROH71057  10.031  15.175  -7.141
 5213CHOL    R171058  10.027  15.128  -6.988
 5213CHOL    R271059  10.137  14.934  -6.920
 5213CHOL    R371060  10.023  15.075  -6.816
 5213CHOL    R471061  10.134  14.893  -6.786
 5213CHOL    R571062  10.020  15.028  -6.663
 5213CHOL    C171063  10.014  14.957  -6.434
 5213CHOL    C271064  10.008  14.887  -6.205
 5214CHOL   ROH71065  19.713   6.488  -4.505
 5214CHOL    R171066  19.628   6.518  -4.373
 5214CHOL    R271067  19.544   6.731  -4.330
 5214CHOL    R371068  19.532   6.551  -4.225
 5214CHOL    R471069  19.469   6.757  -4.215
 5214CHOL    R571070  19.447   6.581  -4.093
 5214CHOL    C171071  19.319   6.626  -3.895
 5214CHOL    C271072  19.191   6.670  -3.697
 5215CHOL   ROH71073  12.306  -7.697   8.706
 5215CHOL    R171074  12.287  -7.538   8.715
 5215CHOL    R271075  12.362  -7.419   8.901
 5215CHOL    R371076  12.266  -7.360   8.725
 5215CHOL    R471077  12.345  -7.280   8.909
 5215CHOL    R571078  12.247  -7.202   8.734
 5215CHOL    C171079  12.219  -6.964   8.747
 5215CHOL    C271080  12.190  -6.726   8.761
 5216CHOL   ROH71081   0.851  17.788  -3.377
 5216CHOL    R171082   0.931  17.721  -3.256
 5216CHOL    R271083   1.106  17.835  -3.151
 5216CHOL    R371084   1.022  17.647  -3.119
 5216CHOL    R471085   1.176  17.777  -3.045
 5216CHOL    R571086   1.102  17.580  -2.998
 5216CHOL    C171087   1.222  17.480  -2.816
 5216CHOL    C271088   1.343  17.380  -2.634
 5217CHOL   ROH71089   9.342  -1.511  -3.744
 5217CHOL    R171090   9.345  -1.408  -3.621
 5217CHOL    R271091   9.432  -1.471  -3.414
 5217CHOL    R371092   9.348  -1.292  -3.484
 5217CHOL    R471093   9.434  -1.381  -3.307
 5217CHOL    R571094   9.351  -1.190  -3.361
 5217CHOL    C171095   9.356  -1.035  -3.177
 5217CHOL    C271096   9.361  -0.881  -2.993
 5218CHOL   ROH71097  22.809  -1.930   6.909
 5218CHOL    R171098  22.692  -1.824   6.936
 5218CHOL    R271099  22.580  -1.722   6.759
 5218CHOL    R371100  22.560  -1.705   6.966
 5218CHOL    R471101  22.478  -1.629   6.782
 5218CHOL    R571102  22.444  -1.600   6.993
 5218CHOL    C171103  22.268  -1.441   7.033
 5218CHOL    C271104  22.093  -1.282   7.074
 5219CHOL   ROH71105  23.369   3.544  19.622
 5219CHOL    R171106  23.248   3.598  19.532
 5219CHOL    R271107  23.196   3.498  19.328
 5219CHOL    R371108  23.112   3.658  19.432
 5219CHOL    R471109  23.090   3.545  19.250
 5219CHOL    R571110  22.990   3.712  19.342
 5219CHOL    C171111  22.809   3.793  19.208
 5219CHOL    C271112  22.627   3.873  19.073
 5220CHOL   ROH71113  17.734  -4.601  16.616
 5220CHOL    R171114  17.666  -4.468  16.559
 5220CHOL    R271115  17.637  -4.438  16.329
 5220CHOL    R371116  17.588  -4.319  16.494
 5220CHOL    R471117  17.577  -4.322  16.279
 5220CHOL    R571118  17.520  -4.186  16.437
 5220CHOL    C171119  17.417  -3.988  16.351
 5220CHOL    C271120  17.315  -3.789  16.265
 5221CHOL   ROH71121   8.582  -1.182  23.835
 5221CHOL    R171122   8.592  -1.082  23.710
 5221CHOL    R271123   8.789  -0.967  23.665
 5221CHOL    R371124   8.603  -0.970  23.570
 5221CHOL    R471125   8.798  -0.880  23.556
 5221CHOL    R571126   8.613  -0.871  23.446
 5221CHOL    C171127   8.628  -0.721  23.259
 5221CHOL    C271128   8.643  -0.571  23.072
 5222CHOL   ROH71129  17.504  24.024   2.007
 5222CHOL    R171130  17.436  23.899   2.080
 5222CHOL    R271131  17.521  23.817   2.282
 5222CHOL    R371132  17.360  23.758   2.163
 5222CHOL    R471133  17.462  23.708   2.346
 5222CHOL    R571134  17.292  23.634   2.236
 5222CHOL    C171135  17.190  23.446   2.346
 5222CHOL    C271136  17.088  23.259   2.456
 5223CHOL   ROH71137   5.011  26.822   6.219
 5223CHOL    R171138   5.054  26.671   6.251
 5223CHOL    R271139   5.118  26.608   6.466
 5223CHOL    R371140   5.103  26.502   6.287
 5223CHOL    R471141   5.156  26.476   6.494
 5223CHOL    R571142   5.146  26.351   6.319
 5223CHOL    C171143   5.212  26.126   6.367
 5223CHOL    C271144   5.277  25.900   6.415
 5224CHOL   ROH71145  20.443  -4.310   8.176
 5224CHOL    R171146  20.349  -4.181   8.192
 5224CHOL    R271147  20.196  -4.123   8.026
 5224CHOL    R371148  20.244  -4.037   8.210
 5224CHOL    R471149  20.114  -4.010   8.040
 5224CHOL    R571150  20.150  -3.908   8.226
 5224CHOL    C171151  20.009  -3.715   8.251
 5224CHOL    C271152  19.869  -3.522   8.275
 5225CHOL   ROH71153  10.668  26.666   3.581
 5225CHOL    R171154  10.656  26.517   3.637
 5225CHOL    R271155  10.682  26.471   3.864
 5225CHOL    R371156  10.643  26.348   3.700
 5225CHOL    R471157  10.672  26.341   3.914
 5225CHOL    R571158  10.631  26.199   3.757
 5225CHOL    C171159  10.613  25.975   3.841
 5225CHOL    C271160  10.595  25.751   3.925
 5226CHOL   ROH71161  -4.106  12.980  -0.885
 5226CHOL    R171162  -3.982  12.959  -0.785
 5226CHOL    R271163  -4.007  12.839  -0.587
 5226CHOL    R371164  -3.844  12.935  -0.674
 5226CHOL    R471165  -3.899  12.821  -0.500
 5226CHOL    R571166  -3.720  12.915  -0.574
 5226CHOL    C171167  -3.535  12.883  -0.425
 5226CHOL    C271168  -3.349  12.852  -0.275
 5227CHOL   ROH71169  14.901  -4.613  18.916
 5227CHOL    R171170  14.855  -4.482  18.836
 5227CHOL    R271171  14.967  -4.280  18.863
 5227CHOL    R371172  14.803  -4.336  18.746
 5227CHOL    R471173  14.926  -4.165  18.793
 5227CHOL    R571174  14.757  -4.205  18.666
 5227CHOL    C171175  14.688  -4.009  18.545
 5227CHOL    C271176  14.619  -3.813  18.425
 5228CHOL   ROH71177  -6.706   3.866  12.307
 5228CHOL    R171178  -6.557   3.920  12.284
 5228CHOL    R271179  -6.490   4.127  12.370
 5228CHOL    R371180  -6.390   3.981  12.259
 5228CHOL    R471181  -6.360   4.174  12.351
 5228CHOL    R571182  -6.241   4.036  12.237
 5228CHOL    C171183  -6.018   4.117  12.203
 5228CHOL    C271184  -5.795   4.198  12.169
 5229CHOL   ROH71185   9.883  -6.166   2.313
 5229CHOL    R171186   9.885  -6.022   2.382
 5229CHOL    R271187  10.016  -5.981   2.571
 5229CHOL    R371188   9.888  -5.859   2.460
 5229CHOL    R471189  10.018  -5.855   2.631
 5229CHOL    R571190   9.890  -5.715   2.529
 5229CHOL    C171191   9.893  -5.499   2.633
 5229CHOL    C271192   9.897  -5.282   2.736
 5230CHOL   ROH71193  13.713  -6.070   3.044
 5230CHOL    R171194  13.675  -5.927   3.106
 5230CHOL    R271195  13.771  -5.731   3.023
 5230CHOL    R371196  13.633  -5.767   3.176
 5230CHOL    R471197  13.738  -5.607   3.078
 5230CHOL    R571198  13.595  -5.625   3.238
 5230CHOL    C171199  13.538  -5.411   3.331
 5230CHOL    C271200  13.482  -5.197   3.424
 5231CHOL   ROH71201  22.847  15.852  -0.876
 5231CHOL    R171202  22.729  15.801  -0.780
 5231CHOL    R271203  22.652  15.582  -0.791
 5231CHOL    R371204  22.596  15.745  -0.673
 5231CHOL    R471205  22.548  15.537  -0.708
 5231CHOL    R571206  22.479  15.694  -0.577
 5231CHOL    C171207  22.302  15.618  -0.434
 5231CHOL    C271208  22.125  15.542  -0.291
 5232CHOL   ROH71209  -1.694  18.106  -1.046
 5232CHOL    R171210  -1.590  18.034  -0.948
 5232CHOL    R271211  -1.416  18.153  -0.849
 5232CHOL    R371212  -1.473  17.953  -0.838
 5232CHOL    R471213  -1.325  18.090  -0.763
 5232CHOL    R571214  -1.369  17.881  -0.740
 5232CHOL    C171215  -1.214  17.772  -0.593
 5232CHOL    C271216  -1.058  17.664  -0.446
 5233CHOL   ROH71217   8.556  27.690   8.158
 5233CHOL    R171218   8.567  27.531   8.173
 5233CHOL    R271219   8.639  27.399   7.995
 5233CHOL    R371220   8.579  27.352   8.189
 5233CHOL    R471221   8.649  27.260   8.008
 5233CHOL    R571222   8.590  27.193   8.204
 5233CHOL    C171223   8.606  26.954   8.226
 5233CHOL    C271224   8.622  26.716   8.248
 5234CHOL   ROH71225  -4.390  17.346   2.179
 5234CHOL    R171226  -4.260  17.281   2.246
 5234CHOL    R271227  -4.146  17.390   2.418
 5234CHOL    R371228  -4.114  17.208   2.321
 5234CHOL    R471229  -4.032  17.333   2.476
 5234CHOL    R571230  -3.984  17.142   2.389
 5234CHOL    C171231  -3.789  17.045   2.489
 5234CHOL    C271232  -3.594  16.947   2.590
 5235CHOL   ROH71233  -5.558  13.825  18.118
 5235CHOL    R171234  -5.420  13.791  18.045
 5235CHOL    R271235  -5.220  13.887  18.116
 5235CHOL    R371236  -5.264  13.754  17.962
 5235CHOL    R471237  -5.099  13.858  18.052
 5235CHOL    R571238  -5.126  13.720  17.889
 5235CHOL    C171239  -4.919  13.670  17.779
 5235CHOL    C271240  -4.711  13.619  17.669
 5236CHOL   ROH71241   3.258   1.262  24.103
 5236CHOL    R171242   3.320   1.338  23.976
 5236CHOL    R271243   3.380   1.563  23.989
 5236CHOL    R371244   3.389   1.424  23.834
 5236CHOL    R471245   3.433   1.630  23.879
 5236CHOL    R571246   3.450   1.500  23.707
 5236CHOL    C171247   3.543   1.614  23.518
 5236CHOL    C271248   3.635   1.728  23.328
 5237CHOL   ROH71249  26.738  15.555   8.398
 5237CHOL    R171250  26.588  15.500   8.412
 5237CHOL    R271251  26.459  15.455   8.223
 5237CHOL    R371252  26.420  15.438   8.428
 5237CHOL    R471253  26.328  15.407   8.236
 5237CHOL    R571254  26.271  15.383   8.442
 5237CHOL    C171255  26.046  15.300   8.463
 5237CHOL    C271256  25.822  15.218   8.484
 5238CHOL   ROH71257  24.442  19.899   7.523
 5238CHOL    R171258  24.310  19.811   7.547
 5238CHOL    R271259  24.310  19.581   7.508
 5238CHOL    R371260  24.162  19.713   7.574
 5238CHOL    R471261  24.195  19.505   7.529
 5238CHOL    R571262  24.030  19.625   7.598
 5238CHOL    C171263  23.833  19.493   7.635
 5238CHOL    C271264  23.635  19.362   7.671
 5239CHOL   ROH71265  -1.498  -2.116  16.608
 5239CHOL    R171266  -1.396  -2.009  16.547
 5239CHOL    R271267  -1.213  -2.077  16.419
 5239CHOL    R371268  -1.281  -1.889  16.477
 5239CHOL    R471269  -1.124  -1.984  16.365
 5239CHOL    R571270  -1.179  -1.782  16.416
 5239CHOL    C171271  -1.027  -1.622  16.324
 5239CHOL    C271272  -0.874  -1.461  16.232
 5240CHOL   ROH71273  19.439  -5.061  10.487
 5240CHOL    R171274  19.354  -4.925  10.480
 5240CHOL    R271275  19.427  -4.745  10.352
 5240CHOL    R371276  19.259  -4.773  10.472
 5240CHOL    R471277  19.353  -4.626  10.346
 5240CHOL    R571278  19.174  -4.637  10.466
 5240CHOL    C171279  19.047  -4.434  10.455
 5240CHOL    C271280  18.920  -4.231  10.445
 5241CHOL   ROH71281  11.952  12.975  -7.548
 5241CHOL    R171282  11.933  12.945  -7.392
 5241CHOL    R271283  11.932  12.727  -7.310
 5241CHOL    R371284  11.912  12.912  -7.216
 5241CHOL    R471285  11.915  12.701  -7.174
 5241CHOL    R571286  11.892  12.882  -7.060
 5241CHOL    C171287  11.864  12.838  -6.826
 5241CHOL    C271288  11.835  12.794  -6.592
 5242CHOL   ROH71289  25.017   7.058   0.930
 5242CHOL    R171290  24.881   7.081   1.011
 5242CHOL    R271291  24.674   7.053   0.907
 5242CHOL    R371292  24.728   7.108   1.102
 5242CHOL    R471293  24.555   7.074   0.978
 5242CHOL    R571294  24.592   7.131   1.183
 5242CHOL    C171295  24.387   7.166   1.304
 5242CHOL    C271296  24.183   7.201   1.425
 5243CHOL   ROH71297  19.532  -5.020   9.902
 5243CHOL    R171298  19.447  -4.885   9.901
 5243CHOL    R271299  19.549  -4.679   9.861
 5243CHOL    R371300  19.351  -4.732   9.900
 5243CHOL    R471301  19.474  -4.560   9.860
 5243CHOL    R571302  19.266  -4.597   9.899
 5243CHOL    C171303  19.138  -4.394   9.898
 5243CHOL    C271304  19.010  -4.191   9.896
 5244CHOL   ROH71305  27.533  11.022   7.920
 5244CHOL    R171306  27.374  11.016   7.937
 5244CHOL    R271307  27.246  11.211   7.941
 5244CHOL    R371308  27.195  11.009   7.955
 5244CHOL    R471309  27.107  11.206   7.956
 5244CHOL    R571310  27.036  11.004   7.972
 5244CHOL    C171311  26.797  10.995   7.997
 5244CHOL    C271312  26.559  10.986   8.022
 5245CHOL   ROH71313  19.242  17.745  -3.109
 5245CHOL    R171314  19.159  17.676  -2.990
 5245CHOL    R271315  18.930  17.639  -3.010
 5245CHOL    R371316  19.066  17.599  -2.857
 5245CHOL    R471317  18.857  17.579  -2.906
 5245CHOL    R571318  18.983  17.531  -2.738
 5245CHOL    C171319  18.859  17.428  -2.561
 5245CHOL    C271320  18.735  17.325  -2.383
 5246CHOL   ROH71321  -1.605  21.732  16.982
 5246CHOL    R171322  -1.502  21.627  16.919
 5246CHOL    R271323  -1.290  21.597  17.012
 5246CHOL    R371324  -1.386  21.509  16.849
 5246CHOL    R471325  -1.200  21.505  16.957
 5246CHOL    R571326  -1.283  21.404  16.786
 5246CHOL    C171327  -1.128  21.246  16.692
 5246CHOL    C271328  -0.974  21.088  16.598
 5247CHOL   ROH71329  -4.201  -0.967  11.300
 5247CHOL    R171330  -4.076  -0.868  11.288
 5247CHOL    R271331  -3.972  -0.782  11.478
 5247CHOL    R371332  -3.934  -0.758  11.274
 5247CHOL    R471333  -3.862  -0.696  11.467
 5247CHOL    R571334  -3.809  -0.659  11.261
 5247CHOL    C171335  -3.621  -0.511  11.243
 5247CHOL    C271336  -3.433  -0.363  11.225
 5248CHOL   ROH71337  18.841  21.344  -0.444
 5248CHOL    R171338  18.758  21.239  -0.357
 5248CHOL    R271339  18.755  21.012  -0.413
 5248CHOL    R371340  18.665  21.120  -0.258
 5248CHOL    R471341  18.683  20.920  -0.336
 5248CHOL    R571342  18.582  21.015  -0.171
 5248CHOL    C171343  18.458  20.856  -0.040
 5248CHOL    C271344  18.333  20.698   0.091
 5249CHOL   ROH71345  24.150  14.976  19.472
 5249CHOL    R171346  24.022  14.934  19.386
 5249CHOL    R271347  23.971  14.710  19.348
 5249CHOL    R371348  23.878  14.887  19.289
 5249CHOL    R471349  23.859  14.673  19.273
 5249CHOL    R571350  23.750  14.845  19.203
 5249CHOL    C171351  23.558  14.782  19.073
 5249CHOL    C271352  23.366  14.719  18.944
 5250CHOL   ROH71353  -3.526  21.351  13.130
 5250CHOL    R171354  -3.404  21.252  13.100
 5250CHOL    R271355  -3.206  21.330  13.005
 5250CHOL    R371356  -3.267  21.140  13.066
 5250CHOL    R471357  -3.100  21.243  12.978
 5250CHOL    R571358  -3.145  21.040  13.036
 5250CHOL    C171359  -2.963  20.891  12.991
 5250CHOL    C271360  -2.780  20.742  12.946
 5251CHOL   ROH71361  -7.662  13.430  11.045
 5251CHOL    R171362  -7.506  13.397  11.036
 5251CHOL    R271363  -7.359  13.461  11.205
 5251CHOL    R371364  -7.330  13.360  11.025
 5251CHOL    R471365  -7.222  13.432  11.197
 5251CHOL    R571366  -7.173  13.326  11.016
 5251CHOL    C171367  -6.939  13.277  11.001
 5251CHOL    C271368  -6.705  13.227  10.987
 5252CHOL   ROH71369  -2.165   2.737  20.898
 5252CHOL    R171370  -2.060   2.801  20.795
 5252CHOL    R271371  -1.837   2.734  20.795
 5252CHOL    R371372  -1.942   2.873  20.680
 5252CHOL    R471373  -1.745   2.790  20.706
 5252CHOL    R571374  -1.837   2.936  20.577
 5252CHOL    C171375  -1.680   3.032  20.424
 5252CHOL    C271376  -1.522   3.128  20.270
 5253CHOL   ROH71377  12.599  -1.166  -3.714
 5253CHOL    R171378  12.575  -1.067  -3.590
 5253CHOL    R271379  12.746  -0.932  -3.509
 5253CHOL    R371380  12.547  -0.956  -3.452
 5253CHOL    R471381  12.725  -0.845  -3.401
 5253CHOL    R571382  12.523  -0.858  -3.328
 5253CHOL    C171383  12.486  -0.709  -3.143
 5253CHOL    C271384  12.449  -0.561  -2.957
 5254CHOL   ROH71385  18.633  25.174  13.406
 5254CHOL    R171386  18.555  25.037  13.378
 5254CHOL    R271387  18.658  24.860  13.268
 5254CHOL    R371388  18.466  24.884  13.346
 5254CHOL    R471389  18.590  24.741  13.243
 5254CHOL    R571390  18.388  24.747  13.318
 5254CHOL    C171391  18.270  24.542  13.276
 5254CHOL    C271392  18.153  24.337  13.234
 5255CHOL   ROH71393  17.863  23.075   0.870
 5255CHOL    R171394  17.789  22.960   0.952
 5255CHOL    R271395  17.638  22.816   0.848
 5255CHOL    R371396  17.705  22.830   1.045
 5255CHOL    R471397  17.573  22.715   0.920
 5255CHOL    R571398  17.631  22.715   1.127
 5255CHOL    C171399  17.520  22.541   1.250
 5255CHOL    C271400  17.408  22.368   1.374
 5256CHOL   ROH71401  -7.423   5.583   9.524
 5256CHOL    R171402  -7.269   5.626   9.528
 5256CHOL    R271403  -7.112   5.497   9.644
 5256CHOL    R371404  -7.095   5.673   9.533
 5256CHOL    R471405  -6.977   5.535   9.648
 5256CHOL    R571406  -6.941   5.716   9.537
 5256CHOL    C171407  -6.710   5.780   9.544
 5256CHOL    C271408  -6.478   5.844   9.550
 5257CHOL   ROH71409  20.447  -0.136  -0.248
 5257CHOL    R171410  20.350  -0.048  -0.156
 5257CHOL    R271411  20.122  -0.034  -0.200
 5257CHOL    R371412  20.242   0.052  -0.052
 5257CHOL    R471413  20.037   0.043  -0.120
 5257CHOL    R571414  20.145   0.140   0.040
 5257CHOL    C171415  20.000   0.272   0.178
 5257CHOL    C271416  19.855   0.405   0.316
 5258CHOL   ROH71417  10.216   9.668  27.803
 5258CHOL    R171418  10.214   9.671  27.643
 5258CHOL    R271419  10.256   9.868  27.526
 5258CHOL    R371420  10.213   9.674  27.463
 5258CHOL    R471421  10.254   9.871  27.386
 5258CHOL    R571422  10.211   9.677  27.303
 5258CHOL    C171423  10.209   9.681  27.063
 5258CHOL    C271424  10.206   9.686  26.823
 5259CHOL   ROH71425  -6.930   7.550   4.380
 5259CHOL    R171426  -6.780   7.568   4.432
 5259CHOL    R271427  -6.696   7.435   4.604
 5259CHOL    R371428  -6.611   7.587   4.490
 5259CHOL    R471429  -6.565   7.450   4.650
 5259CHOL    R571430  -6.460   7.605   4.542
 5259CHOL    C171431  -6.235   7.631   4.620
 5259CHOL    C271432  -6.010   7.658   4.698
 5260CHOL   ROH71433   3.768  18.237  -4.699
 5260CHOL    R171434   3.823  18.168  -4.566
 5260CHOL    R271435   3.841  18.288  -4.367
 5260CHOL    R371436   3.886  18.090  -4.416
 5260CHOL    R471437   3.889  18.227  -4.250
 5260CHOL    R571438   3.941  18.020  -4.283
 5260CHOL    C171439   4.024  17.917  -4.083
 5260CHOL    C271440   4.107  17.813  -3.884
 5261CHOL   ROH71441  -6.644  16.165  12.848
 5261CHOL    R171442  -6.496  16.109  12.823
 5261CHOL    R271443  -6.310  16.248  12.846
 5261CHOL    R371444  -6.330  16.047  12.795
 5261CHOL    R471445  -6.181  16.199  12.825
 5261CHOL    R571446  -6.182  15.991  12.771
 5261CHOL    C171447  -5.960  15.907  12.733
 5261CHOL    C271448  -5.738  15.824  12.696
 5262CHOL   ROH71449  23.798  14.506  -0.262
 5262CHOL    R171450  23.672  14.468  -0.171
 5262CHOL    R271451  23.457  14.537  -0.229
 5262CHOL    R371452  23.530  14.425  -0.069
 5262CHOL    R471453  23.346  14.503  -0.150
 5262CHOL    R571454  23.404  14.387   0.022
 5262CHOL    C171455  23.215  14.330   0.158
 5262CHOL    C271456  23.026  14.273   0.295
 5263CHOL   ROH71457  12.081  10.796  -7.811
 5263CHOL    R171458  12.062  10.787  -7.652
 5263CHOL    R271459  11.887  10.899  -7.547
 5263CHOL    R371460  12.040  10.777  -7.474
 5263CHOL    R471461  11.870  10.892  -7.408
 5263CHOL    R571462  12.020  10.769  -7.316
 5263CHOL    C171463  11.991  10.755  -7.078
 5263CHOL    C271464  11.962  10.742  -6.840
 5264CHOL   ROH71465  -5.019  12.322   0.250
 5264CHOL    R171466  -4.885  12.305   0.336
 5264CHOL    R271467  -4.846  12.112   0.460
 5264CHOL    R371468  -4.734  12.287   0.433
 5264CHOL    R471469  -4.728  12.098   0.536
 5264CHOL    R571470  -4.601  12.270   0.519
 5264CHOL    C171471  -4.400  12.245   0.648
 5264CHOL    C271472  -4.199  12.220   0.777
 5265CHOL   ROH71473  25.776   7.351  17.537
 5265CHOL    R171474  25.635   7.377  17.465
 5265CHOL    R271475  25.611   7.545  17.305
 5265CHOL    R371476  25.477   7.406  17.385
 5265CHOL    R471477  25.488   7.567  17.243
 5265CHOL    R571478  25.336   7.431  17.313
 5265CHOL    C171479  25.126   7.470  17.205
 5265CHOL    C271480  24.915   7.509  17.098
 5266CHOL   ROH71481   1.841   4.573  -5.119
 5266CHOL    R171482   1.914   4.622  -4.986
 5266CHOL    R271483   2.097   4.506  -4.898
 5266CHOL    R371484   1.996   4.678  -4.835
 5266CHOL    R471485   2.161   4.549  -4.782
 5266CHOL    R571486   2.069   4.727  -4.702
 5266CHOL    C171487   2.179   4.802  -4.502
 5266CHOL    C271488   2.289   4.876  -4.302
 5267CHOL   ROH71489  11.749  24.556  -0.221
 5267CHOL    R171490  11.732  24.425  -0.130
 5267CHOL    R271491  11.849  24.229  -0.180
 5267CHOL    R371492  11.714  24.278  -0.029
 5267CHOL    R471493  11.835  24.115  -0.101
 5267CHOL    R571494  11.697  24.147   0.062
 5267CHOL    C171495  11.672  23.951   0.198
 5267CHOL    C271496  11.647  23.754   0.334
 5268CHOL   ROH71497  16.429  23.834   0.796
 5268CHOL    R171498  16.368  23.710   0.877
 5268CHOL    R271499  16.214  23.566   0.777
 5268CHOL    R371500  16.299  23.571   0.968
 5268CHOL    R471501  16.160  23.458   0.848
 5268CHOL    R571502  16.237  23.447   1.048
 5268CHOL    C171503  16.146  23.261   1.170
 5268CHOL    C271504  16.054  23.075   1.291
 5269CHOL   ROH71505   8.794  -6.640  16.398
 5269CHOL    R171506   8.805  -6.492  16.338
 5269CHOL    R271507   8.847  -6.456  16.112
 5269CHOL    R371508   8.817  -6.325  16.272
 5269CHOL    R471509   8.857  -6.327  16.060
 5269CHOL    R571510   8.829  -6.177  16.212
 5269CHOL    C171511   8.845  -5.955  16.123
 5269CHOL    C271512   8.862  -5.733  16.033
 5270CHOL   ROH71513  -0.493  24.232   7.657
 5270CHOL    R171514  -0.401  24.102   7.678
 5270CHOL    R271515  -0.195  24.083   7.570
 5270CHOL    R371516  -0.298  23.957   7.701
 5270CHOL    R471517  -0.115  23.969   7.588
 5270CHOL    R571518  -0.207  23.827   7.721
 5270CHOL    C171519  -0.069  23.633   7.752
 5270CHOL    C271520   0.069  23.438   7.783
 5271CHOL   ROH71521   5.024  17.061  -5.731
 5271CHOL    R171522   5.068  16.997  -5.591
 5271CHOL    R271523   5.128  17.133  -5.411
 5271CHOL    R371524   5.117  16.926  -5.433
 5271CHOL    R471525   5.167  17.077  -5.288
 5271CHOL    R571526   5.161  16.862  -5.293
 5271CHOL    C171527   5.227  16.766  -5.083
 5271CHOL    C271528   5.293  16.671  -4.873
 5272CHOL   ROH71529  20.874  16.689  22.163
 5272CHOL    R171530  20.776  16.632  22.050
 5272CHOL    R271531  20.850  16.473  21.896
 5272CHOL    R371532  20.666  16.569  21.923
 5272CHOL    R471533  20.764  16.424  21.797
 5272CHOL    R571534  20.568  16.512  21.809
 5272CHOL    C171535  20.421  16.427  21.640
 5272CHOL    C271536  20.274  16.342  21.470
 5273CHOL   ROH71537  11.172  20.055  24.639
 5273CHOL    R171538  11.157  19.964  24.508
 5273CHOL    R271539  11.291  20.001  24.321
 5273CHOL    R371540  11.141  19.862  24.361
 5273CHOL    R471541  11.278  19.922  24.206
 5273CHOL    R571542  11.126  19.771  24.230
 5273CHOL    C171543  11.104  19.635  24.034
 5273CHOL    C271544  11.082  19.499  23.837
 5274CHOL   ROH71545  15.904  23.297  -0.348
 5274CHOL    R171546  15.846  23.177  -0.260
 5274CHOL    R271547  15.780  22.976  -0.358
 5274CHOL    R371548  15.780  23.042  -0.160
 5274CHOL    R471549  15.729  22.872  -0.281
 5274CHOL    R571550  15.722  22.923  -0.071
 5274CHOL    C171551  15.634  22.743   0.061
 5274CHOL    C271552  15.546  22.563   0.194
 5275CHOL   ROH71553  14.954  -3.687  -0.330
 5275CHOL    R171554  14.909  -3.566  -0.236
 5275CHOL    R271555  15.063  -3.455  -0.101
 5275CHOL    R371556  14.858  -3.429  -0.130
 5275CHOL    R471557  15.024  -3.348  -0.019
 5275CHOL    R571558  14.813  -3.308  -0.036
 5275CHOL    C171559  14.745  -3.126   0.105
 5275CHOL    C271560  14.678  -2.944   0.246
 5276CHOL   ROH71561   3.825  16.822  -5.415
 5276CHOL    R171562   3.879  16.760  -5.278
 5276CHOL    R271563   3.892  16.890  -5.085
 5276CHOL    R371564   3.940  16.691  -5.123
 5276CHOL    R471565   3.939  16.836  -4.964
 5276CHOL    R571566   3.994  16.629  -4.986
 5276CHOL    C171567   4.075  16.536  -4.780
 5276CHOL    C271568   4.156  16.444  -4.574
 5277CHOL   ROH71569  17.417  -5.580  14.299
 5277CHOL    R171570  17.349  -5.440  14.260
 5277CHOL    R271571  17.374  -5.253  14.397
 5277CHOL    R371572  17.273  -5.283  14.217
 5277CHOL    R471573  17.315  -5.131  14.363
 5277CHOL    R571574  17.205  -5.144  14.178
 5277CHOL    C171575  17.103  -4.934  14.120
 5277CHOL    C271576  17.001  -4.724  14.062
 5278CHOL   ROH71577   2.579  16.844  -4.854
 5278CHOL    R171578   2.644  16.782  -4.722
 5278CHOL    R271579   2.623  16.890  -4.516
 5278CHOL    R371580   2.718  16.713  -4.572
 5278CHOL    R471581   2.680  16.836  -4.400
 5278CHOL    R571582   2.783  16.652  -4.440
 5278CHOL    C171583   2.881  16.559  -4.241
 5278CHOL    C271584   2.979  16.467  -4.043
 5279CHOL   ROH71585   4.457  27.002   8.721
 5279CHOL    R171586   4.506  26.850   8.732
 5279CHOL    R271587   4.548  26.752   8.939
 5279CHOL    R371588   4.561  26.679   8.743
 5279CHOL    R471589   4.591  26.619   8.948
 5279CHOL    R571590   4.610  26.527   8.754
 5279CHOL    C171591   4.683  26.299   8.770
 5279CHOL    C271592   4.757  26.071   8.786
 5280CHOL   ROH71593  17.372  24.217  17.583
 5280CHOL    R171594  17.303  24.090  17.514
 5280CHOL    R271595  17.282  24.076  17.282
 5280CHOL    R371596  17.225  23.947  17.437
 5280CHOL    R471597  17.222  23.965  17.222
 5280CHOL    R571598  17.156  23.821  17.368
 5280CHOL    C171599  17.053  23.630  17.265
 5280CHOL    C271600  16.950  23.440  17.162
 5281CHOL   ROH71601  12.008  21.114  23.726
 5281CHOL    R171602  11.990  21.013  23.604
 5281CHOL    R271603  12.172  20.899  23.513
 5281CHOL    R371604  11.969  20.898  23.466
 5281CHOL    R471605  12.156  20.810  23.406
 5281CHOL    R571606  11.950  20.797  23.344
 5281CHOL    C171607  11.923  20.645  23.160
 5281CHOL    C271608  11.895  20.493  22.976
 5282CHOL   ROH71609  11.775   4.867  26.944
 5282CHOL    R171610  11.760   4.911  26.791
 5282CHOL    R271611  11.809   4.762  26.618
 5282CHOL    R371612  11.743   4.960  26.618
 5282CHOL    R471613  11.796   4.800  26.484
 5282CHOL    R571614  11.728   5.004  26.465
 5282CHOL    C171615  11.705   5.069  26.235
 5282CHOL    C271616  11.683   5.135  26.005
 5283CHOL   ROH71617   4.591  22.470  21.507
 5283CHOL    R171618   4.636  22.358  21.402
 5283CHOL    R271619   4.745  22.415  21.204
 5283CHOL    R371620   4.686  22.232  21.284
 5283CHOL    R471621   4.784  22.317  21.112
 5283CHOL    R571622   4.731  22.119  21.179
 5283CHOL    C171623   4.798  21.951  21.022
 5283CHOL    C271624   4.865  21.783  20.864
 5284CHOL   ROH71625  -5.838   5.575   2.580
 5284CHOL    R171626  -5.696   5.610   2.645
 5284CHOL    R271627  -5.681   5.731   2.844
 5284CHOL    R371628  -5.536   5.648   2.718
 5284CHOL    R471629  -5.557   5.761   2.901
 5284CHOL    R571630  -5.394   5.683   2.783
 5284CHOL    C171631  -5.181   5.735   2.880
 5284CHOL    C271632  -4.968   5.787   2.978
 5285CHOL   ROH71633  26.894   9.512  15.378
 5285CHOL    R171634  26.741   9.515  15.332
 5285CHOL    R271635  26.679   9.446  15.117
 5285CHOL    R371636  26.569   9.518  15.279
 5285CHOL    R471637  26.545   9.448  15.077
 5285CHOL    R571638  26.416   9.520  15.233
 5285CHOL    C171639  26.186   9.525  15.163
 5285CHOL    C271640  25.956   9.529  15.094
 5286CHOL   ROH71641  -4.070  19.763   4.477
 5286CHOL    R171642  -3.944  19.678   4.528
 5286CHOL    R271643  -3.908  19.642   4.755
 5286CHOL    R371644  -3.803  19.582   4.585
 5286CHOL    R471645  -3.798  19.568   4.800
 5286CHOL    R571646  -3.677  19.497   4.636
 5286CHOL    C171647  -3.489  19.369   4.712
 5286CHOL    C271648  -3.301  19.242   4.789
 5287CHOL   ROH71649  -7.476  12.339  13.634
 5287CHOL    R171650  -7.321  12.320  13.599
 5287CHOL    R271651  -7.159  12.328  13.767
 5287CHOL    R371652  -7.147  12.300  13.561
 5287CHOL    R471653  -7.023  12.312  13.737
 5287CHOL    R571654  -6.992  12.281  13.526
 5287CHOL    C171655  -6.759  12.253  13.474
 5287CHOL    C271656  -6.526  12.225  13.422
 5288CHOL   ROH71657  20.948  16.722  -2.356
 5288CHOL    R171658  20.851  16.662  -2.244
 5288CHOL    R271659  20.805  16.434  -2.234
 5288CHOL    R371660  20.741  16.595  -2.118
 5288CHOL    R471661  20.720  16.382  -2.136
 5288CHOL    R571662  20.644  16.535  -2.006
 5288CHOL    C171663  20.497  16.446  -1.838
 5288CHOL    C271664  20.351  16.356  -1.670
 5289CHOL   ROH71665   0.384   1.170  22.177
 5289CHOL    R171666   0.471   1.246  22.066
 5289CHOL    R271667   0.700   1.282  22.098
 5289CHOL    R371668   0.570   1.331  21.942
 5289CHOL    R471669   0.776   1.348  22.001
 5289CHOL    R571670   0.657   1.407  21.831
 5289CHOL    C171671   0.788   1.521  21.666
 5289CHOL    C271672   0.919   1.635  21.500
 5290CHOL   ROH71673  20.505  -2.931  16.118
 5290CHOL    R171674  20.410  -2.815  16.063
 5290CHOL    R271675  20.473  -2.684  15.881
 5290CHOL    R371676  20.303  -2.683  16.002
 5290CHOL    R471677  20.390  -2.582  15.833
 5290CHOL    R571678  20.208  -2.567  15.947
 5290CHOL    C171679  20.065  -2.392  15.866
 5290CHOL    C271680  19.923  -2.218  15.784
 5291CHOL   ROH71681  12.729  17.137  -6.137
 5291CHOL    R171682  12.703  17.073  -5.993
 5291CHOL    R271683  12.877  17.053  -5.838
 5291CHOL    R371684  12.674  17.002  -5.830
 5291CHOL    R471685  12.854  16.997  -5.711
 5291CHOL    R571686  12.648  16.938  -5.685
 5291CHOL    C171687  12.610  16.842  -5.469
 5291CHOL    C271688  12.571  16.747  -5.252
 5292CHOL   ROH71689  11.629  15.889  26.620
 5292CHOL    R171690  11.611  15.834  26.471
 5292CHOL    R271691  11.631  15.606  26.424
 5292CHOL    R371692  11.592  15.772  26.303
 5292CHOL    R471693  11.616  15.558  26.294
 5292CHOL    R571694  11.574  15.716  26.154
 5292CHOL    C171695  11.548  15.634  25.930
 5292CHOL    C271696  11.521  15.551  25.707
 5293CHOL   ROH71697  -5.102   7.407   0.545
 5293CHOL    R171698  -4.968   7.429   0.629
 5293CHOL    R271699  -4.829   7.250   0.683
 5293CHOL    R371700  -4.816   7.455   0.724
 5293CHOL    R471701  -4.711   7.270   0.757
 5293CHOL    R571702  -4.682   7.477   0.808
 5293CHOL    C171703  -4.480   7.511   0.934
 5293CHOL    C271704  -4.279   7.544   1.060
 5294CHOL   ROH71705  11.554  11.643  -7.795
 5294CHOL    R171706  11.539  11.624  -7.637
 5294CHOL    R271707  11.685  11.488  -7.517
 5294CHOL    R371708  11.521  11.604  -7.459
 5294CHOL    R471709  11.672  11.472  -7.379
 5294CHOL    R571710  11.506  11.585  -7.301
 5294CHOL    C171711  11.483  11.557  -7.063
 5294CHOL    C271712  11.460  11.529  -6.826
 5295CHOL   ROH71713  -1.686  16.950  -1.820
 5295CHOL    R171714  -1.584  16.888  -1.714
 5295CHOL    R271715  -1.368  16.972  -1.691
 5295CHOL    R371716  -1.469  16.818  -1.594
 5295CHOL    R471717  -1.278  16.918  -1.598
 5295CHOL    R571718  -1.367  16.756  -1.487
 5295CHOL    C171719  -1.214  16.662  -1.328
 5295CHOL    C271720  -1.061  16.569  -1.168
 5296CHOL   ROH71721  12.156   6.175  -7.369
 5296CHOL    R171722  12.140   6.213  -7.214
 5296CHOL    R271723  12.016   6.399  -7.149
 5296CHOL    R371724  12.121   6.256  -7.041
 5296CHOL    R471725  12.001   6.433  -7.014
 5296CHOL    R571726  12.105   6.294  -6.886
 5296CHOL    C171727  12.080   6.350  -6.654
 5296CHOL    C271728  12.055   6.407  -6.422
 5297CHOL   ROH71729  -4.420   6.158  -0.100
 5297CHOL    R171730  -4.292   6.187  -0.009
 5297CHOL    R271731  -4.178   6.013   0.097
 5297CHOL    R371732  -4.147   6.220   0.094
 5297CHOL    R471733  -4.065   6.039   0.177
 5297CHOL    R571734  -4.019   6.249   0.185
 5297CHOL    C171735  -3.827   6.293   0.322
 5297CHOL    C271736  -3.634   6.336   0.459
 5298CHOL   ROH71737  -2.656   1.589  19.503
 5298CHOL    R171738  -2.546   1.664  19.415
 5298CHOL    R271739  -2.343   1.562  19.363
 5298CHOL    R371740  -2.422   1.749  19.316
 5298CHOL    R471741  -2.246   1.628  19.286
 5298CHOL    R571742  -2.312   1.825  19.228
 5298CHOL    C171743  -2.146   1.938  19.095
 5298CHOL    C271744  -1.981   2.051  18.963
 5299CHOL   ROH71745  18.836  25.210  12.449
 5299CHOL    R171746  18.758  25.071  12.433
 5299CHOL    R271747  18.837  24.906  12.289
 5299CHOL    R371748  18.670  24.915  12.414
 5299CHOL    R471749  18.769  24.784  12.274
 5299CHOL    R571750  18.593  24.776  12.398
 5299CHOL    C171751  18.476  24.568  12.374
 5299CHOL    C271752  18.359  24.360  12.349
 5300CHOL   ROH71753  27.100  14.634  10.544
 5300CHOL    R171754  26.945  14.593  10.536
 5300CHOL    R271755  26.866  14.455  10.366
 5300CHOL    R371756  26.772  14.548  10.527
 5300CHOL    R471757  26.731  14.419  10.359
 5300CHOL    R571758  26.617  14.507  10.520
 5300CHOL    C171759  26.385  14.446  10.508
 5300CHOL    C271760  26.153  14.385  10.496
 5301CHOL   ROH71761  -0.905  23.724   6.578
 5301CHOL    R171762  -0.810  23.598   6.607
 5301CHOL    R271763  -0.587  23.598   6.540
 5301CHOL    R371764  -0.704  23.457   6.640
 5301CHOL    R471765  -0.504  23.488   6.565
 5301CHOL    R571766  -0.610  23.331   6.669
 5301CHOL    C171767  -0.468  23.142   6.713
 5301CHOL    C271768  -0.326  22.954   6.757
 5302CHOL   ROH71769  26.769   6.654  14.656
 5302CHOL    R171770  26.618   6.685  14.615
 5302CHOL    R271771  26.503   6.546  14.467
 5302CHOL    R371772  26.447   6.720  14.568
 5302CHOL    R471773  26.370   6.573  14.431
 5302CHOL    R571774  26.296   6.751  14.527
 5302CHOL    C171775  26.069   6.798  14.464
 5302CHOL    C271776  25.842   6.845  14.402
 5303CHOL   ROH71777  10.966  27.771   9.167
 5303CHOL    R171778  10.957  27.611   9.173
 5303CHOL    R271779  11.132  27.479   9.095
 5303CHOL    R371780  10.947  27.432   9.179
 5303CHOL    R471781  11.124  27.339   9.100
 5303CHOL    R571782  10.938  27.272   9.185
 5303CHOL    C171783  10.925  27.032   9.193
 5303CHOL    C271784  10.911  26.793   9.201
 5304CHOL   ROH71785  -4.465   6.406  20.025
 5304CHOL    R171786  -4.338   6.435  19.932
 5304CHOL    R271787  -4.158   6.560  20.010
 5304CHOL    R371788  -4.196   6.468  19.826
 5304CHOL    R471789  -4.047   6.586  19.928
 5304CHOL    R571790  -4.070   6.497  19.733
 5304CHOL    C171791  -3.880   6.541  19.593
 5304CHOL    C271792  -3.690   6.584  19.453
 5305CHOL   ROH71793   3.238  20.493  22.759
 5305CHOL    R171794   3.296  20.398  22.644
 5305CHOL    R271795   3.418  20.206  22.697
 5305CHOL    R371796   3.361  20.290  22.515
 5305CHOL    R471797   3.468  20.123  22.597
 5305CHOL    R571798   3.419  20.195  22.400
 5305CHOL    C171799   3.505  20.052  22.228
 5305CHOL    C271800   3.592  19.909  22.056
 5306CHOL   ROH71801  14.767  -2.170  21.977
 5306CHOL    R171802  14.726  -2.060  21.868
 5306CHOL    R271803  14.711  -2.115  21.642
 5306CHOL    R371804  14.680  -1.937  21.745
 5306CHOL    R471805  14.675  -2.019  21.547
 5306CHOL    R571806  14.639  -1.827  21.636
 5306CHOL    C171807  14.577  -1.662  21.473
 5306CHOL    C271808  14.515  -1.498  21.310
 5307CHOL   ROH71809  21.105  23.755   8.101
 5307CHOL    R171810  21.008  23.629   8.115
 5307CHOL    R271811  20.865  23.568   7.941
 5307CHOL    R371812  20.898  23.487   8.131
 5307CHOL    R471813  20.780  23.457   7.953
 5307CHOL    R571814  20.800  23.361   8.145
 5307CHOL    C171815  20.654  23.172   8.166
 5307CHOL    C271816  20.508  22.983   8.187
 5308CHOL   ROH71817   1.912  25.894   8.757
 5308CHOL    R171818   1.989  25.754   8.769
 5308CHOL    R271819   2.188  25.717   8.653
 5308CHOL    R371820   2.077  25.598   8.783
 5308CHOL    R471821   2.256  25.595   8.664
 5308CHOL    R571822   2.154  25.458   8.795
 5308CHOL    C171823   2.270  25.249   8.814
 5308CHOL    C271824   2.386  25.039   8.832
 5309CHOL   ROH71825   3.292  19.112  23.827
 5309CHOL    R171826   3.351  19.028  23.704
 5309CHOL    R271827   3.486  18.842  23.740
 5309CHOL    R371828   3.418  18.934  23.566
 5309CHOL    R471829   3.538  18.768  23.633
 5309CHOL    R571830   3.478  18.850  23.443
 5309CHOL    C171831   3.567  18.725  23.259
 5309CHOL    C271832   3.656  18.599  23.075
 5310CHOL   ROH71833  11.049  -7.547   6.467
 5310CHOL    R171834  11.042  -7.390   6.496
 5310CHOL    R271835  11.131  -7.300   6.692
 5310CHOL    R371836  11.034  -7.213   6.528
 5310CHOL    R471837  11.125  -7.162   6.717
 5310CHOL    R571838  11.027  -7.055   6.557
 5310CHOL    C171839  11.017  -6.820   6.600
 5310CHOL    C271840  11.007  -6.584   6.643
 5311CHOL   ROH71841   7.062  22.885  -2.016
 5311CHOL    R171842   7.087  22.768  -1.910
 5311CHOL    R271843   7.201  22.809  -1.710
 5311CHOL    R371844   7.115  22.636  -1.790
 5311CHOL    R471845   7.223  22.707  -1.618
 5311CHOL    R571846   7.140  22.520  -1.684
 5311CHOL    C171847   7.178  22.344  -1.525
 5311CHOL    C271848   7.216  22.169  -1.365
 5312CHOL   ROH71849   6.227  27.323  12.498
 5312CHOL    R171850   6.259  27.168  12.475
 5312CHOL    R271851   6.355  27.039  12.644
 5312CHOL    R371852   6.295  26.994  12.449
 5312CHOL    R471853   6.384  26.903  12.624
 5312CHOL    R571854   6.328  26.838  12.426
 5312CHOL    C171855   6.376  26.606  12.391
 5312CHOL    C271856   6.424  26.373  12.357
 5313CHOL   ROH71857  -2.254  13.885  -2.598
 5313CHOL    R171858  -2.149  13.854  -2.482
 5313CHOL    R271859  -2.220  13.788  -2.269
 5313CHOL    R371860  -2.030  13.818  -2.351
 5313CHOL    R471861  -2.128  13.761  -2.168
 5313CHOL    R571862  -1.925  13.787  -2.234
 5313CHOL    C171863  -1.767  13.740  -2.060
 5313CHOL    C271864  -1.609  13.693  -1.886
 5314CHOL   ROH71865  16.010  25.469  16.299
 5314CHOL    R171866  15.954  25.331  16.241
 5314CHOL    R271867  16.097  25.174  16.144
 5314CHOL    R371868  15.891  25.176  16.175
 5314CHOL    R471869  16.048  25.054  16.093
 5314CHOL    R571870  15.834  25.038  16.117
 5314CHOL    C171871  15.750  24.830  16.030
 5314CHOL    C271872  15.666  24.623  15.942
 5315CHOL   ROH71873  -3.814  12.628  -1.299
 5315CHOL    R171874  -3.694  12.611  -1.195
 5315CHOL    R271875  -3.567  12.794  -1.126
 5315CHOL    R371876  -3.559  12.591  -1.077
 5315CHOL    R471877  -3.462  12.779  -1.035
 5315CHOL    R571878  -3.439  12.574  -0.973
 5315CHOL    C171879  -3.260  12.548  -0.816
 5315CHOL    C271880  -3.080  12.522  -0.659
 5316CHOL   ROH71881  26.231  10.899   2.872
 5316CHOL    R171882  26.084  10.891   2.936
 5316CHOL    R271883  25.981  10.685   2.973
 5316CHOL    R371884  25.920  10.882   3.007
 5316CHOL    R471885  25.852  10.678   3.028
 5316CHOL    R571886  25.773  10.874   3.070
 5316CHOL    C171887  25.553  10.862   3.166
 5316CHOL    C271888  25.333  10.850   3.261
 5317CHOL   ROH71889  10.251   5.762  27.279
 5317CHOL    R171890  10.250   5.803  27.124
 5317CHOL    R271891  10.434   5.763  26.988
 5317CHOL    R371892  10.248   5.849  26.950
 5317CHOL    R471893  10.433   5.798  26.852
 5317CHOL    R571894  10.247   5.889  26.796
 5317CHOL    C171895  10.244   5.951  26.563
 5317CHOL    C271896  10.242   6.012  26.331
 5318CHOL   ROH71897  23.826  18.887   3.257
 5318CHOL    R171898  23.700  18.805   3.313
 5318CHOL    R271899  23.713  18.575   3.347
 5318CHOL    R371900  23.559  18.713   3.376
 5318CHOL    R471901  23.603  18.503   3.396
 5318CHOL    R571902  23.433  18.631   3.431
 5318CHOL    C171903  23.245  18.508   3.515
 5318CHOL    C271904  23.057  18.385   3.599
 5319CHOL   ROH71905   7.332  15.130  26.819
 5319CHOL    R171906   7.355  15.089  26.666
 5319CHOL    R271907   7.518  14.933  26.607
 5319CHOL    R371908   7.382  15.043  26.494
 5319CHOL    R471909   7.539  14.897  26.473
 5319CHOL    R571910   7.405  15.003  26.341
 5319CHOL    C171911   7.440  14.941  26.112
 5319CHOL    C271912   7.475  14.880  25.882
 5320CHOL   ROH71913  17.372  25.560   5.605
 5320CHOL    R171914  17.306  25.419   5.641
 5320CHOL    R271915  17.409  25.219   5.582
 5320CHOL    R371916  17.231  25.260   5.682
 5320CHOL    R471917  17.352  25.096   5.613
 5320CHOL    R571918  17.165  25.120   5.718
 5320CHOL    C171919  17.066  24.908   5.773
 5320CHOL    C271920  16.966  24.697   5.827
 5321CHOL   ROH71921  19.799   2.371  -2.753
 5321CHOL    R171922  19.706   2.438  -2.642
 5321CHOL    R271923  19.782   2.618  -2.514
 5321CHOL    R371924  19.601   2.514  -2.516
 5321CHOL    R471925  19.701   2.677  -2.416
 5321CHOL    R571926  19.508   2.581  -2.405
 5321CHOL    C171927  19.368   2.682  -2.238
 5321CHOL    C271928  19.229   2.783  -2.071
 5322CHOL   ROH71929  19.364  -1.065  20.188
 5322CHOL    R171930  19.279  -0.966  20.096
 5322CHOL    R271931  19.374  -0.864  19.909
 5322CHOL    R371932  19.182  -0.855  19.992
 5322CHOL    R471933  19.299  -0.777  19.828
 5322CHOL    R571934  19.097  -0.755  19.900
 5322CHOL    C171935  18.969  -0.607  19.762
 5322CHOL    C271936  18.841  -0.458  19.624
 5323CHOL   ROH71937  -4.243   0.036  14.459
 5323CHOL    R171938  -4.115   0.123  14.417
 5323CHOL    R271939  -3.922   0.123  14.548
 5323CHOL    R371940  -3.972   0.221  14.370
 5323CHOL    R471941  -3.810   0.199  14.511
 5323CHOL    R571942  -3.844   0.308  14.328
 5323CHOL    C171943  -3.652   0.438  14.265
 5323CHOL    C271944  -3.461   0.568  14.202
 5324CHOL   ROH71945  14.194  -7.334   8.813
 5324CHOL    R171946  14.152  -7.180   8.824
 5324CHOL    R271947  14.217  -7.051   9.007
 5324CHOL    R371948  14.104  -7.007   8.836
 5324CHOL    R471949  14.180  -6.916   9.017
 5324CHOL    R571950  14.062  -6.853   8.847
 5324CHOL    C171951  13.999  -6.622   8.864
 5324CHOL    C271952  13.935  -6.391   8.881
 5325CHOL   ROH71953  21.767  -1.123   2.565
 5325CHOL    R171954  21.660  -1.024   2.632
 5325CHOL    R271955  21.721  -0.810   2.700
 5325CHOL    R371956  21.540  -0.913   2.707
 5325CHOL    R471957  21.628  -0.723   2.759
 5325CHOL    R571958  21.434  -0.815   2.774
 5325CHOL    C171959  21.273  -0.666   2.874
 5325CHOL    C271960  21.113  -0.518   2.975
 5326CHOL   ROH71961  22.129  14.608  21.930
 5326CHOL    R171962  22.022  14.566  21.819
 5326CHOL    R271963  21.974  14.707  21.639
 5326CHOL    R371964  21.902  14.519  21.693
 5326CHOL    R471965  21.881  14.670  21.541
 5326CHOL    R571966  21.795  14.477  21.582
 5326CHOL    C171967  21.634  14.414  21.415
 5326CHOL    C271968  21.473  14.351  21.248
 5327CHOL   ROH71969  18.998  24.349  15.223
 5327CHOL    R171970  18.913  24.224  15.171
 5327CHOL    R271971  18.899  24.175  14.943
 5327CHOL    R371972  18.817  24.083  15.113
 5327CHOL    R471973  18.824  24.066  14.898
 5327CHOL    R571974  18.732  23.958  15.061
 5327CHOL    C171975  18.605  23.770  14.983
 5327CHOL    C271976  18.478  23.583  14.905
 5328CHOL   ROH71977  15.024  20.583  -3.526
 5328CHOL    R171978  14.979  20.491  -3.402
 5328CHOL    R271979  15.104  20.304  -3.341
 5328CHOL    R371980  14.929  20.389  -3.264
 5328CHOL    R471981  15.065  20.224  -3.233
 5328CHOL    R571982  14.884  20.297  -3.140
 5328CHOL    C171983  14.818  20.160  -2.955
 5328CHOL    C271984  14.751  20.022  -2.769
 5329CHOL   ROH71985   9.507   6.664  -7.569
 5329CHOL    R171986   9.511   6.697  -7.412
 5329CHOL    R271987   9.706   6.776  -7.312
 5329CHOL    R371988   9.517   6.733  -7.236
 5329CHOL    R471989   9.710   6.805  -7.175
 5329CHOL    R571990   9.521   6.766  -7.079
 5329CHOL    C171991   9.528   6.815  -6.845
 5329CHOL    C271992   9.534   6.864  -6.610
 5330CHOL   ROH71993   8.864  10.098  -7.890
 5330CHOL    R171994   8.874  10.098  -7.730
 5330CHOL    R271995   8.694  10.027  -7.599
 5330CHOL    R371996   8.884  10.098  -7.551
 5330CHOL    R471997   8.703  10.027  -7.460
 5330CHOL    R571998   8.894  10.097  -7.391
 5330CHOL    C171999   8.908  10.097  -7.151
 5330CHOL    C272000   8.923  10.097  -6.912
 5331CHOL   ROH72001  -5.707  17.846   6.163
 5331CHOL    R172002  -5.566  17.781   6.202
 5331CHOL    R272003  -5.382  17.914   6.253
 5331CHOL    R372004  -5.407  17.707   6.245
 5331CHOL    R472005  -5.258  17.857   6.286
 5331CHOL    R572006  -5.266  17.642   6.283
 5331CHOL    C172007  -5.055  17.544   6.341
 5331CHOL    C272008  -4.844  17.446   6.399
 5332CHOL   ROH72009   5.253  -5.438  17.724
 5332CHOL    R172010   5.293  -5.300  17.654
 5332CHOL    R272011   5.346  -5.112  17.782
 5332CHOL    R372012   5.338  -5.144  17.576
 5332CHOL    R472013   5.381  -4.991  17.721
 5332CHOL    R572014   5.378  -5.006  17.506
 5332CHOL    C172015   5.438  -4.799  17.401
 5332CHOL    C272016   5.498  -4.591  17.297
 5333CHOL   ROH72017  21.437  16.934  -1.790
 5333CHOL    R172018  21.335  16.872  -1.684
 5333CHOL    R272019  21.104  16.900  -1.708
 5333CHOL    R372020  21.220  16.802  -1.564
 5333CHOL    R472021  21.015  16.845  -1.616
 5333CHOL    R572022  21.117  16.740  -1.458
 5333CHOL    C172023  20.964  16.647  -1.299
 5333CHOL    C272024  20.811  16.554  -1.139
 5334CHOL   ROH72025   6.776   1.248  -5.394
 5334CHOL    R172026   6.801   1.325  -5.256
 5334CHOL    R272027   7.005   1.309  -5.145
 5334CHOL    R372028   6.829   1.412  -5.101
 5334CHOL    R472029   7.027   1.376  -5.024
 5334CHOL    R572030   6.854   1.488  -4.963
 5334CHOL    C172031   6.891   1.604  -4.755
 5334CHOL    C272032   6.929   1.719  -4.548
 5335CHOL   ROH72033  14.458  20.523  -3.759
 5335CHOL    R172034  14.419  20.432  -3.633
 5335CHOL    R272035  14.357  20.209  -3.661
 5335CHOL    R372036  14.376  20.330  -3.491
 5335CHOL    R472037  14.323  20.129  -3.550
 5335CHOL    R572038  14.337  20.239  -3.366
 5335CHOL    C172039  14.279  20.103  -3.177
 5335CHOL    C272040  14.221  19.966  -2.988
 5336CHOL   ROH72041  11.427  -3.782  -1.349
 5336CHOL    R172042  11.413  -3.658  -1.249
 5336CHOL    R272043  11.543  -3.644  -1.056
 5336CHOL    R372044  11.397  -3.519  -1.136
 5336CHOL    R472045  11.530  -3.536  -0.968
 5336CHOL    R572046  11.382  -3.395  -1.035
 5336CHOL    C172047  11.361  -3.209  -0.885
 5336CHOL    C272048  11.340  -3.023  -0.735
 5337CHOL   ROH72049  -4.618  19.183  14.862
 5337CHOL    R172050  -4.490  19.098  14.817
 5337CHOL    R272051  -4.274  19.174  14.861
 5337CHOL    R372052  -4.346  19.002  14.767
 5337CHOL    R472053  -4.162  19.100  14.821
 5337CHOL    R572054  -4.219  18.917  14.722
 5337CHOL    C172055  -4.027  18.789  14.655
 5337CHOL    C272056  -3.835  18.662  14.588
 5338CHOL   ROH72057  -7.527   6.685   7.274
 5338CHOL    R172058  -7.372   6.716   7.298
 5338CHOL    R272059  -7.301   6.839   7.484
 5338CHOL    R372060  -7.198   6.752   7.325
 5338CHOL    R472061  -7.166   6.866   7.504
 5338CHOL    R572062  -7.042   6.783   7.348
 5338CHOL    C172063  -6.810   6.830   7.384
 5338CHOL    C272064  -6.577   6.877   7.420
 5339CHOL   ROH72065  17.406  -0.045  -2.811
 5339CHOL    R172066  17.338   0.046  -2.698
 5339CHOL    R272067  17.213   0.235  -2.756
 5339CHOL    R372068  17.262   0.148  -2.572
 5339CHOL    R472069  17.154   0.314  -2.657
 5339CHOL    R572070  17.194   0.240  -2.459
 5339CHOL    C172071  17.092   0.376  -2.290
 5339CHOL    C272072  16.990   0.513  -2.121
 5340CHOL   ROH72073   2.170  26.042   8.844
 5340CHOL    R172074   2.245  25.901   8.855
 5340CHOL    R272075   2.234  25.775   9.051
 5340CHOL    R372076   2.329  25.742   8.868
 5340CHOL    R472077   2.299  25.651   9.061
 5340CHOL    R572078   2.404  25.601   8.879
 5340CHOL    C172079   2.516  25.390   8.897
 5340CHOL    C272080   2.629  25.179   8.914
 5341CHOL   ROH72081  -7.442   5.948   8.070
 5341CHOL    R172082  -7.289   5.991   8.084
 5341CHOL    R272083  -7.215   6.116   8.266
 5341CHOL    R372084  -7.116   6.040   8.099
 5341CHOL    R472085  -7.081   6.154   8.278
 5341CHOL    R572086  -6.962   6.083   8.113
 5341CHOL    C172087  -6.732   6.149   8.133
 5341CHOL    C272088  -6.502   6.214   8.153
 5342CHOL   ROH72089  27.626  10.163  10.619
 5342CHOL    R172090  27.466  10.162  10.613
 5342CHOL    R272091  27.351  10.295  10.460
 5342CHOL    R372092  27.286  10.160  10.606
 5342CHOL    R472093  27.211  10.294  10.455
 5342CHOL    R572094  27.127  10.159  10.600
 5342CHOL    C172095  26.887  10.157  10.592
 5342CHOL    C272096  26.647  10.155  10.583
 5343CHOL   ROH72097  24.351  12.987  -0.008
 5343CHOL    R172098  24.221  12.963   0.083
 5343CHOL    R272099  24.015  13.053   0.023
 5343CHOL    R372100  24.076  12.935   0.185
 5343CHOL    R472101  23.901  13.032   0.103
 5343CHOL    R572102  23.946  12.911   0.275
 5343CHOL    C172103  23.752  12.875   0.412
 5343CHOL    C272104  23.557  12.838   0.548
 5344CHOL   ROH72105   4.250  -3.935  19.620
 5344CHOL    R172106   4.301  -3.811  19.533
 5344CHOL    R272107   4.487  -3.830  19.394
 5344CHOL    R372108   4.357  -3.671  19.434
 5344CHOL    R472109   4.532  -3.721  19.318
 5344CHOL    R572110   4.408  -3.547  19.347
 5344CHOL    C172111   4.484  -3.361  19.216
 5344CHOL    C272112   4.560  -3.175  19.085
 5345CHOL   ROH72113   1.751  -2.526   0.180
 5345CHOL    R172114   1.824  -2.418   0.273
 5345CHOL    R272115   1.779  -2.405   0.501
 5345CHOL    R372116   1.907  -2.297   0.377
 5345CHOL    R472117   1.843  -2.311   0.582
 5345CHOL    R572118   1.981  -2.189   0.470
 5345CHOL    C172119   2.091  -2.027   0.608
 5345CHOL    C272120   2.201  -1.865   0.747
 5346CHOL   ROH72121  10.153  24.191  20.762
 5346CHOL    R172122  10.148  24.065  20.663
 5346CHOL    R272123  10.325  23.913  20.653
 5346CHOL    R372124  10.143  23.924  20.552
 5346CHOL    R472125  10.321  23.803  20.567
 5346CHOL    R572126  10.138  23.799  20.453
 5346CHOL    C172127  10.131  23.610  20.304
 5346CHOL    C272128  10.124  23.422  20.155
 5347CHOL   ROH72129  26.893  12.468  14.518
 5347CHOL    R172130  26.740  12.445  14.476
 5347CHOL    R272131  26.632  12.593  14.332
 5347CHOL    R372132  26.569  12.419  14.429
 5347CHOL    R472133  26.498  12.572  14.295
 5347CHOL    R572134  26.416  12.396  14.387
 5347CHOL    C172135  26.187  12.361  14.323
 5347CHOL    C272136  25.958  12.326  14.260
 5348CHOL   ROH72137   4.050   0.740  24.134
 5348CHOL    R172138   4.102   0.822  24.007
 5348CHOL    R272139   4.193   1.035  24.030
 5348CHOL    R372140   4.160   0.914  23.863
 5348CHOL    R472141   4.239   1.107  23.919
 5348CHOL    R572142   4.211   0.996  23.736
 5348CHOL    C172143   4.289   1.119  23.545
 5348CHOL    C272144   4.367   1.242  23.354
 5349CHOL   ROH72145  12.271  25.455   1.385
 5349CHOL    R172146  12.247  25.316   1.460
 5349CHOL    R272147  12.417  25.157   1.475
 5349CHOL    R372148  12.219  25.159   1.544
 5349CHOL    R472149  12.395  25.035   1.541
 5349CHOL    R572150  12.195  25.020   1.618
 5349CHOL    C172151  12.159  24.810   1.731
 5349CHOL    C272152  12.122  24.601   1.843
 5350CHOL   ROH72153  23.927  20.997  10.390
 5350CHOL    R172154  23.799  20.901  10.385
 5350CHOL    R272155  23.813  20.679  10.454
 5350CHOL    R372156  23.655  20.793  10.379
 5350CHOL    R472157  23.701  20.595  10.450
 5350CHOL    R572158  23.527  20.697  10.374
 5350CHOL    C172159  23.336  20.553  10.366
 5350CHOL    C272160  23.144  20.409  10.358
 5351CHOL   ROH72161   6.106  11.066  27.232
 5351CHOL    R172162   6.141  11.053  27.076
 5351CHOL    R272163   6.205  10.849  26.984
 5351CHOL    R372164   6.181  11.039  26.902
 5351CHOL    R472165   6.236  10.837  26.848
 5351CHOL    R572166   6.216  11.026  26.746
 5351CHOL    C172167   6.269  11.007  26.513
 5351CHOL    C272168   6.322  10.988  26.279
 5352CHOL   ROH72169   6.050  23.614  -0.868
 5352CHOL    R172170   6.083  23.491  -0.771
 5352CHOL    R272171   6.198  23.524  -0.571
 5352CHOL    R372172   6.120  23.353  -0.662
 5352CHOL    R472173   6.227  23.416  -0.486
 5352CHOL    R572174   6.152  23.230  -0.565
 5352CHOL    C172175   6.202  23.046  -0.419
 5352CHOL    C272176   6.251  22.861  -0.273
 5353CHOL   ROH72177   6.070  25.089   1.227
 5353CHOL    R172178   6.104  24.956   1.309
 5353CHOL    R272179   6.172  24.966   1.531
 5353CHOL    R372180   6.143  24.806   1.401
 5353CHOL    R472181   6.202  24.850   1.603
 5353CHOL    R572182   6.177  24.673   1.482
 5353CHOL    C172183   6.228  24.473   1.605
 5353CHOL    C272184   6.280  24.274   1.728
 5354CHOL   ROH72185   2.671  23.244   0.418
 5354CHOL    R172186   2.735  23.124   0.502
 5354CHOL    R272187   2.862  23.167   0.694
 5354CHOL    R372188   2.808  22.990   0.597
 5354CHOL    R472189   2.918  23.062   0.768
 5354CHOL    R572190   2.873  22.870   0.682
 5354CHOL    C172191   2.969  22.690   0.808
 5354CHOL    C272192   3.066  22.511   0.934
 5355CHOL   ROH72193  11.809  -7.754   8.841
 5355CHOL    R172194  11.796  -7.595   8.848
 5355CHOL    R272195  11.873  -7.476   9.033
 5355CHOL    R372196  11.781  -7.415   8.856
 5355CHOL    R472197  11.861  -7.336   9.039
 5355CHOL    R572198  11.768  -7.256   8.863
 5355CHOL    C172199  11.748  -7.017   8.874
 5355CHOL    C272200  11.728  -6.778   8.884
 5356CHOL   ROH72201  19.738  -4.574  12.890
 5356CHOL    R172202  19.650  -4.443  12.863
 5356CHOL    R272203  19.737  -4.230  12.901
 5356CHOL    R372204  19.551  -4.296  12.833
 5356CHOL    R472205  19.661  -4.115  12.878
 5356CHOL    R572206  19.464  -4.164  12.807
 5356CHOL    C172207  19.332  -3.968  12.766
 5356CHOL    C272208  19.200  -3.771  12.726
 5357CHOL   ROH72209   5.466  -6.797  14.222
 5357CHOL    R172210   5.507  -6.647  14.186
 5357CHOL    R272211   5.707  -6.555  14.262
 5357CHOL    R372212   5.553  -6.477  14.144
 5357CHOL    R472213   5.743  -6.423  14.230
 5357CHOL    R572214   5.593  -6.327  14.108
 5357CHOL    C172215   5.655  -6.101  14.053
 5357CHOL    C272216   5.716  -5.876  13.999
 5358CHOL   ROH72217  -6.242  13.657  16.806
 5358CHOL    R172218  -6.099  13.625  16.741
 5358CHOL    R272219  -5.950  13.796  16.690
 5358CHOL    R372220  -5.939  13.589  16.668
 5358CHOL    R472221  -5.825  13.768  16.633
 5358CHOL    R572222  -5.797  13.557  16.603
 5358CHOL    C172223  -5.583  13.508  16.505
 5358CHOL    C272224  -5.369  13.460  16.407
 5359CHOL   ROH72225   2.648  16.915  24.755
 5359CHOL    R172226   2.719  16.854  24.625
 5359CHOL    R272227   2.857  16.666  24.642
 5359CHOL    R372228   2.799  16.784  24.480
 5359CHOL    R472229   2.919  16.613  24.528
 5359CHOL    R572230   2.869  16.723  24.350
 5359CHOL    C172231   2.976  16.631  24.156
 5359CHOL    C272232   3.082  16.539  23.961
 5360CHOL   ROH72233  16.669  -6.316  12.493
 5360CHOL    R172234  16.607  -6.171  12.470
 5360CHOL    R272235  16.679  -5.988  12.595
 5360CHOL    R372236  16.536  -6.007  12.444
 5360CHOL    R472237  16.624  -5.860  12.575
 5360CHOL    R572238  16.474  -5.862  12.420
 5360CHOL    C172239  16.380  -5.643  12.386
 5360CHOL    C272240  16.287  -5.425  12.351
 5361CHOL   ROH72241  -6.499   3.656  13.055
 5361CHOL    R172242  -6.352   3.712  13.027
 5361CHOL    R272243  -6.230   3.819  13.195
 5361CHOL    R372244  -6.187   3.776  12.995
 5361CHOL    R472245  -6.101   3.868  13.170
 5361CHOL    R572246  -6.039   3.832  12.967
 5361CHOL    C172247  -5.819   3.916  12.925
 5361CHOL    C272248  -5.598   4.001  12.883
 5362CHOL   ROH72249  -3.919   4.747  20.079
 5362CHOL    R172250  -3.799   4.794  19.984
 5362CHOL    R272251  -3.617   4.911  20.069
 5362CHOL    R372252  -3.665   4.846  19.876
 5362CHOL    R472253  -3.512   4.952  19.985
 5362CHOL    R572254  -3.545   4.892  19.781
 5362CHOL    C172255  -3.365   4.962  19.638
 5362CHOL    C272256  -3.186   5.032  19.495
 5363CHOL   ROH72257   4.056   3.209  25.424
 5363CHOL    R172258   4.104   3.268  25.283
 5363CHOL    R272259   4.171   3.126  25.111
 5363CHOL    R372260   4.158   3.334  25.125
 5363CHOL    R472261   4.213   3.178  24.987
 5363CHOL    R572262   4.206   3.393  24.984
 5363CHOL    C172263   4.278   3.481  24.773
 5363CHOL    C272264   4.350   3.570  24.562
 5364CHOL   ROH72265  13.020  -3.277  -1.588
 5364CHOL    R172266  12.989  -3.159  -1.485
 5364CHOL    R272267  13.006  -2.935  -1.549
 5364CHOL    R372268  12.954  -3.026  -1.368
 5364CHOL    R472269  12.979  -2.832  -1.459
 5364CHOL    R572270  12.923  -2.908  -1.265
 5364CHOL    C172271  12.877  -2.730  -1.110
 5364CHOL    C272272  12.831  -2.553  -0.955
 5365CHOL   ROH72273  20.519   4.701  -3.357
 5365CHOL    R172274  20.423   4.751  -3.239
 5365CHOL    R272275  20.192   4.721  -3.250
 5365CHOL    R372276  20.316   4.807  -3.106
 5365CHOL    R472277  20.109   4.764  -3.147
 5365CHOL    R572278  20.220   4.857  -2.987
 5365CHOL    C172279  20.076   4.931  -2.810
 5365CHOL    C272280  19.933   5.006  -2.633
 5366CHOL   ROH72281   8.506  -7.677  11.960
 5366CHOL    R172282   8.518  -7.518  11.944
 5366CHOL    R272283   8.585  -7.384  12.122
 5366CHOL    R372284   8.530  -7.340  11.926
 5366CHOL    R472285   8.595  -7.245  12.108
 5366CHOL    R572286   8.542  -7.181  11.910
 5366CHOL    C172287   8.559  -6.943  11.885
 5366CHOL    C272288   8.577  -6.705  11.861
 5367CHOL   ROH72289   3.451  14.064  -6.240
 5367CHOL    R172290   3.510  14.028  -6.096
 5367CHOL    R272291   3.425  14.126  -5.903
 5367CHOL    R372292   3.577  13.986  -5.934
 5367CHOL    R472293   3.477  14.094  -5.776
 5367CHOL    R572294   3.636  13.950  -5.790
 5367CHOL    C172295   3.725  13.895  -5.573
 5367CHOL    C272296   3.814  13.841  -5.357
 5368CHOL   ROH72297  25.807  15.436   3.947
 5368CHOL    R172298  25.665  15.385   4.001
 5368CHOL    R272299  25.467  15.490   3.934
 5368CHOL    R372300  25.505  15.329   4.061
 5368CHOL    R472301  25.343  15.445   3.981
 5368CHOL    R572302  25.364  15.278   4.115
 5368CHOL    C172303  25.151  15.202   4.196
 5368CHOL    C272304  24.938  15.126   4.276
 5369CHOL   ROH72305   0.983   2.760  23.563
 5369CHOL    R172306   1.068   2.822  23.442
 5369CHOL    R272307   1.300   2.838  23.455
 5369CHOL    R372308   1.164   2.892  23.307
 5369CHOL    R472309   1.375   2.893  23.350
 5369CHOL    R572310   1.248   2.954  23.186
 5369CHOL    C172311   1.376   3.047  23.005
 5369CHOL    C272312   1.503   3.140  22.824
 5370CHOL   ROH72313  26.941   5.457   7.342
 5370CHOL    R172314  26.787   5.494   7.365
 5370CHOL    R272315  26.655   5.574   7.191
 5370CHOL    R372316  26.614   5.535   7.392
 5370CHOL    R472317  26.520   5.606   7.211
 5370CHOL    R572318  26.460   5.572   7.415
 5370CHOL    C172319  26.229   5.627   7.450
 5370CHOL    C272320  25.998   5.682   7.485
 5371CHOL   ROH72321  -2.770   6.726  -2.254
 5371CHOL    R172322  -2.655   6.750  -2.145
 5371CHOL    R272323  -2.693   6.704  -1.920
 5371CHOL    R372324  -2.527   6.778  -2.022
 5371CHOL    R472325  -2.592   6.725  -1.824
 5371CHOL    R572326  -2.412   6.802  -1.914
 5371CHOL    C172327  -2.240   6.839  -1.750
 5371CHOL    C272328  -2.068   6.876  -1.587
 5372CHOL   ROH72329  24.245  17.505   2.437
 5372CHOL    R172330  24.116  17.438   2.504
 5372CHOL    R272331  24.118  17.214   2.570
 5372CHOL    R372332  23.971  17.363   2.580
 5372CHOL    R472333  24.005  17.155   2.629
 5372CHOL    R572334  23.842  17.296   2.647
 5372CHOL    C172335  23.649  17.195   2.749
 5372CHOL    C272336  23.456  17.094   2.850
 5373CHOL   ROH72337  21.075  -3.748  12.019
 5373CHOL    R172338  20.975  -3.624  12.000
 5373CHOL    R272339  21.002  -3.475  11.823
 5373CHOL    R372340  20.864  -3.485  11.978
 5373CHOL    R472341  20.915  -3.367  11.806
 5373CHOL    R572342  20.764  -3.361  11.959
 5373CHOL    C172343  20.615  -3.175  11.930
 5373CHOL    C272344  20.465  -2.989  11.901
 5374CHOL   ROH72345   7.045  26.117   2.735
 5374CHOL    R172346   7.072  25.973   2.800
 5374CHOL    R272347   7.263  25.851   2.746
 5374CHOL    R372348   7.102  25.812   2.873
 5374CHOL    R472349   7.287  25.725   2.803
 5374CHOL    R572350   7.129  25.668   2.939
 5374CHOL    C172351   7.169  25.452   3.036
 5374CHOL    C272352   7.210  25.237   3.134
 5375CHOL   ROH72353  23.400  -1.525  11.847
 5375CHOL    R172354  23.280  -1.421  11.826
 5375CHOL    R272355  23.120  -1.456  11.660
 5375CHOL    R372356  23.145  -1.305  11.802
 5375CHOL    R472357  23.014  -1.365  11.642
 5375CHOL    R572358  23.024  -1.202  11.782
 5375CHOL    C172359  22.844  -1.046  11.750
 5375CHOL    C272360  22.664  -0.891  11.719
 5376CHOL   ROH72361   4.504  -0.507  -3.485
 5376CHOL    R172362   4.553  -0.412  -3.366
 5376CHOL    R272363   4.567  -0.492  -3.147
 5376CHOL    R372364   4.608  -0.305  -3.232
 5376CHOL    R472365   4.610  -0.409  -3.043
 5376CHOL    R572366   4.657  -0.210  -3.112
 5376CHOL    C172367   4.730  -0.068  -2.934
 5376CHOL    C272368   4.804   0.074  -2.755
 5377CHOL   ROH72369  26.515   6.661   4.398
 5377CHOL    R172370  26.365   6.690   4.445
 5377CHOL    R272371  26.271   6.902   4.423
 5377CHOL    R372372  26.196   6.722   4.498
 5377CHOL    R472373  26.139   6.927   4.464
 5377CHOL    R572374  26.046   6.751   4.545
 5377CHOL    C172375  25.820   6.793   4.616
 5377CHOL    C272376  25.595   6.836   4.686
 5378CHOL   ROH72377   6.433  -3.722  20.871
 5378CHOL    R172378   6.464  -3.600  20.772
 5378CHOL    R272379   6.608  -3.428  20.836
 5378CHOL    R372380   6.500  -3.463  20.661
 5378CHOL    R472381   6.636  -3.321  20.750
 5378CHOL    R572382   6.531  -3.341  20.562
 5378CHOL    C172383   6.578  -3.158  20.414
 5378CHOL    C272384   6.625  -2.975  20.266
 5379CHOL   ROH72385  14.547  -6.664  14.342
 5379CHOL    R172386  14.504  -6.515  14.301
 5379CHOL    R272387  14.562  -6.333  14.434
 5379CHOL    R372388  14.456  -6.348  14.255
 5379CHOL    R472389  14.524  -6.203  14.398
 5379CHOL    R572390  14.414  -6.200  14.213
 5379CHOL    C172391  14.349  -5.977  14.152
 5379CHOL    C272392  14.285  -5.754  14.090
 5380CHOL   ROH72393   3.444   5.821  -6.240
 5380CHOL    R172394   3.501   5.857  -6.095
 5380CHOL    R272395   3.634   5.706  -5.977
 5380CHOL    R372396   3.566   5.898  -5.932
 5380CHOL    R472397   3.684   5.738  -5.850
 5380CHOL    R572398   3.623   5.934  -5.787
 5380CHOL    C172399   3.709   5.989  -5.570
 5380CHOL    C272400   3.795   6.043  -5.352
 5381CHOL   ROH72401   1.268  25.460  12.412
 5381CHOL    R172402   1.344  25.321  12.389
 5381CHOL    R272403   1.553  25.314  12.286
 5381CHOL    R372404   1.429  25.165  12.362
 5381CHOL    R472405   1.619  25.192  12.265
 5381CHOL    R572406   1.505  25.025  12.339
 5381CHOL    C172407   1.618  24.817  12.304
 5381CHOL    C272408   1.732  24.608  12.269
 5382CHOL   ROH72409  27.544  10.171   7.890
 5382CHOL    R172410  27.385  10.172   7.907
 5382CHOL    R272411  27.263   9.973   7.907
 5382CHOL    R372412  27.206  10.172   7.926
 5382CHOL    R472413  27.124   9.973   7.922
 5382CHOL    R572414  27.047  10.173   7.943
 5382CHOL    C172415  26.808  10.174   7.968
 5382CHOL    C272416  26.570  10.175   7.993
 5383CHOL   ROH72417  18.433  23.216  18.187
 5383CHOL    R172418  18.353  23.098  18.115
 5383CHOL    R272419  18.394  22.875  18.169
 5383CHOL    R372420  18.263  22.965  18.034
 5383CHOL    R472421  18.324  22.771  18.106
 5383CHOL    R572422  18.183  22.847  17.961
 5383CHOL    C172423  18.062  22.669  17.853
 5383CHOL    C272424  17.942  22.492  17.745
 5384CHOL   ROH72425   4.960   2.316  25.302
 5384CHOL    R172426   4.996   2.381  25.160
 5384CHOL    R272427   5.078   2.250  24.986
 5384CHOL    R372428   5.037   2.454  25.001
 5384CHOL    R472429   5.110   2.307  24.862
 5384CHOL    R572430   5.073   2.520  24.859
 5384CHOL    C172431   5.127   2.617  24.647
 5384CHOL    C272432   5.181   2.715  24.435
 5385CHOL   ROH72433  17.832  25.603  13.395
 5385CHOL    R172434  17.762  25.461  13.370
 5385CHOL    R272435  17.877  25.287  13.265
 5385CHOL    R372436  17.683  25.302  13.342
 5385CHOL    R472437  17.816  25.163  13.243
 5385CHOL    R572438  17.613  25.160  13.316
 5385CHOL    C172439  17.509  24.947  13.279
 5385CHOL    C272440  17.404  24.735  13.241
 5386CHOL   ROH72441   0.431  12.412  -4.955
 5386CHOL    R172442   0.517  12.392  -4.822
 5386CHOL    R272443   0.529  12.559  -4.660
 5386CHOL    R372444   0.615  12.369  -4.672
 5386CHOL    R472445   0.605  12.542  -4.544
 5386CHOL    R572446   0.701  12.349  -4.539
 5386CHOL    C172447   0.831  12.319  -4.339
 5386CHOL    C272448   0.960  12.289  -4.140
 5387CHOL   ROH72449  17.496  15.258  -5.355
 5387CHOL    R172450  17.426  15.209  -5.220
 5387CHOL    R272451  17.388  14.983  -5.180
 5387CHOL    R372452  17.348  15.154  -5.067
 5387CHOL    R472453  17.327  14.940  -5.061
 5387CHOL    R572454  17.278  15.105  -4.932
 5387CHOL    C172455  17.173  15.032  -4.729
 5387CHOL    C272456  17.069  14.958  -4.526
 5388CHOL   ROH72457   6.696  -4.191  20.344
 5388CHOL    R172458   6.724  -4.064  20.251
 5388CHOL    R272459   6.917  -3.937  20.276
 5388CHOL    R372460   6.755  -3.921  20.146
 5388CHOL    R472461   6.942  -3.826  20.194
 5388CHOL    R572462   6.783  -3.794  20.052
 5388CHOL    C172463   6.824  -3.603  19.913
 5388CHOL    C272464   6.866  -3.413  19.773
 5389CHOL   ROH72465  17.805  -2.692   0.167
 5389CHOL    R172466  17.734  -2.579   0.255
 5389CHOL    R272467  17.702  -2.364   0.170
 5389CHOL    R372468  17.654  -2.451   0.354
 5389CHOL    R472469  17.640  -2.265   0.247
 5389CHOL    R572470  17.584  -2.338   0.442
 5389CHOL    C172471  17.477  -2.168   0.573
 5389CHOL    C272472  17.371  -1.998   0.705
 5390CHOL   ROH72473   9.716  26.050   2.067
 5390CHOL    R172474   9.716  25.907   2.138
 5390CHOL    R272475   9.843  25.730   2.054
 5390CHOL    R372476   9.715  25.745   2.218
 5390CHOL    R472477   9.843  25.605   2.116
 5390CHOL    R572478   9.714  25.602   2.289
 5390CHOL    C172479   9.714  25.387   2.396
 5390CHOL    C272480   9.713  25.172   2.502
 5391CHOL   ROH72481  20.225   5.453  -3.866
 5391CHOL    R172482  20.133   5.494  -3.742
 5391CHOL    R272483  20.194   5.670  -3.601
 5391CHOL    R372484  20.030   5.541  -3.602
 5391CHOL    R472485  20.114   5.706  -3.492
 5391CHOL    R572486  19.938   5.582  -3.478
 5391CHOL    C172487  19.800   5.644  -3.291
 5391CHOL    C272488  19.662   5.706  -3.105
 5392CHOL   ROH72489   8.895  17.295  26.223
 5392CHOL    R172490   8.900  17.234  26.075
 5392CHOL    R272491   9.028  17.334  25.908
 5392CHOL    R372492   8.906  17.165  25.909
 5392CHOL    R472493   9.033  17.281  25.779
 5392CHOL    R572494   8.911  17.104  25.761
 5392CHOL    C172495   8.919  17.012  25.539
 5392CHOL    C272496   8.927  16.921  25.317
 5393CHOL   ROH72497  25.940  15.781   4.698
 5393CHOL    R172498  25.797  15.726   4.743
 5393CHOL    R272499  25.600  15.828   4.669
 5393CHOL    R372500  25.635  15.664   4.794
 5393CHOL    R472501  25.475  15.780   4.708
 5393CHOL    R572502  25.492  15.609   4.840
 5393CHOL    C172503  25.277  15.527   4.907
 5393CHOL    C272504  25.062  15.445   4.975
 5394CHOL   ROH72505   2.905  -5.560  15.338
 5394CHOL    R172506   2.967  -5.420  15.290
 5394CHOL    R272507   3.197  -5.393  15.265
 5394CHOL    R372508   3.036  -5.264  15.235
 5394CHOL    R472509   3.251  -5.271  15.222
 5394CHOL    R572510   3.098  -5.124  15.187
 5394CHOL    C172511   3.190  -4.915  15.115
 5394CHOL    C272512   3.282  -4.705  15.042
 5395CHOL   ROH72513   6.683  -6.806   4.770
 5395CHOL    R172514   6.712  -6.656   4.818
 5395CHOL    R272515   6.772  -6.610   5.038
 5395CHOL    R372516   6.745  -6.487   4.871
 5395CHOL    R472517   6.797  -6.478   5.080
 5395CHOL    R572518   6.774  -6.338   4.918
 5395CHOL    C172519   6.818  -6.113   4.990
 5395CHOL    C272520   6.861  -5.888   5.061
 5396CHOL   ROH72521  26.786   4.918  12.453
 5396CHOL    R172522  26.634   4.964  12.430
 5396CHOL    R272523  26.582   5.137  12.283
 5396CHOL    R372524  26.464   5.015  12.405
 5396CHOL    R472525  26.449   5.177  12.263
 5396CHOL    R572526  26.312   5.061  12.382
 5396CHOL    C172527  26.084   5.130  12.349
 5396CHOL    C272528  25.857   5.198  12.315
 5397CHOL   ROH72529  26.488  14.949   5.612
 5397CHOL    R172530  26.340  14.902   5.648
 5397CHOL    R272531  26.154  14.995   5.541
 5397CHOL    R372532  26.172  14.848   5.689
 5397CHOL    R472533  26.024  14.953   5.573
 5397CHOL    R572534  26.024  14.801   5.726
 5397CHOL    C172535  25.801  14.730   5.780
 5397CHOL    C272536  25.579  14.659   5.834
 5398CHOL   ROH72537  12.300  -3.841  -1.110
 5398CHOL    R172538  12.276  -3.717  -1.011
 5398CHOL    R272539  12.383  -3.707  -0.804
 5398CHOL    R372540  12.250  -3.579  -0.900
 5398CHOL    R472541  12.362  -3.599  -0.717
 5398CHOL    R572542  12.226  -3.455  -0.801
 5398CHOL    C172543  12.190  -3.270  -0.653
 5398CHOL    C272544  12.155  -3.084  -0.504
 5399CHOL   ROH72545  14.884  -5.131   1.853
 5399CHOL    R172546  14.836  -4.996   1.925
 5399CHOL    R272547  14.952  -4.796   1.893
 5399CHOL    R372548  14.783  -4.844   2.005
 5399CHOL    R472549  14.911  -4.678   1.956
 5399CHOL    R572550  14.735  -4.709   2.077
 5399CHOL    C172551  14.664  -4.507   2.185
 5399CHOL    C272552  14.593  -4.305   2.292
 5400CHOL   ROH72553   8.076  25.069   0.590
 5400CHOL    R172554   8.094  24.937   0.678
 5400CHOL    R272555   8.193  24.946   0.889
 5400CHOL    R372556   8.114  24.788   0.777
 5400CHOL    R472557   8.209  24.830   0.966
 5400CHOL    R572558   8.132  24.655   0.865
 5400CHOL    C172559   8.159  24.457   0.998
 5400CHOL    C272560   8.186  24.259   1.130
 5401CHOL   ROH72561  12.216   1.266  -5.455
 5401CHOL    R172562  12.196   1.346  -5.318
 5401CHOL    R272563  12.377   1.398  -5.181
 5401CHOL    R372564  12.172   1.436  -5.164
 5401CHOL    R472565  12.359   1.468  -5.061
 5401CHOL    R572566  12.152   1.516  -5.027
 5401CHOL    C172567  12.121   1.637  -4.822
 5401CHOL    C272568  12.091   1.757  -4.616
 5402CHOL   ROH72569   7.401  25.167   0.898
 5402CHOL    R172570   7.424  25.034   0.983
 5402CHOL    R272571   7.563  25.034   1.171
 5402CHOL    R372572   7.450  24.884   1.080
 5402CHOL    R472573   7.583  24.918   1.246
 5402CHOL    R572574   7.473  24.750   1.165
 5402CHOL    C172575   7.508  24.551   1.293
 5402CHOL    C272576   7.543  24.351   1.421
 5403CHOL   ROH72577  22.345  16.887  20.633
 5403CHOL    R172578  22.236  16.826  20.532
 5403CHOL    R272579  22.298  16.675  20.366
 5403CHOL    R372580  22.114  16.758  20.419
 5403CHOL    R472581  22.203  16.622  20.278
 5403CHOL    R572582  22.005  16.697  20.318
 5403CHOL    C172583  21.843  16.607  20.168
 5403CHOL    C272584  21.680  16.516  20.017
 5404CHOL   ROH72585  25.256   3.079   3.984
 5404CHOL    R172586  25.118   3.141   4.036
 5404CHOL    R272587  25.046   3.351   3.964
 5404CHOL    R372588  24.963   3.211   4.095
 5404CHOL    R472589  24.926   3.406   4.010
 5404CHOL    R572590  24.825   3.274   4.147
 5404CHOL    C172591  24.618   3.367   4.225
 5404CHOL    C272592  24.411   3.460   4.303
 5405CHOL   ROH72593  21.815  14.286  -2.627
 5405CHOL    R172594  21.708  14.248  -2.515
 5405CHOL    R272595  21.554  14.076  -2.548
 5405CHOL    R372596  21.587  14.206  -2.388
 5405CHOL    R472597  21.460  14.043  -2.450
 5405CHOL    R572598  21.479  14.169  -2.275
 5405CHOL    C172599  21.318  14.112  -2.107
 5405CHOL    C272600  21.157  14.056  -1.938
 5406CHOL   ROH72601  -2.229   5.310  -2.374
 5406CHOL    R172602  -2.121   5.352  -2.264
 5406CHOL    R272603  -2.144   5.287  -2.041
 5406CHOL    R372604  -2.000   5.400  -2.140
 5406CHOL    R472605  -2.050   5.324  -1.945
 5406CHOL    R572606  -1.892   5.443  -2.029
 5406CHOL    C172607  -1.730   5.506  -1.864
 5406CHOL    C272608  -1.568   5.570  -1.699
 5407CHOL   ROH72609  -3.012   3.485  -0.647
 5407CHOL    R172610  -2.899   3.543  -0.549
 5407CHOL    R272611  -2.901   3.494  -0.321
 5407CHOL    R372612  -2.773   3.609  -0.440
 5407CHOL    R472613  -2.803   3.545  -0.236
 5407CHOL    R572614  -2.660   3.667  -0.342
 5407CHOL    C172615  -2.491   3.754  -0.196
 5407CHOL    C272616  -2.322   3.842  -0.049
 5408CHOL   ROH72617  -3.095  17.413   0.097
 5408CHOL    R172618  -2.979  17.344   0.182
 5408CHOL    R272619  -2.822  17.472   0.298
 5408CHOL    R372620  -2.848  17.266   0.279
 5408CHOL    R472621  -2.720  17.412   0.373
 5408CHOL    R572622  -2.731  17.197   0.364
 5408CHOL    C172623  -2.557  17.093   0.492
 5408CHOL    C272624  -2.383  16.990   0.620
 5409CHOL   ROH72625   3.413  25.874   4.871
 5409CHOL    R172626   3.477  25.735   4.917
 5409CHOL    R272627   3.473  25.668   5.140
 5409CHOL    R372628   3.550  25.578   4.968
 5409CHOL    R472629   3.529  25.546   5.180
 5409CHOL    R572630   3.614  25.439   5.013
 5409CHOL    C172631   3.711  25.230   5.082
 5409CHOL    C272632   3.808  25.021   5.150
 5410CHOL   ROH72633   2.526  19.496  -3.359
 5410CHOL    R172634   2.593  19.414  -3.239
 5410CHOL    R272635   2.819  19.357  -3.244
 5410CHOL    R372636   2.668  19.321  -3.104
 5410CHOL    R472637   2.877  19.285  -3.139
 5410CHOL    R572638   2.734  19.239  -2.984
 5410CHOL    C172639   2.835  19.116  -2.805
 5410CHOL    C272640   2.935  18.992  -2.625
 5411CHOL   ROH72641  -6.960   7.737  15.510
 5411CHOL    R172642  -6.809   7.757  15.462
 5411CHOL    R272643  -6.646   7.596  15.509
 5411CHOL    R372644  -6.639   7.778  15.407
 5411CHOL    R472645  -6.514   7.613  15.467
 5411CHOL    R572646  -6.488   7.798  15.359
 5411CHOL    C172647  -6.261   7.827  15.287
 5411CHOL    C272648  -6.034   7.857  15.214
 5412CHOL   ROH72649  21.061  23.328   5.797
 5412CHOL    R172650  20.959  23.211   5.833
 5412CHOL    R272651  20.775  23.166   5.697
 5412CHOL    R372652  20.843  23.078   5.874
 5412CHOL    R472653  20.685  23.063   5.729
 5412CHOL    R572654  20.741  22.961   5.910
 5412CHOL    C172655  20.587  22.785   5.964
 5412CHOL    C272656  20.434  22.609   6.018
 5413CHOL   ROH72657   4.077  20.607  23.050
 5413CHOL    R172658   4.126  20.510  22.933
 5413CHOL    R272659   4.218  20.301  22.981
 5413CHOL    R372660   4.181  20.400  22.801
 5413CHOL    R472661   4.261  20.215  22.879
 5413CHOL    R572662   4.230  20.303  22.684
 5413CHOL    C172663   4.304  20.156  22.508
 5413CHOL    C272664   4.378  20.010  22.333
 5414CHOL   ROH72665  13.516  -2.302  -2.476
 5414CHOL    R172666  13.481  -2.192  -2.365
 5414CHOL    R272667  13.570  -1.977  -2.378
 5414CHOL    R372668  13.442  -2.068  -2.240
 5414CHOL    R472669  13.540  -1.880  -2.281
 5414CHOL    R572670  13.408  -1.958  -2.130
 5414CHOL    C172671  13.355  -1.793  -1.963
 5414CHOL    C272672  13.303  -1.628  -1.797
 5415CHOL   ROH72673  13.164  27.342   7.443
 5415CHOL    R172674  13.134  27.187   7.468
 5415CHOL    R272675  13.270  27.059   7.607
 5415CHOL    R372676  13.099  27.012   7.496
 5415CHOL    R472677  13.243  26.923   7.629
 5415CHOL    R572678  13.069  26.857   7.521
 5415CHOL    C172679  13.023  26.624   7.558
 5415CHOL    C272680  12.978  26.391   7.595
 5416CHOL   ROH72681  10.853   8.381  -7.831
 5416CHOL    R172682  10.849   8.397  -7.672
 5416CHOL    R272683  10.776   8.596  -7.573
 5416CHOL    R372684  10.844   8.415  -7.493
 5416CHOL    R472685  10.772   8.610  -7.434
 5416CHOL    R572686  10.840   8.432  -7.333
 5416CHOL    C172687  10.834   8.456  -7.095
 5416CHOL    C272688  10.828   8.480  -6.856
 5417CHOL   ROH72689  25.656   6.913  17.607
 5417CHOL    R172690  25.516   6.942  17.535
 5417CHOL    R272691  25.487   7.129  17.399
 5417CHOL    R372692  25.358   6.974  17.455
 5417CHOL    R472693  25.364   7.154  17.336
 5417CHOL    R572694  25.218   7.003  17.383
 5417CHOL    C172695  25.008   7.046  17.275
 5417CHOL    C272696  24.798   7.089  17.168
 5418CHOL   ROH72697  17.179  -3.006   0.092
 5418CHOL    R172698  17.114  -2.890   0.181
 5418CHOL    R272699  17.092  -2.673   0.097
 5418CHOL    R372700  17.042  -2.759   0.281
 5418CHOL    R472701  17.035  -2.571   0.175
 5418CHOL    R572702  16.977  -2.642   0.369
 5418CHOL    C172703  16.880  -2.468   0.503
 5418CHOL    C272704  16.783  -2.294   0.636
 5419CHOL   ROH72705  25.885   6.087  16.735
 5419CHOL    R172706  25.742   6.122  16.671
 5419CHOL    R272707  25.709   6.323  16.557
 5419CHOL    R372708  25.582   6.162  16.600
 5419CHOL    R472709  25.584   6.354  16.501
 5419CHOL    R572710  25.439   6.197  16.537
 5419CHOL    C172711  25.226   6.251  16.441
 5419CHOL    C272712  25.012   6.304  16.346
 5420CHOL   ROH72713  11.707  -7.741   8.457
 5420CHOL    R172714  11.694  -7.582   8.467
 5420CHOL    R272715  11.785  -7.465   8.647
 5420CHOL    R372716  11.679  -7.403   8.478
 5420CHOL    R472717  11.774  -7.326   8.656
 5420CHOL    R572718  11.666  -7.243   8.488
 5420CHOL    C172719  11.647  -7.005   8.503
 5420CHOL    C272720  11.628  -6.766   8.518
 5421CHOL   ROH72721   6.114   7.923  27.253
 5421CHOL    R172722   6.146   7.941  27.097
 5421CHOL    R272723   6.364   7.926  27.017
 5421CHOL    R372724   6.181   7.962  26.922
 5421CHOL    R472725   6.392   7.942  26.880
 5421CHOL    R572726   6.213   7.981  26.767
 5421CHOL    C172727   6.261   8.008  26.533
 5421CHOL    C272728   6.308   8.036  26.299
 5422CHOL   ROH72729   5.476  -3.585  -0.814
 5422CHOL    R172730   5.514  -3.464  -0.716
 5422CHOL    R272731   5.672  -3.304  -0.777
 5422CHOL    R372732   5.556  -3.329  -0.605
 5422CHOL    R472733   5.705  -3.199  -0.691
 5422CHOL    R572734   5.594  -3.208  -0.507
 5422CHOL    C172735   5.650  -3.027  -0.360
 5422CHOL    C272736   5.706  -2.846  -0.212
 5423CHOL   ROH72737  26.751   6.917  14.908
 5423CHOL    R172738  26.600   6.946  14.864
 5423CHOL    R272739  26.472   6.782  14.759
 5423CHOL    R372740  26.430   6.979  14.815
 5423CHOL    R472741  26.340   6.807  14.721
 5423CHOL    R572742  26.279   7.007  14.771
 5423CHOL    C172743  26.052   7.051  14.706
 5423CHOL    C272744  25.825   7.094  14.640
 5424CHOL   ROH72745  10.649  26.338  17.128
 5424CHOL    R172746  10.642  26.192  17.063
 5424CHOL    R272747  10.779  26.020  17.140
 5424CHOL    R372748  10.633  26.028  16.990
 5424CHOL    R472749  10.773  25.892  17.083
 5424CHOL    R572750  10.626  25.882  16.926
 5424CHOL    C172751  10.615  25.662  16.828
 5424CHOL    C272752  10.604  25.443  16.731
 5425CHOL   ROH72753  -7.822   7.628   8.440
 5425CHOL    R172754  -7.664   7.650   8.453
 5425CHOL    R272755  -7.575   7.796   8.611
 5425CHOL    R372756  -7.486   7.674   8.468
 5425CHOL    R472757  -7.437   7.815   8.622
 5425CHOL    R572758  -7.328   7.695   8.480
 5425CHOL    C172759  -7.091   7.728   8.500
 5425CHOL    C272760  -6.854   7.760   8.519
 5426CHOL   ROH72761   7.653  27.138  14.480
 5426CHOL    R172762   7.672  26.985  14.438
 5426CHOL    R272763   7.803  26.841  14.567
 5426CHOL    R372764   7.694  26.813  14.391
 5426CHOL    R472765   7.820  26.707  14.530
 5426CHOL    R572766   7.713  26.659  14.348
 5426CHOL    C172767   7.742  26.430  14.285
 5426CHOL    C272768   7.771  26.200  14.222
 5427CHOL   ROH72769   8.250   8.054  -7.722
 5427CHOL    R172770   8.263   8.073  -7.564
 5427CHOL    R272771   8.111   7.972  -7.418
 5427CHOL    R372772   8.277   8.094  -7.385
 5427CHOL    R472773   8.122   7.988  -7.279
 5427CHOL    R572774   8.290   8.113  -7.227
 5427CHOL    C172775   8.309   8.141  -6.989
 5427CHOL    C272776   8.328   8.170  -6.752
 5428CHOL   ROH72777  -5.511   7.554   1.197
 5428CHOL    R172778  -5.373   7.575   1.275
 5428CHOL    R272779  -5.279   7.404   1.402
 5428CHOL    R372780  -5.217   7.599   1.362
 5428CHOL    R472781  -5.158   7.422   1.470
 5428CHOL    R572782  -5.079   7.620   1.440
 5428CHOL    C172783  -4.872   7.652   1.557
 5428CHOL    C272784  -4.664   7.684   1.673
 5429CHOL   ROH72785  -1.443  10.387  -3.799
 5429CHOL    R172786  -1.343  10.382  -3.675
 5429CHOL    R272787  -1.326  10.561  -3.526
 5429CHOL    R372788  -1.229  10.376  -3.535
 5429CHOL    R472789  -1.238  10.557  -3.418
 5429CHOL    R572790  -1.129  10.371  -3.411
 5429CHOL    C172791  -0.978  10.364  -3.224
 5429CHOL    C272792  -0.828  10.357  -3.038
 5430CHOL   ROH72793  18.244  17.941  23.519
 5430CHOL    R172794  18.163  17.874  23.399
 5430CHOL    R272795  18.117  17.992  23.204
 5430CHOL    R372796  18.071  17.798  23.264
 5430CHOL    R472797  18.045  17.933  23.099
 5430CHOL    R572798  17.989  17.731  23.144
 5430CHOL    C172799  17.867  17.629  22.964
 5430CHOL    C272800  17.745  17.528  22.784
 5431CHOL   ROH72801  -0.131   6.695  -4.511
 5431CHOL    R172802  -0.040   6.722  -4.382
 5431CHOL    R272803  -0.135   6.741  -4.170
 5431CHOL    R372804   0.062   6.753  -4.237
 5431CHOL    R472805  -0.055   6.765  -4.057
 5431CHOL    R572806   0.153   6.780  -4.108
 5431CHOL    C172807   0.290   6.822  -3.915
 5431CHOL    C272808   0.427   6.863  -3.722
 5432CHOL   ROH72809  18.065  21.825  -0.565
 5432CHOL    R172810  17.988  21.716  -0.477
 5432CHOL    R272811  17.938  21.505  -0.563
 5432CHOL    R372812  17.901  21.594  -0.377
 5432CHOL    R472813  17.870  21.410  -0.486
 5432CHOL    R572814  17.824  21.485  -0.289
 5432CHOL    C172815  17.708  21.322  -0.157
 5432CHOL    C272816  17.593  21.159  -0.024
 5433CHOL   ROH72817  16.952   3.220  -5.003
 5433CHOL    R172818  16.886   3.275  -4.868
 5433CHOL    R272819  16.948   3.481  -4.779
 5433CHOL    R372820  16.812   3.337  -4.716
 5433CHOL    R472821  16.890   3.529  -4.661
 5433CHOL    R572822  16.745   3.391  -4.581
 5433CHOL    C172823  16.646   3.474  -4.378
 5433CHOL    C272824  16.547   3.556  -4.176
 5434CHOL   ROH72825   6.735  26.323  16.430
 5434CHOL    R172826   6.765  26.177  16.372
 5434CHOL    R272827   6.847  26.148  16.156
 5434CHOL    R372828   6.799  26.013  16.307
 5434CHOL    R472829   6.873  26.020  16.105
 5434CHOL    R572830   6.829  25.866  16.249
 5434CHOL    C172831   6.873  25.647  16.162
 5434CHOL    C272832   6.918  25.428  16.075
 5435CHOL   ROH72833  21.325  19.875  19.395
 5435CHOL    R172834  21.222  19.785  19.312
 5435CHOL    R272835  21.298  19.638  19.147
 5435CHOL    R372836  21.107  19.684  19.218
 5435CHOL    R472837  21.208  19.559  19.074
 5435CHOL    R572838  21.005  19.593  19.134
 5435CHOL    C172839  20.851  19.458  19.009
 5435CHOL    C272840  20.697  19.323  18.884
 5436CHOL   ROH72841   4.492  27.008  11.158
 5436CHOL    R172842   4.542  26.856  11.146
 5436CHOL    R272843   4.685  26.765  11.306
 5436CHOL    R372844   4.598  26.686  11.134
 5436CHOL    R472845   4.729  26.632  11.296
 5436CHOL    R572846   4.648  26.535  11.122
 5436CHOL    C172847   4.724  26.307  11.105
 5436CHOL    C272848   4.799  26.080  11.087
 5437CHOL   ROH72849  22.552   2.608  -0.157
 5437CHOL    R172850  22.440   2.676  -0.064
 5437CHOL    R272851  22.417   2.907  -0.054
 5437CHOL    R372852  22.315   2.751   0.040
 5437CHOL    R472853  22.319   2.966   0.027
 5437CHOL    R572854  22.203   2.819   0.133
 5437CHOL    C172855  22.036   2.920   0.272
 5437CHOL    C272856  21.869   3.022   0.411
 5438CHOL   ROH72857  12.130  -7.683  11.185
 5438CHOL    R172858  12.114  -7.524  11.173
 5438CHOL    R272859  12.156  -7.415  10.971
 5438CHOL    R372860  12.095  -7.346  11.159
 5438CHOL    R472861  12.142  -7.276  10.960
 5438CHOL    R572862  12.079  -7.187  11.146
 5438CHOL    C172863  12.055  -6.949  11.128
 5438CHOL    C272864  12.030  -6.711  11.110
 5439CHOL   ROH72865  -3.430  21.678   7.307
 5439CHOL    R172866  -3.314  21.570   7.330
 5439CHOL    R272867  -3.248  21.508   7.545
 5439CHOL    R372868  -3.184  21.448   7.356
 5439CHOL    R472869  -3.147  21.414   7.565
 5439CHOL    R572870  -3.068  21.340   7.379
 5439CHOL    C172871  -2.894  21.178   7.414
 5439CHOL    C272872  -2.720  21.016   7.448
 5440CHOL   ROH72873  22.390  16.496  -1.053
 5440CHOL    R172874  22.278  16.438  -0.954
 5440CHOL    R272875  22.215  16.214  -0.963
 5440CHOL    R372876  22.152  16.374  -0.843
 5440CHOL    R472877  22.117  16.164  -0.876
 5440CHOL    R572878  22.041  16.316  -0.744
 5440CHOL    C172879  21.873  16.230  -0.596
 5440CHOL    C272880  21.705  16.143  -0.448
 5441CHOL   ROH72881  14.222  -4.148  -0.056
 5441CHOL    R172882  14.182  -4.023   0.036
 5441CHOL    R272883  14.317  -3.956   0.213
 5441CHOL    R372884  14.136  -3.882   0.138
 5441CHOL    R472885  14.282  -3.847   0.293
 5441CHOL    R572886  14.096  -3.757   0.230
 5441CHOL    C172887  14.036  -3.570   0.367
 5441CHOL    C272888  13.975  -3.383   0.505
 5442CHOL   ROH72889  17.872  25.843   9.605
 5442CHOL    R172890  17.799  25.701   9.608
 5442CHOL    R272891  17.906  25.509   9.529
 5442CHOL    R372892  17.716  25.541   9.611
 5442CHOL    R472893  17.841  25.385   9.532
 5442CHOL    R572894  17.643  25.399   9.614
 5442CHOL    C172895  17.533  25.185   9.618
 5442CHOL    C272896  17.423  24.972   9.623
 5443CHOL   ROH72897  10.323  11.614  -7.861
 5443CHOL    R172898  10.322  11.599  -7.702
 5443CHOL    R272899  10.471  11.456  -7.593
 5443CHOL    R372900  10.320  11.582  -7.522
 5443CHOL    R472901  10.469  11.443  -7.454
 5443CHOL    R572902  10.319  11.567  -7.363
 5443CHOL    C172903  10.317  11.545  -7.124
 5443CHOL    C272904  10.315  11.523  -6.885
 5444CHOL   ROH72905  11.114  22.288  22.806
 5444CHOL    R172906  11.099  22.177  22.692
 5444CHOL    R272907  11.142  21.952  22.736
 5444CHOL    R372908  11.083  22.052  22.563
 5444CHOL    R472909  11.129  21.855  22.636
 5444CHOL    R572910  11.069  21.942  22.449
 5444CHOL    C172911  11.047  21.775  22.277
 5444CHOL    C272912  11.025  21.609  22.105
 5445CHOL   ROH72913   7.339  -7.268  13.882
 5445CHOL    R172914   7.362  -7.113  13.851
 5445CHOL    R272915   7.561  -7.007  13.910
 5445CHOL    R372916   7.388  -6.938  13.816
 5445CHOL    R472917   7.581  -6.871  13.883
 5445CHOL    R572918   7.411  -6.782  13.785
 5445CHOL    C172919   7.445  -6.549  13.738
 5445CHOL    C272920   7.479  -6.316  13.692
 5446CHOL   ROH72921   5.882  -7.043  13.589
 5446CHOL    R172922   5.918  -6.890  13.558
 5446CHOL    R272923   6.024  -6.758  13.719
 5446CHOL    R372924   5.960  -6.718  13.524
 5446CHOL    R472925   6.056  -6.624  13.692
 5446CHOL    R572926   5.996  -6.566  13.493
 5446CHOL    C172927   6.051  -6.336  13.448
 5446CHOL    C272928   6.105  -6.107  13.402
 5447CHOL   ROH72929  -7.358   7.542  13.883
 5447CHOL    R172930  -7.203   7.565  13.849
 5447CHOL    R272931  -7.037   7.515  14.005
 5447CHOL    R372932  -7.030   7.592  13.811
 5447CHOL    R472933  -6.902   7.536  13.975
 5447CHOL    R572934  -6.875   7.615  13.776
 5447CHOL    C172935  -6.643   7.650  13.725
 5447CHOL    C272936  -6.411   7.685  13.674
 5448CHOL   ROH72937  19.016  -3.028   1.828
 5448CHOL    R172938  18.936  -2.910   1.901
 5448CHOL    R272939  19.034  -2.788   2.073
 5448CHOL    R372940  18.847  -2.777   1.982
 5448CHOL    R472941  18.965  -2.684   2.137
 5448CHOL    R572942  18.767  -2.659   2.055
 5448CHOL    C172943  18.647  -2.482   2.164
 5448CHOL    C272944  18.528  -2.305   2.273
 5449CHOL   ROH72945   9.040  -0.388  -4.602
 5449CHOL    R172946   9.044  -0.296  -4.471
 5449CHOL    R272947   9.171  -0.357  -4.285
 5449CHOL    R372948   9.048  -0.193  -4.324
 5449CHOL    R472949   9.174  -0.277  -4.171
 5449CHOL    R572950   9.052  -0.101  -4.193
 5449CHOL    C172951   9.058   0.037  -3.997
 5449CHOL    C272952   9.064   0.175  -3.800
 5450CHOL   ROH72953  -6.466  16.564   7.010
 5450CHOL    R172954  -6.320  16.507   7.042
 5450CHOL    R272955  -6.159  16.640   7.146
 5450CHOL    R372956  -6.156  16.443   7.077
 5450CHOL    R472957  -6.031  16.590   7.173
 5450CHOL    R572958  -6.010  16.386   7.108
 5450CHOL    C172959  -5.790  16.300   7.156
 5450CHOL    C272960  -5.571  16.214   7.203
 5451CHOL   ROH72961  -7.267  11.680   5.422
 5451CHOL    R172962  -7.113  11.665   5.462
 5451CHOL    R272963  -7.048  11.656   5.686
 5451CHOL    R372964  -6.940  11.648   5.507
 5451CHOL    R472965  -6.913  11.643   5.721
 5451CHOL    R572966  -6.786  11.633   5.547
 5451CHOL    C172967  -6.554  11.610   5.608
 5451CHOL    C272968  -6.323  11.588   5.668
 5452CHOL   ROH72969  11.190  15.481  -6.979
 5452CHOL    R172970  11.177  15.431  -6.827
 5452CHOL    R272971  11.352  15.319  -6.722
 5452CHOL    R372972  11.162  15.375  -6.657
 5452CHOL    R472973  11.341  15.275  -6.590
 5452CHOL    R572974  11.149  15.325  -6.506
 5452CHOL    C172975  11.129  15.250  -6.278
 5452CHOL    C272976  11.110  15.175  -6.051
 5453CHOL   ROH72977   8.412  -7.033  15.264
 5453CHOL    R172978   8.426  -6.882  15.214
 5453CHOL    R272979   8.633  -6.774  15.214
 5453CHOL    R372980   8.442  -6.711  15.158
 5453CHOL    R472981   8.645  -6.641  15.170
 5453CHOL    R572982   8.456  -6.560  15.108
 5453CHOL    C172983   8.477  -6.333  15.032
 5453CHOL    C272984   8.498  -6.106  14.957
 5454CHOL   ROH72985   7.380  27.648  11.154
 5454CHOL    R172986   7.399  27.489  11.144
 5454CHOL    R272987   7.475  27.366  11.327
 5454CHOL    R372988   7.421  27.311  11.133
 5454CHOL    R472989   7.492  27.227  11.318
 5454CHOL    R572990   7.440  27.153  11.123
 5454CHOL    C172991   7.469  26.915  11.107
 5454CHOL    C272992   7.498  26.677  11.092
 5455CHOL   ROH72993  25.720   3.322   5.073
 5455CHOL    R172994  25.577   3.382   5.113
 5455CHOL    R272995  25.555   3.605   5.179
 5455CHOL    R372996  25.416   3.450   5.157
 5455CHOL    R472997  25.430   3.658   5.213
 5455CHOL    R572998  25.273   3.510   5.197
 5455CHOL    C172999  25.059   3.601   5.256
 5455CHOL    C273000  24.845   3.691   5.315
 5456CHOL   ROH73001   1.899   8.349  25.908
 5456CHOL    R173002   1.968   8.364  25.765
 5456CHOL    R273003   2.186   8.288  25.728
 5456CHOL    R373004   2.046   8.381  25.603
 5456CHOL    R473005   2.246   8.301  25.602
 5456CHOL    R573006   2.115   8.396  25.460
 5456CHOL    C173007   2.219   8.419  25.245
 5456CHOL    C273008   2.323   8.441  25.030
 5457CHOL   ROH73009  26.343   4.080   6.451
 5457CHOL    R173010  26.196   4.135   6.483
 5457CHOL    R273011  26.015   4.077   6.348
 5457CHOL    R373012  26.031   4.197   6.518
 5457CHOL    R473013  25.886   4.125   6.375
 5457CHOL    R573014  25.883   4.252   6.549
 5457CHOL    C173015  25.663   4.334   6.597
 5457CHOL    C273016  25.442   4.416   6.644
 5458CHOL   ROH73017   8.382  27.010  15.187
 5458CHOL    R173018   8.396  26.858  15.140
 5458CHOL    R273019   8.559  26.718  15.232
 5458CHOL    R373020   8.412  26.686  15.087
 5458CHOL    R473021   8.571  26.585  15.191
 5458CHOL    R573022   8.426  26.534  15.040
 5458CHOL    C173023   8.447  26.306  14.969
 5458CHOL    C273024   8.468  26.077  14.899
 5459CHOL   ROH73025  26.684   4.595  12.463
 5459CHOL    R173026  26.533   4.643  12.440
 5459CHOL    R273027  26.429   4.619  12.233
 5459CHOL    R373028  26.363   4.697  12.415
 5459CHOL    R473029  26.297   4.661  12.213
 5459CHOL    R573030  26.213   4.745  12.392
 5459CHOL    C173031  25.986   4.818  12.359
 5459CHOL    C273032  25.760   4.890  12.325
 5460CHOL   ROH73033  11.395  -0.858  -4.147
 5460CHOL    R173034  11.379  -0.762  -4.020
 5460CHOL    R273035  11.567  -0.677  -3.910
 5460CHOL    R373036  11.362  -0.654  -3.877
 5460CHOL    R473037  11.553  -0.593  -3.799
 5460CHOL    R573038  11.346  -0.558  -3.750
 5460CHOL    C173039  11.322  -0.414  -3.559
 5460CHOL    C273040  11.299  -0.270  -3.369
 5461CHOL   ROH73041  -3.275   7.306  21.743
 5461CHOL    R173042  -3.157   7.330  21.638
 5461CHOL    R273043  -3.024   7.521  21.648
 5461CHOL    R373044  -3.024   7.356  21.519
 5461CHOL    R473045  -2.920   7.541  21.555
 5461CHOL    R573046  -2.905   7.379  21.414
 5461CHOL    C173047  -2.728   7.415  21.256
 5461CHOL    C273048  -2.551   7.450  21.098
 5462CHOL   ROH73049   8.004  10.450  -7.812
 5462CHOL    R173050   8.021  10.446  -7.653
 5462CHOL    R273051   7.845  10.502  -7.511
 5462CHOL    R373052   8.041  10.442  -7.474
 5462CHOL    R473053   7.860  10.499  -7.372
 5462CHOL    R573054   8.059  10.438  -7.315
 5462CHOL    C173055   8.085  10.432  -7.076
 5462CHOL    C273056   8.111  10.426  -6.838
 5463CHOL   ROH73057  27.255  11.095  13.673
 5463CHOL    R173058  27.098  11.084  13.642
 5463CHOL    R273059  26.985  11.256  13.534
 5463CHOL    R373060  26.922  11.072  13.608
 5463CHOL    R473061  26.848  11.247  13.507
 5463CHOL    R573062  26.766  11.060  13.577
 5463CHOL    C173063  26.531  11.044  13.531
 5463CHOL    C273064  26.296  11.027  13.485
 5464CHOL   ROH73065  -5.847  15.402  16.588
 5464CHOL    R173066  -5.707  15.353  16.527
 5464CHOL    R273067  -5.509  15.374  16.649
 5464CHOL    R373068  -5.550  15.298  16.458
 5464CHOL    R473069  -5.387  15.332  16.595
 5464CHOL    R573070  -5.410  15.249  16.397
 5464CHOL    C173071  -5.201  15.176  16.306
 5464CHOL    C273072  -4.991  15.103  16.215
 5465CHOL   ROH73073   8.912  -3.854  -1.305
 5465CHOL    R173074   8.921  -3.729  -1.205
 5465CHOL    R273075   8.925  -3.761  -0.974
 5465CHOL    R373076   8.931  -3.589  -1.092
 5465CHOL    R473077   8.933  -3.652  -0.886
 5465CHOL    R573078   8.940  -3.464  -0.992
 5465CHOL    C173079   8.954  -3.278  -0.842
 5465CHOL    C273080   8.968  -3.091  -0.692
 5466CHOL   ROH73081  10.176  -7.783  11.306
 5466CHOL    R173082  10.174  -7.623  11.294
 5466CHOL    R273083  10.283  -7.515  11.119
 5466CHOL    R373084  10.172  -7.444  11.281
 5466CHOL    R473085  10.281  -7.375  11.109
 5466CHOL    R573086  10.170  -7.284  11.269
 5466CHOL    C173087  10.167  -7.045  11.251
 5466CHOL    C273088  10.164  -6.806  11.233
 5467CHOL   ROH73089  24.166  -0.490   7.968
 5467CHOL    R173090  24.037  -0.398   7.986
 5467CHOL    R273091  23.898  -0.348   7.805
 5467CHOL    R373092  23.891  -0.294   8.006
 5467CHOL    R473093  23.785  -0.267   7.820
 5467CHOL    R573094  23.762  -0.201   8.024
 5467CHOL    C173095  23.567  -0.063   8.051
 5467CHOL    C273096  23.373   0.075   8.078
 5468CHOL   ROH73097  -3.713   8.405  21.424
 5468CHOL    R173098  -3.590   8.417  21.322
 5468CHOL    R273099  -3.373   8.454  21.399
 5468CHOL    R373100  -3.453   8.431  21.207
 5468CHOL    R473101  -3.266   8.464  21.310
 5468CHOL    R573102  -3.330   8.443  21.105
 5468CHOL    C173103  -3.146   8.461  20.952
 5468CHOL    C273104  -2.962   8.479  20.799
 5469CHOL   ROH73105  12.905   4.886  26.783
 5469CHOL    R173106  12.877   4.929  26.631
 5469CHOL    R273107  12.876   4.770  26.460
 5469CHOL    R373108  12.845   4.976  26.461
 5469CHOL    R473109  12.852   4.807  26.327
 5469CHOL    R573110  12.817   5.019  26.309
 5469CHOL    C173111  12.775   5.083  26.081
 5469CHOL    C273112  12.733   5.147  25.854
 5470CHOL   ROH73113  10.463   4.648  -7.044
 5470CHOL    R173114  10.460   4.696  -6.892
 5470CHOL    R273115  10.523   4.913  -6.833
 5470CHOL    R373116  10.456   4.751  -6.720
 5470CHOL    R473117  10.520   4.955  -6.700
 5470CHOL    R573118  10.453   4.799  -6.567
 5470CHOL    C173119  10.448   4.871  -6.339
 5470CHOL    C273120  10.443   4.944  -6.110
 5471CHOL   ROH73121   3.765  -6.624  12.283
 5471CHOL    R173122   3.820  -6.475  12.263
 5471CHOL    R273123   3.885  -6.345  12.446
 5471CHOL    R373124   3.882  -6.308  12.240
 5471CHOL    R473125   3.933  -6.215  12.428
 5471CHOL    R573126   3.938  -6.159  12.220
 5471CHOL    C173127   4.020  -5.936  12.190
 5471CHOL    C273128   4.103  -5.713  12.160
 5472CHOL   ROH73129  15.551  22.120  -1.952
 5472CHOL    R173130  15.498  22.011  -1.847
 5472CHOL    R273131  15.592  21.798  -1.839
 5472CHOL    R373132  15.439  21.888  -1.730
 5472CHOL    R473133  15.546  21.702  -1.747
 5472CHOL    R573134  15.386  21.780  -1.625
 5472CHOL    C173135  15.307  21.616  -1.468
 5472CHOL    C273136  15.228  21.453  -1.311
 5473CHOL   ROH73137  26.266  12.323  16.529
 5473CHOL    R173138  26.118  12.299  16.472
 5473CHOL    R273139  26.050  12.088  16.401
 5473CHOL    R373140  25.952  12.272  16.408
 5473CHOL    R473141  25.920  12.067  16.352
 5473CHOL    R573142  25.805  12.248  16.352
 5473CHOL    C173143  25.583  12.213  16.266
 5473CHOL    C273144  25.361  12.177  16.181
 5474CHOL   ROH73145   4.582  -5.347  17.472
 5474CHOL    R173146   4.630  -5.210  17.405
 5474CHOL    R273147   4.737  -5.209  17.198
 5474CHOL    R373148   4.685  -5.056  17.330
 5474CHOL    R473149   4.779  -5.089  17.139
 5474CHOL    R573150   4.733  -4.919  17.263
 5474CHOL    C173151   4.806  -4.714  17.163
 5474CHOL    C273152   4.879  -4.508  17.062
 5475CHOL   ROH73153  -6.984  12.648   4.848
 5475CHOL    R173154  -6.832  12.624   4.893
 5475CHOL    R273155  -6.763  12.668   5.111
 5475CHOL    R373156  -6.662  12.597   4.943
 5475CHOL    R473157  -6.630  12.647   5.150
 5475CHOL    R573158  -6.510  12.573   4.988
 5475CHOL    C173159  -6.282  12.536   5.055
 5475CHOL    C273160  -6.055  12.500   5.122
 5476CHOL   ROH73161  14.757  25.465  17.337
 5476CHOL    R173162  14.711  25.327  17.270
 5476CHOL    R273163  14.787  25.123  17.353
 5476CHOL    R373164  14.660  25.172  17.195
 5476CHOL    R473165  14.747  25.002  17.295
 5476CHOL    R573166  14.614  25.034  17.128
 5476CHOL    C173167  14.546  24.826  17.028
 5476CHOL    C273168  14.478  24.619  16.927
 5477CHOL   ROH73169   2.196  14.118  -5.646
 5477CHOL    R173170   2.267  14.083  -5.507
 5477CHOL    R273171   2.168  14.138  -5.304
 5477CHOL    R373172   2.348  14.043  -5.351
 5477CHOL    R473173   2.230  14.107  -5.182
 5477CHOL    R573174   2.419  14.008  -5.213
 5477CHOL    C173175   2.526  13.954  -5.004
 5477CHOL    C273176   2.633  13.901  -4.796
 5478CHOL   ROH73177  11.138  25.546   1.250
 5478CHOL    R173178  11.123  25.407   1.327
 5478CHOL    R273179  11.221  25.212   1.244
 5478CHOL    R373180  11.106  25.250   1.415
 5478CHOL    R473181  11.208  25.090   1.312
 5478CHOL    R573182  11.092  25.111   1.492
 5478CHOL    C173183  11.069  24.902   1.608
 5478CHOL    C273184  11.047  24.693   1.724
 5479CHOL   ROH73185  11.443  -2.356  -2.873
 5479CHOL    R173186  11.428  -2.247  -2.757
 5479CHOL    R273187  11.544  -2.269  -2.555
 5479CHOL    R373188  11.412  -2.123  -2.627
 5479CHOL    R473189  11.531  -2.173  -2.454
 5479CHOL    R573190  11.397  -2.014  -2.511
 5479CHOL    C173191  11.376  -1.850  -2.337
 5479CHOL    C273192  11.354  -1.686  -2.163
 5480CHOL   ROH73193  21.746  17.181  21.082
 5480CHOL    R173194  21.641  17.119  20.978
 5480CHOL    R273195  21.710  16.969  20.814
 5480CHOL    R373196  21.524  17.049  20.861
 5480CHOL    R473197  21.619  16.914  20.723
 5480CHOL    R573198  21.419  16.987  20.758
 5480CHOL    C173199  21.262  16.894  20.602
 5480CHOL    C273200  21.105  16.801  20.446
 5481CHOL   ROH73201  13.108  19.816  -4.597
 5481CHOL    R173202  13.079  19.729  -4.466
 5481CHOL    R273203  13.231  19.725  -4.289
 5481CHOL    R373204  13.047  19.631  -4.318
 5481CHOL    R473205  13.206  19.649  -4.174
 5481CHOL    R573206  13.018  19.544  -4.187
 5481CHOL    C173207  12.976  19.413  -3.990
 5481CHOL    C273208  12.933  19.283  -3.793
 5482CHOL   ROH73209  21.558  23.178  12.658
 5482CHOL    R173210  21.451  23.062  12.629
 5482CHOL    R273211  21.513  22.869  12.514
 5482CHOL    R373212  21.331  22.933  12.595
 5482CHOL    R473213  21.419  22.768  12.488
 5482CHOL    R573214  21.225  22.817  12.566
 5482CHOL    C173215  21.064  22.644  12.522
 5482CHOL    C273216  20.904  22.470  12.478
 5483CHOL   ROH73217  -1.195  12.879  23.593
 5483CHOL    R173218  -1.097  12.850  23.470
 5483CHOL    R273219  -0.867  12.827  23.502
 5483CHOL    R373220  -0.987  12.816  23.332
 5483CHOL    R473221  -0.782  12.802  23.395
 5483CHOL    R573222  -0.889  12.787  23.208
 5483CHOL    C173223  -0.742  12.743  23.024
 5483CHOL    C273224  -0.595  12.699  22.839
 5484CHOL   ROH73225   6.634  18.283  -5.569
 5484CHOL    R173226   6.664  18.212  -5.429
 5484CHOL    R273227   6.849  18.073  -5.401
 5484CHOL    R373228   6.697  18.132  -5.271
 5484CHOL    R473229   6.874  18.011  -5.279
 5484CHOL    R573230   6.726  18.061  -5.130
 5484CHOL    C173231   6.771  17.954  -4.920
 5484CHOL    C273232   6.815  17.848  -4.710
 5485CHOL   ROH73233  11.961  -5.326  18.928
 5485CHOL    R173234  11.943  -5.191  18.844
 5485CHOL    R273235  12.082  -5.142  18.663
 5485CHOL    R373236  11.922  -5.039  18.750
 5485CHOL    R473237  12.066  -5.024  18.590
 5485CHOL    R573238  11.904  -4.904  18.666
 5485CHOL    C173239  11.877  -4.701  18.540
 5485CHOL    C273240  11.849  -4.499  18.414
 5486CHOL   ROH73241  10.581  17.724  -6.126
 5486CHOL    R173242  10.573  17.656  -5.982
 5486CHOL    R273243  10.661  17.443  -5.944
 5486CHOL    R373244  10.563  17.579  -5.819
 5486CHOL    R473245  10.653  17.383  -5.818
 5486CHOL    R573246  10.554  17.510  -5.674
 5486CHOL    C173247  10.542  17.408  -5.458
 5486CHOL    C273248  10.529  17.306  -5.241
 5487CHOL   ROH73249  -2.824   4.190  -1.252
 5487CHOL    R173250  -2.712   4.242  -1.150
 5487CHOL    R273251  -2.716   4.182  -0.925
 5487CHOL    R373252  -2.586   4.301  -1.036
 5487CHOL    R473253  -2.618   4.227  -0.836
 5487CHOL    R573254  -2.474   4.354  -0.934
 5487CHOL    C173255  -2.306   4.432  -0.782
 5487CHOL    C273256  -2.138   4.510  -0.630
 5488CHOL   ROH73257   4.067  13.176  26.452
 5488CHOL    R173258   4.115  13.152  26.301
 5488CHOL    R273259   4.229  13.319  26.184
 5488CHOL    R373260   4.169  13.126  26.131
 5488CHOL    R473261   4.271  13.298  26.052
 5488CHOL    R573262   4.216  13.103  25.980
 5488CHOL    C173263   4.288  13.067  25.754
 5488CHOL    C273264   4.360  13.032  25.528
 5489CHOL   ROH73265   6.909   6.217  27.106
 5489CHOL    R173266   6.936   6.256  26.953
 5489CHOL    R273267   7.152   6.253  26.865
 5489CHOL    R373268   6.966   6.299  26.781
 5489CHOL    R473269   7.176   6.287  26.731
 5489CHOL    R573270   6.993   6.338  26.628
 5489CHOL    C173271   7.034   6.396  26.399
 5489CHOL    C273272   7.075   6.454  26.169
 5490CHOL   ROH73273   9.195  25.734  18.375
 5490CHOL    R173274   9.202  25.592  18.301
 5490CHOL    R273275   9.303  25.409  18.403
 5490CHOL    R373276   9.211  25.433  18.218
 5490CHOL    R473277   9.310  25.285  18.339
 5490CHOL    R573278   9.218  25.291  18.144
 5490CHOL    C173279   9.229  25.078  18.033
 5490CHOL    C273280   9.240  24.866  17.922
 5491CHOL   ROH73281  -4.521  19.007   4.411
 5491CHOL    R173282  -4.390  18.930   4.463
 5491CHOL    R273283  -4.359  18.886   4.689
 5491CHOL    R373284  -4.244  18.844   4.520
 5491CHOL    R473285  -4.245  18.818   4.734
 5491CHOL    R573286  -4.113  18.767   4.572
 5491CHOL    C173287  -3.917  18.652   4.649
 5491CHOL    C273288  -3.721  18.537   4.727
 5492CHOL   ROH73289  26.588   3.933   8.273
 5492CHOL    R173290  26.439   3.988   8.288
 5492CHOL    R273291  26.350   4.138   8.133
 5492CHOL    R373292  26.270   4.050   8.305
 5492CHOL    R473293  26.219   4.187   8.146
 5492CHOL    R573294  26.121   4.105   8.320
 5492CHOL    C173295  25.897   4.188   8.343
 5492CHOL    C273296  25.673   4.271   8.365
 5493CHOL   ROH73297  -2.873  -2.264  12.584
 5493CHOL    R173298  -2.760  -2.153  12.561
 5493CHOL    R273299  -2.563  -2.155  12.685
 5493CHOL    R373300  -2.633  -2.028  12.535
 5493CHOL    R473301  -2.464  -2.058  12.665
 5493CHOL    R573302  -2.520  -1.917  12.512
 5493CHOL    C173303  -2.351  -1.750  12.477
 5493CHOL    C273304  -2.182  -1.584  12.443
 5494CHOL   ROH73305  -7.770   7.250   8.498
 5494CHOL    R173306  -7.613   7.276   8.510
 5494CHOL    R273307  -7.524   7.396   8.689
 5494CHOL    R373308  -7.435   7.305   8.523
 5494CHOL    R473309  -7.386   7.418   8.700
 5494CHOL    R573310  -7.278   7.331   8.535
 5494CHOL    C173311  -7.042   7.370   8.553
 5494CHOL    C273312  -6.806   7.409   8.571
 5495CHOL   ROH73313  24.016  20.702  11.727
 5495CHOL    R173314  23.890  20.605  11.709
 5495CHOL    R273315  23.715  20.662  11.565
 5495CHOL    R373316  23.748  20.496  11.688
 5495CHOL    R473317  23.604  20.577  11.550
 5495CHOL    R573318  23.622  20.400  11.670
 5495CHOL    C173319  23.433  20.254  11.643
 5495CHOL    C273320  23.244  20.109  11.615
 5496CHOL   ROH73321  27.367   7.995  12.722
 5496CHOL    R173322  27.209   8.011  12.701
 5496CHOL    R273323  27.099   7.893  12.533
 5496CHOL    R373324  27.032   8.028  12.677
 5496CHOL    R473325  26.960   7.907  12.514
 5496CHOL    R573326  26.874   8.044  12.656
 5496CHOL    C173327  26.637   8.068  12.624
 5496CHOL    C273328  26.401   8.091  12.592
 5497CHOL   ROH73329   2.247  -5.736  13.643
 5497CHOL    R173330   2.315  -5.595  13.612
 5497CHOL    R273331   2.470  -5.572  13.439
 5497CHOL    R373332   2.392  -5.436  13.577
 5497CHOL    R473333   2.530  -5.448  13.412
 5497CHOL    R573334   2.460  -5.295  13.546
 5497CHOL    C173335   2.563  -5.083  13.499
 5497CHOL    C273336   2.665  -4.871  13.452
 5498CHOL   ROH73337  10.500  10.934  -7.907
 5498CHOL    R173338  10.498  10.926  -7.747
 5498CHOL    R273339  10.621  10.764  -7.633
 5498CHOL    R373340  10.496  10.917  -7.567
 5498CHOL    R473341  10.619  10.757  -7.493
 5498CHOL    R573342  10.494  10.909  -7.408
 5498CHOL    C173343  10.490  10.898  -7.168
 5498CHOL    C273344  10.487  10.886  -6.928
 5499CHOL   ROH73345  -0.316   1.220  21.631
 5499CHOL    R173346  -0.224   1.296  21.524
 5499CHOL    R273347   0.008   1.308  21.553
 5499CHOL    R373348  -0.120   1.381  21.405
 5499CHOL    R473349   0.088   1.374  21.460
 5499CHOL    R573350  -0.027   1.457  21.298
 5499CHOL    C173351   0.111   1.571  21.138
 5499CHOL    C273352   0.249   1.685  20.978
 5500CHOL   ROH73353  26.465   3.954  12.481
 5500CHOL    R173354  26.316   4.007  12.458
 5500CHOL    R273355  26.259   4.228  12.506
 5500CHOL    R373356  26.148   4.067  12.432
 5500CHOL    R473357  26.128   4.275  12.486
 5500CHOL    R573358  25.999   4.121  12.409
 5500CHOL    C173359  25.775   4.200  12.375
 5500CHOL    C273360  25.552   4.280  12.341
 5501CHOL   ROH73361  26.438   5.281   5.253
 5501CHOL    R173362  26.288   5.321   5.293
 5501CHOL    R273363  26.127   5.362   5.129
 5501CHOL    R373364  26.120   5.367   5.337
 5501CHOL    R473365  25.996   5.397   5.163
 5501CHOL    R573366  25.970   5.407   5.377
 5501CHOL    C173367  25.745   5.467   5.437
 5501CHOL    C273368  25.521   5.528   5.496
 5502CHOL   ROH73369  -4.875  14.644   0.932
 5502CHOL    R173370  -4.740  14.599   1.005
 5502CHOL    R273371  -4.551  14.735   1.004
 5502CHOL    R373372  -4.589  14.547   1.088
 5502CHOL    R473373  -4.433  14.695   1.068
 5502CHOL    R573374  -4.454  14.502   1.161
 5502CHOL    C173375  -4.252  14.434   1.271
 5502CHOL    C273376  -4.050  14.366   1.381
 5503CHOL   ROH73377  25.347  18.735   8.861
 5503CHOL    R173378  25.208  18.657   8.874
 5503CHOL    R273379  25.098  18.576   8.685
 5503CHOL    R373380  25.051  18.569   8.888
 5503CHOL    R473381  24.976  18.508   8.696
 5503CHOL    R573382  24.912  18.491   8.901
 5503CHOL    C173383  24.703  18.375   8.920
 5503CHOL    C273384  24.494  18.258   8.939
 5504CHOL   ROH73385  15.501   2.934  -5.511
 5504CHOL    R173386  15.451   2.993  -5.371
 5504CHOL    R273387  15.297   3.168  -5.362
 5504CHOL    R373388  15.394   3.058  -5.213
 5504CHOL    R473389  15.253   3.219  -5.240
 5504CHOL    R573390  15.344   3.117  -5.073
 5504CHOL    C173391  15.268   3.205  -4.863
 5504CHOL    C273392  15.192   3.293  -4.653
 5505CHOL   ROH73393  -6.064  16.972  14.080
 5505CHOL    R173394  -5.921  16.910  14.044
 5505CHOL    R273395  -5.738  17.048  14.000
 5505CHOL    R373396  -5.760  16.841  14.005
 5505CHOL    R473397  -5.613  16.994  13.969
 5505CHOL    R573398  -5.616  16.779  13.969
 5505CHOL    C173399  -5.402  16.686  13.916
 5505CHOL    C273400  -5.187  16.594  13.862
 5506CHOL   ROH73401   4.079   7.014  -6.721
 5506CHOL    R173402   4.130   7.039  -6.571
 5506CHOL    R273403   4.164   6.861  -6.425
 5506CHOL    R373404   4.187   7.067  -6.403
 5506CHOL    R473405   4.208   6.883  -6.293
 5506CHOL    R573406   4.237   7.092  -6.253
 5506CHOL    C173407   4.314   7.130  -6.028
 5506CHOL    C273408   4.390   7.168  -5.804
 5507CHOL   ROH73409   3.315  19.662  23.448
 5507CHOL    R173410   3.373  19.573  23.328
 5507CHOL    R273411   3.490  19.376  23.370
 5507CHOL    R373412   3.438  19.474  23.193
 5507CHOL    R473413   3.541  19.299  23.265
 5507CHOL    R573414   3.496  19.385  23.073
 5507CHOL    C173415   3.584  19.252  22.893
 5507CHOL    C273416   3.671  19.119  22.713
 5508CHOL   ROH73417   3.143  -6.011   5.631
 5508CHOL    R173418   3.202  -5.868   5.671
 5508CHOL    R273419   3.265  -5.821   5.891
 5508CHOL    R373420   3.269  -5.707   5.716
 5508CHOL    R473421   3.317  -5.696   5.925
 5508CHOL    R573422   3.329  -5.564   5.755
 5508CHOL    C173423   3.418  -5.349   5.815
 5508CHOL    C273424   3.507  -5.134   5.875
 5509CHOL   ROH73425  -7.305  14.506  12.053
 5509CHOL    R173426  -7.152  14.463  12.035
 5509CHOL    R273427  -7.080  14.249  12.092
 5509CHOL    R373428  -6.980  14.414  12.014
 5509CHOL    R473429  -6.946  14.211  12.076
 5509CHOL    R573430  -6.827  14.371  11.996
 5509CHOL    C173431  -6.598  14.306  11.968
 5509CHOL    C273432  -6.368  14.241  11.940
 5510CHOL   ROH73433   7.730  23.597  -1.337
 5510CHOL    R173434   7.750  23.474  -1.236
 5510CHOL    R273435   7.784  23.510  -1.008
 5510CHOL    R373436   7.772  23.336  -1.123
 5510CHOL    R473437   7.801  23.403  -0.920
 5510CHOL    R573438   7.791  23.213  -1.023
 5510CHOL    C173439   7.821  23.029  -0.872
 5510CHOL    C273440   7.851  22.845  -0.721
 5511CHOL   ROH73441   2.389   6.863  -6.013
 5511CHOL    R173442   2.456   6.889  -5.870
 5511CHOL    R273443   2.408   6.751  -5.688
 5511CHOL    R373444   2.530   6.919  -5.709
 5511CHOL    R473445   2.467   6.773  -5.563
 5511CHOL    R573446   2.597   6.945  -5.566
 5511CHOL    C173447   2.697   6.984  -5.351
 5511CHOL    C273448   2.797   7.024  -5.137
 5512CHOL   ROH73449  -7.026  11.757  15.555
 5512CHOL    R173450  -6.874  11.746  15.507
 5512CHOL    R273451  -6.708  11.666  15.650
 5512CHOL    R373452  -6.703  11.733  15.453
 5512CHOL    R473453  -6.575  11.656  15.608
 5512CHOL    R573454  -6.550  11.722  15.405
 5512CHOL    C173455  -6.322  11.704  15.332
 5512CHOL    C273456  -6.094  11.687  15.260
 5513CHOL   ROH73457  24.568   0.052  12.072
 5513CHOL    R173458  24.437   0.141  12.051
 5513CHOL    R273459  24.258   0.064  11.922
 5513CHOL    R373460  24.290   0.242  12.027
 5513CHOL    R473461  24.144   0.142  11.904
 5513CHOL    R573462  24.158   0.331  12.006
 5513CHOL    C173463  23.962   0.465  11.974
 5513CHOL    C273464  23.765   0.599  11.943
 5514CHOL   ROH73465  15.486  26.909  10.267
 5514CHOL    R173466  15.431  26.759  10.266
 5514CHOL    R273467  15.499  26.607  10.103
 5514CHOL    R373468  15.369  26.590  10.265
 5514CHOL    R473469  15.451  26.475  10.102
 5514CHOL    R573470  15.314  26.440  10.264
 5514CHOL    C173471  15.231  26.214  10.263
 5514CHOL    C273472  15.148  25.989  10.261
 5515CHOL   ROH73473   9.172  13.494  -7.569
 5515CHOL    R173474   9.177  13.462  -7.412
 5515CHOL    R273475   9.332  13.312  -7.325
 5515CHOL    R373476   9.183  13.427  -7.236
 5515CHOL    R473477   9.337  13.284  -7.188
 5515CHOL    R573478   9.188  13.395  -7.079
 5515CHOL    C173479   9.196  13.347  -6.844
 5515CHOL    C273480   9.203  13.300  -6.609
 5516CHOL   ROH73481  11.382  -4.592  -0.271
 5516CHOL    R173482  11.368  -4.461  -0.180
 5516CHOL    R273483  11.364  -4.248  -0.277
 5516CHOL    R373484  11.353  -4.313  -0.079
 5516CHOL    R473485  11.352  -4.134  -0.197
 5516CHOL    R573486  11.339  -4.182   0.012
 5516CHOL    C173487  11.319  -3.985   0.148
 5516CHOL    C273488  11.299  -3.788   0.284
 5517CHOL   ROH73489  20.675  21.193   1.348
 5517CHOL    R173490  20.579  21.092   1.426
 5517CHOL    R273491  20.522  20.885   1.333
 5517CHOL    R373492  20.470  20.978   1.513
 5517CHOL    R473493  20.438  20.797   1.402
 5517CHOL    R573494  20.373  20.876   1.591
 5517CHOL    C173495  20.229  20.725   1.708
 5517CHOL    C273496  20.084  20.573   1.824
 5518CHOL   ROH73497  -3.215  17.840  19.247
 5518CHOL    R173498  -3.099  17.768  19.163
 5518CHOL    R273499  -2.901  17.880  19.112
 5518CHOL    R373500  -2.969  17.687  19.068
 5518CHOL    R473501  -2.800  17.817  19.038
 5518CHOL    R573502  -2.854  17.615  18.984
 5518CHOL    C173503  -2.680  17.507  18.858
 5518CHOL    C273504  -2.506  17.399  18.732
 5519CHOL   ROH73505   2.952  26.416  11.184
 5519CHOL    R173506   3.015  26.269  11.172
 5519CHOL    R273507   3.188  26.224  11.023
 5519CHOL    R373508   3.086  26.104  11.159
 5519CHOL    R473509   3.243  26.096  11.013
 5519CHOL    R573510   3.148  25.957  11.148
 5519CHOL    C173511   3.243  25.737  11.130
 5519CHOL    C273512   3.337  25.517  11.112
 5520CHOL   ROH73513  17.846  10.452  -5.989
 5520CHOL    R173514  17.773  10.449  -5.846
 5520CHOL    R273515  17.592  10.588  -5.801
 5520CHOL    R373516  17.692  10.445  -5.686
 5520CHOL    R473517  17.529  10.585  -5.676
 5520CHOL    R573518  17.619  10.442  -5.544
 5520CHOL    C173519  17.510  10.436  -5.330
 5520CHOL    C273520  17.401  10.431  -5.116
 5521CHOL   ROH73521  24.654   0.183   8.186
 5521CHOL    R173522  24.520   0.269   8.203
 5521CHOL    R273523  24.375   0.301   8.024
 5521CHOL    R373524  24.370   0.367   8.222
 5521CHOL    R473525  24.258   0.377   8.039
 5521CHOL    R573526  24.237   0.453   8.239
 5521CHOL    C173527  24.036   0.583   8.264
 5521CHOL    C273528  23.836   0.712   8.290
 5522CHOL   ROH73529  24.765   0.198   9.244
 5522CHOL    R173530  24.631   0.285   9.252
 5522CHOL    R273531  24.477   0.287   9.076
 5522CHOL    R373532  24.480   0.382   9.262
 5522CHOL    R473533  24.360   0.362   9.084
 5522CHOL    R573534  24.346   0.469   9.270
 5522CHOL    C173535  24.144   0.599   9.283
 5522CHOL    C273536  23.943   0.729   9.296
 5523CHOL   ROH73537  -5.796  17.212   5.482
 5523CHOL    R173538  -5.655  17.150   5.525
 5523CHOL    R273539  -5.501  17.275   5.648
 5523CHOL    R373540  -5.496  17.080   5.574
 5523CHOL    R473541  -5.378  17.221   5.686
 5523CHOL    R573542  -5.355  17.018   5.617
 5523CHOL    C173543  -5.143  16.926   5.682
 5523CHOL    C273544  -4.932  16.833   5.747
 5524CHOL   ROH73545  11.873  23.320  21.583
 5524CHOL    R173546  11.851  23.200  21.479
 5524CHOL    R273547  12.027  23.060  21.418
 5524CHOL    R373548  11.826  23.065  21.363
 5524CHOL    R473549  12.007  22.955  21.327
 5524CHOL    R573550  11.803  22.945  21.259
 5524CHOL    C173551  11.770  22.766  21.103
 5524CHOL    C273552  11.737  22.586  20.948
 5525CHOL   ROH73553   7.624   9.590  27.609
 5525CHOL    R173554   7.648   9.590  27.451
 5525CHOL    R273555   7.846   9.670  27.359
 5525CHOL    R373556   7.674   9.589  27.273
 5525CHOL    R473557   7.867   9.670  27.221
 5525CHOL    R573558   7.698   9.589  27.115
 5525CHOL    C173559   7.734   9.588  26.877
 5525CHOL    C273560   7.769   9.587  26.640
 5526CHOL   ROH73561   1.115  19.409  22.304
 5526CHOL    R173562   1.196  19.328  22.192
 5526CHOL    R273563   1.364  19.177  22.252
 5526CHOL    R373564   1.287  19.236  22.067
 5526CHOL    R473565   1.434  19.106  22.154
 5526CHOL    R573566   1.368  19.155  21.956
 5526CHOL    C173567   1.489  19.032  21.788
 5526CHOL    C273568   1.610  18.910  21.621
 5527CHOL   ROH73569  -6.168   2.157   9.949
 5527CHOL    R173570  -6.024   2.226   9.951
 5527CHOL    R273571  -5.829   2.097   9.942
 5527CHOL    R373572  -5.861   2.303   9.954
 5527CHOL    R473573  -5.703   2.157   9.943
 5527CHOL    R573574  -5.717   2.372   9.956
 5527CHOL    C173575  -5.500   2.475   9.959
 5527CHOL    C273576  -5.283   2.578   9.963
 5528CHOL   ROH73577   7.511  -7.322   6.232
 5528CHOL    R173578   7.531  -7.166   6.264
 5528CHOL    R273579   7.745  -7.073   6.271
 5528CHOL    R373580   7.555  -6.992   6.299
 5528CHOL    R473581   7.763  -6.937   6.299
 5528CHOL    R573582   7.575  -6.836   6.331
 5528CHOL    C173583   7.606  -6.603   6.379
 5528CHOL    C273584   7.636  -6.369   6.426
 5529CHOL   ROH73585  26.189   5.845   3.956
 5529CHOL    R173586  26.042   5.880   4.008
 5529CHOL    R273587  25.863   5.735   3.968
 5529CHOL    R373588  25.876   5.918   4.066
 5529CHOL    R473589  25.734   5.765   4.013
 5529CHOL    R573590  25.728   5.953   4.118
 5529CHOL    C173591  25.507   6.005   4.196
 5529CHOL    C273592  25.286   6.057   4.274
 5530CHOL   ROH73593   2.743   2.490  -4.645
 5530CHOL    R173594   2.810   2.561  -4.518
 5530CHOL    R273595   2.989   2.461  -4.406
 5530CHOL    R373596   2.886   2.640  -4.375
 5530CHOL    R473597   3.047   2.523  -4.295
 5530CHOL    R573598   2.953   2.711  -4.249
 5530CHOL    C173599   3.054   2.816  -4.058
 5530CHOL    C273600   3.155   2.922  -3.868
 5531CHOL   ROH73601  -0.786  -0.739   0.413
 5531CHOL    R173602  -0.696  -0.644   0.504
 5531CHOL    R273603  -0.684  -0.675   0.735
 5531CHOL    R373604  -0.594  -0.536   0.607
 5531CHOL    R473605  -0.605  -0.591   0.815
 5531CHOL    R573606  -0.504  -0.441   0.698
 5531CHOL    C173607  -0.369  -0.298   0.836
 5531CHOL    C273608  -0.233  -0.155   0.973
 5532CHOL   ROH73609  20.853   2.235  -1.722
 5532CHOL    R173610  20.753   2.304  -1.618
 5532CHOL    R273611  20.830   2.463  -1.466
 5532CHOL    R373612  20.640   2.382  -1.501
 5532CHOL    R473613  20.742   2.524  -1.375
 5532CHOL    R573614  20.541   2.451  -1.397
 5532CHOL    C173615  20.390   2.555  -1.241
 5532CHOL    C273616  20.241   2.658  -1.085
 5533CHOL   ROH73617  16.095   9.121  -6.746
 5533CHOL    R173618  16.036   9.132  -6.598
 5533CHOL    R273619  15.811   9.086  -6.554
 5533CHOL    R373620  15.970   9.144  -6.431
 5533CHOL    R473621  15.760   9.096  -6.424
 5533CHOL    R573622  15.910   9.155  -6.282
 5533CHOL    C173623  15.822   9.171  -6.060
 5533CHOL    C273624  15.733   9.188  -5.838
 5534CHOL   ROH73625   0.456  25.117  11.192
 5534CHOL    R173626   0.540  24.981  11.187
 5534CHOL    R273627   0.773  24.983  11.183
 5534CHOL    R373628   0.633  24.827  11.181
 5534CHOL    R473629   0.846  24.864  11.178
 5534CHOL    R573630   0.717  24.691  11.176
 5534CHOL    C173631   0.842  24.487  11.168
 5534CHOL    C273632   0.968  24.282  11.161
 5535CHOL   ROH73633   2.612  20.590  22.340
 5535CHOL    R173634   2.676  20.495  22.229
 5535CHOL    R273635   2.797  20.305  22.289
 5535CHOL    R373636   2.748  20.387  22.103
 5535CHOL    R473637   2.853  20.221  22.191
 5535CHOL    R573638   2.812  20.292  21.992
 5535CHOL    C173639   2.908  20.149  21.825
 5535CHOL    C273640   3.004  20.006  21.658
 5536CHOL   ROH73641  -3.230  -0.457   3.690
 5536CHOL    R173642  -3.111  -0.363   3.742
 5536CHOL    R273643  -2.934  -0.451   3.866
 5536CHOL    R373644  -2.978  -0.257   3.800
 5536CHOL    R473645  -2.830  -0.369   3.911
 5536CHOL    R573646  -2.859  -0.164   3.851
 5536CHOL    C173647  -2.681  -0.023   3.929
 5536CHOL    C273648  -2.503   0.118   4.007
 5537CHOL   ROH73649  11.679  25.897  17.864
 5537CHOL    R173650  11.660  25.755  17.792
 5537CHOL    R273651  11.756  25.562  17.881
 5537CHOL    R373652  11.639  25.595  17.712
 5537CHOL    R473653  11.739  25.438  17.819
 5537CHOL    R573654  11.619  25.454  17.641
 5537CHOL    C173655  11.591  25.241  17.533
 5537CHOL    C273656  11.562  25.028  17.426
 5538CHOL   ROH73657  -5.767  17.139  14.884
 5538CHOL    R173658  -5.627  17.075  14.842
 5538CHOL    R273659  -5.514  16.928  14.984
 5538CHOL    R373660  -5.468  17.003  14.795
 5538CHOL    R473661  -5.391  16.872  14.947
 5538CHOL    R573662  -5.328  16.939  14.752
 5538CHOL    C173663  -5.117  16.844  14.689
 5538CHOL    C273664  -4.907  16.748  14.626
 5539CHOL   ROH73665  21.918  16.858  -1.353
 5539CHOL    R173666  21.811  16.797  -1.251
 5539CHOL    R273667  21.777  16.567  -1.236
 5539CHOL    R373668  21.691  16.728  -1.136
 5539CHOL    R473669  21.683  16.513  -1.147
 5539CHOL    R573670  21.584  16.667  -1.034
 5539CHOL    C173671  21.424  16.575  -0.880
 5539CHOL    C273672  21.263  16.484  -0.727
 5540CHOL   ROH73673   1.030  18.867  -2.848
 5540CHOL    R173674   1.109  18.790  -2.732
 5540CHOL    R273675   1.339  18.819  -2.705
 5540CHOL    R373676   1.199  18.704  -2.602
 5540CHOL    R473677   1.409  18.752  -2.603
 5540CHOL    R573678   1.278  18.627  -2.486
 5540CHOL    C173679   1.397  18.512  -2.312
 5540CHOL    C273680   1.516  18.397  -2.138
 5541CHOL   ROH73681  14.755  -2.498  21.645
 5541CHOL    R173682  14.714  -2.386  21.538
 5541CHOL    R273683  14.701  -2.436  21.311
 5541CHOL    R373684  14.668  -2.260  21.418
 5541CHOL    R473685  14.666  -2.338  21.217
 5541CHOL    R573686  14.628  -2.148  21.311
 5541CHOL    C173687  14.566  -1.980  21.151
 5541CHOL    C273688  14.505  -1.812  20.991
 5542CHOL   ROH73689  13.761   0.933  24.850
 5542CHOL    R173690  13.727   1.017  24.718
 5542CHOL    R273691  13.893   1.072  24.565
 5542CHOL    R373692  13.689   1.112  24.570
 5542CHOL    R473693  13.864   1.146  24.449
 5542CHOL    R573694  13.654   1.196  24.439
 5542CHOL    C173695  13.603   1.323  24.241
 5542CHOL    C273696  13.552   1.449  24.043
 5543CHOL   ROH73697  12.555  -6.540   3.567
 5543CHOL    R173698  12.530  -6.393   3.625
 5543CHOL    R273699  12.634  -6.207   3.530
 5543CHOL    R373700  12.501  -6.228   3.689
 5543CHOL    R473701  12.612  -6.079   3.581
 5543CHOL    R573702  12.476  -6.081   3.747
 5543CHOL    C173703  12.437  -5.860   3.833
 5543CHOL    C273704  12.399  -5.639   3.920
 5544CHOL   ROH73705  24.043  15.223   0.434
 5544CHOL    R173706  23.915  15.178   0.519
 5544CHOL    R273707  23.699  15.215   0.440
 5544CHOL    R373708  23.771  15.126   0.614
 5544CHOL    R473709  23.587  15.176   0.514
 5544CHOL    R573710  23.644  15.081   0.699
 5544CHOL    C173711  23.452  15.013   0.826
 5544CHOL    C273712  23.260  14.945   0.953
 5545CHOL   ROH73713  27.468   7.958  11.729
 5545CHOL    R173714  27.309   7.973  11.717
 5545CHOL    R273715  27.187   7.837  11.571
 5545CHOL    R373716  27.130   7.990  11.702
 5545CHOL    R473717  27.048   7.850  11.560
 5545CHOL    R573718  26.971   8.004  11.690
 5545CHOL    C173719  26.733   8.027  11.671
 5545CHOL    C273720  26.495   8.049  11.653
 5546CHOL   ROH73721  12.304  -4.336  20.233
 5546CHOL    R173722  12.281  -4.212  20.135
 5546CHOL    R273723  12.461  -4.102  20.036
 5546CHOL    R373724  12.255  -4.072  20.024
 5546CHOL    R473725  12.441  -3.993  19.950
 5546CHOL    R573726  12.231  -3.948  19.926
 5546CHOL    C173727  12.197  -3.762  19.779
 5546CHOL    C273728  12.162  -3.576  19.631
 5547CHOL   ROH73729   5.082  24.261  19.563
 5547CHOL    R173730   5.126  24.136  19.474
 5547CHOL    R273731   5.348  24.065  19.466
 5547CHOL    R373732   5.175  23.994  19.374
 5547CHOL    R473733   5.386  23.956  19.388
 5547CHOL    R573734   5.218  23.869  19.284
 5547CHOL    C173735   5.284  23.681  19.151
 5547CHOL    C273736   5.350  23.493  19.017
 5548CHOL   ROH73737   2.337  -5.178  15.666
 5548CHOL    R173738   2.403  -5.042  15.615
 5548CHOL    R273739   2.612  -5.042  15.511
 5548CHOL    R373740   2.478  -4.888  15.557
 5548CHOL    R473741   2.670  -4.922  15.466
 5548CHOL    R573742   2.545  -4.752  15.506
 5548CHOL    C173743   2.644  -4.548  15.429
 5548CHOL    C273744   2.744  -4.343  15.352
 5549CHOL   ROH73745   1.690  17.155  -4.227
 5549CHOL    R173746   1.764  17.092  -4.100
 5549CHOL    R273747   1.806  17.220  -3.909
 5549CHOL    R373748   1.847  17.021  -3.957
 5549CHOL    R473749   1.870  17.164  -3.798
 5549CHOL    R573750   1.921  16.957  -3.830
 5549CHOL    C173751   2.032  16.863  -3.639
 5549CHOL    C273752   2.143  16.768  -3.449
 5550CHOL   ROH73753   4.594  -2.706  -1.455
 5550CHOL    R173754   4.643  -2.593  -1.353
 5550CHOL    R273755   4.653  -2.635  -1.123
 5550CHOL    R373756   4.699  -2.466  -1.238
 5550CHOL    R473757   4.696  -2.536  -1.034
 5550CHOL    R573758   4.748  -2.354  -1.135
 5550CHOL    C173759   4.822  -2.184  -0.982
 5550CHOL    C273760   4.896  -2.015  -0.829
 5551CHOL   ROH73761  14.412  -3.422  -0.906
 5551CHOL    R173762  14.370  -3.303  -0.808
 5551CHOL    R273763  14.527  -3.201  -0.669
 5551CHOL    R373764  14.323  -3.169  -0.698
 5551CHOL    R473765  14.490  -3.096  -0.583
 5551CHOL    R573766  14.280  -3.049  -0.600
 5551CHOL    C173767  14.217  -2.871  -0.452
 5551CHOL    C273768  14.154  -2.692  -0.305
 5552CHOL   ROH73769  17.506   3.789  -4.949
 5552CHOL    R173770  17.436   3.841  -4.815
 5552CHOL    R273771  17.498   4.044  -4.718
 5552CHOL    R373772  17.357   3.899  -4.664
 5552CHOL    R473773  17.437   4.089  -4.600
 5552CHOL    R573774  17.287   3.951  -4.530
 5552CHOL    C173775  17.183   4.029  -4.328
 5552CHOL    C273776  17.078   4.107  -4.127
 5553CHOL   ROH73777  22.292  -2.800   8.862
 5553CHOL    R173778  22.180  -2.686   8.872
 5553CHOL    R273779  22.224  -2.482   8.976
 5553CHOL    R373780  22.053  -2.559   8.882
 5553CHOL    R473781  22.126  -2.383   8.984
 5553CHOL    R573782  21.941  -2.445   8.892
 5553CHOL    C173783  21.773  -2.275   8.906
 5553CHOL    C273784  21.604  -2.104   8.921
 5554CHOL   ROH73785   1.150  -1.001  -0.989
 5554CHOL    R173786   1.226  -0.902  -0.889
 5554CHOL    R273787   1.365  -0.984  -0.721
 5554CHOL    R373788   1.312  -0.791  -0.777
 5554CHOL    R473789   1.432  -0.898  -0.634
 5554CHOL    R573790   1.388  -0.692  -0.677
 5554CHOL    C173791   1.502  -0.543  -0.527
 5554CHOL    C273792   1.616  -0.394  -0.377
 5555CHOL   ROH73793  16.474  13.186  26.268
 5555CHOL    R173794  16.415  13.158  26.122
 5555CHOL    R273795  16.553  13.161  25.934
 5555CHOL    R373796  16.348  13.126  25.958
 5555CHOL    R473797  16.501  13.137  25.806
 5555CHOL    R573798  16.289  13.098  25.812
 5555CHOL    C173799  16.200  13.056  25.593
 5555CHOL    C273800  16.111  13.014  25.374
 5556CHOL   ROH73801  25.251  13.003   1.424
 5556CHOL    R173802  25.114  12.977   1.502
 5556CHOL    R273803  24.931  12.881   1.393
 5556CHOL    R373804  24.959  12.947   1.589
 5556CHOL    R473805  24.810  12.857   1.461
 5556CHOL    R573806  24.822  12.920   1.667
 5556CHOL    C173807  24.615  12.881   1.784
 5556CHOL    C273808  24.409  12.841   1.900
 5557CHOL   ROH73809  -7.147  15.468   9.672
 5557CHOL    R173810  -6.995  15.419   9.673
 5557CHOL    R273811  -6.940  15.201   9.737
 5557CHOL    R373812  -6.824  15.363   9.675
 5557CHOL    R473813  -6.807  15.158   9.738
 5557CHOL    R573814  -6.672  15.314   9.676
 5557CHOL    C173815  -6.443  15.240   9.679
 5557CHOL    C273816  -6.215  15.166   9.681
 5558CHOL   ROH73817  23.333   0.256   3.344
 5558CHOL    R173818  23.213   0.344   3.403
 5558CHOL    R273819  23.247   0.565   3.468
 5558CHOL    R373820  23.078   0.443   3.469
 5558CHOL    R473821  23.142   0.642   3.520
 5558CHOL    R573822  22.958   0.531   3.528
 5558CHOL    C173823  22.777   0.662   3.616
 5558CHOL    C273824  22.597   0.794   3.705
 5559CHOL   ROH73825  -6.780   6.881  15.657
 5559CHOL    R173826  -6.630   6.909  15.609
 5559CHOL    R273827  -6.458   6.760  15.660
 5559CHOL    R373828  -6.461   6.940  15.554
 5559CHOL    R473829  -6.327   6.784  15.618
 5559CHOL    R573830  -6.311   6.968  15.506
 5559CHOL    C173831  -6.086   7.009  15.434
 5559CHOL    C273832  -5.861   7.051  15.361
 5560CHOL   ROH73833  -0.871  -1.694   1.644
 5560CHOL    R173834  -0.778  -1.589   1.721
 5560CHOL    R273835  -0.584  -1.659   1.831
 5560CHOL    R373836  -0.673  -1.472   1.808
 5560CHOL    R473837  -0.503  -1.568   1.899
 5560CHOL    R573838  -0.579  -1.367   1.885
 5560CHOL    C173839  -0.440  -1.210   2.001
 5560CHOL    C273840  -0.300  -1.053   2.116
 5561CHOL   ROH73841  10.122  -4.241  20.707
 5561CHOL    R173842  10.116  -4.116  20.608
 5561CHOL    R273843  10.246  -4.110  20.414
 5561CHOL    R373844  10.109  -3.975  20.496
 5561CHOL    R473845  10.240  -4.000  20.327
 5561CHOL    R573846  10.103  -3.849  20.397
 5561CHOL    C173847  10.094  -3.662  20.247
 5561CHOL    C273848  10.085  -3.474  20.098
 5562CHOL   ROH73849  19.889  24.693  10.854
 5562CHOL    R173850  19.804  24.557  10.851
 5562CHOL    R273851  19.836  24.400  10.682
 5562CHOL    R373852  19.709  24.405  10.848
 5562CHOL    R473853  19.762  24.281  10.679
 5562CHOL    R573854  19.625  24.269  10.844
 5562CHOL    C173855  19.498  24.065  10.840
 5562CHOL    C273856  19.371  23.862  10.835
 5563CHOL   ROH73857   4.039  25.705  16.067
 5563CHOL    R173858   4.090  25.564  16.012
 5563CHOL    R273859   4.126  25.385  16.157
 5563CHOL    R373860   4.148  25.405  15.950
 5563CHOL    R473861   4.171  25.261  16.109
 5563CHOL    R573862   4.199  25.264  15.896
 5563CHOL    C173863   4.277  25.052  15.813
 5563CHOL    C273864   4.354  24.840  15.731
 5564CHOL   ROH73865  20.404  20.098  20.211
 5564CHOL    R173866  20.308  20.007  20.120
 5564CHOL    R273867  20.397  19.866  19.957
 5564CHOL    R373868  20.201  19.906  20.018
 5564CHOL    R473869  20.313  19.786  19.877
 5564CHOL    R573870  20.106  19.815  19.927
 5564CHOL    C173871  19.962  19.679  19.790
 5564CHOL    C273872  19.819  19.543  19.653
 5565CHOL   ROH73873   6.277  20.651  23.762
 5565CHOL    R173874   6.310  20.552  23.641
 5565CHOL    R273875   6.528  20.531  23.560
 5565CHOL    R373876   6.348  20.440  23.505
 5565CHOL    R473877   6.557  20.444  23.454
 5565CHOL    R573878   6.382  20.341  23.384
 5565CHOL    C173879   6.432  20.192  23.203
 5565CHOL    C273880   6.482  20.043  23.021
 5566CHOL   ROH73881  11.293  10.267  -7.900
 5566CHOL    R173882  11.283  10.266  -7.740
 5566CHOL    R273883  11.077  10.274  -7.633
 5566CHOL    R373884  11.272  10.264  -7.561
 5566CHOL    R473885  11.068  10.273  -7.493
 5566CHOL    R573886  11.263  10.262  -7.401
 5566CHOL    C173887  11.248  10.260  -7.161
 5566CHOL    C273888  11.233  10.258  -6.922
 5567CHOL   ROH73889  24.615  19.529  13.049
 5567CHOL    R173890  24.483  19.443  13.021
 5567CHOL    R273891  24.402  19.415  12.804
 5567CHOL    R373892  24.335  19.346  12.988
 5567CHOL    R473893  24.287  19.340  12.779
 5567CHOL    R573894  24.203  19.260  12.960
 5567CHOL    C173895  24.005  19.131  12.917
 5567CHOL    C273896  23.807  19.002  12.875
 5568CHOL   ROH73897  -6.536   3.438  12.362
 5568CHOL    R173898  -6.389   3.496  12.339
 5568CHOL    R273899  -6.210   3.353  12.293
 5568CHOL    R373900  -6.223   3.561  12.313
 5568CHOL    R473901  -6.081   3.404  12.273
 5568CHOL    R573902  -6.075   3.619  12.290
 5568CHOL    C173903  -5.854   3.705  12.255
 5568CHOL    C273904  -5.633   3.792  12.221
 5569CHOL   ROH73905   8.329  26.940   4.457
 5569CHOL    R173906   8.341  26.788   4.505
 5569CHOL    R273907   8.477  26.637   4.390
 5569CHOL    R373908   8.355  26.617   4.558
 5569CHOL    R473909   8.488  26.504   4.432
 5569CHOL    R573910   8.367  26.465   4.606
 5569CHOL    C173911   8.385  26.236   4.678
 5569CHOL    C273912   8.403  26.008   4.749
 5570CHOL   ROH73913   4.423  24.246  19.232
 5570CHOL    R173914   4.473  24.120  19.147
 5570CHOL    R273915   4.700  24.074  19.121
 5570CHOL    R373916   4.528  23.978  19.051
 5570CHOL    R473917   4.743  23.964  19.046
 5570CHOL    R573918   4.578  23.852  18.965
 5570CHOL    C173919   4.652  23.663  18.838
 5570CHOL    C273920   4.727  23.474  18.710
 5571CHOL   ROH73921  -4.511   2.630  17.626
 5571CHOL    R173922  -4.383   2.698  17.559
 5571CHOL    R273923  -4.206   2.569  17.480
 5571CHOL    R373924  -4.239   2.775  17.483
 5571CHOL    R473925  -4.093   2.629  17.421
 5571CHOL    R573926  -4.110   2.844  17.416
 5571CHOL    C173927  -3.918   2.946  17.315
 5571CHOL    C273928  -3.726   3.048  17.214
 5572CHOL   ROH73929  10.174   4.728  26.971
 5572CHOL    R173930  10.174   4.777  26.819
 5572CHOL    R273931  10.252   4.638  26.648
 5572CHOL    R373932  10.175   4.833  26.648
 5572CHOL    R473933  10.252   4.682  26.515
 5572CHOL    R573934  10.175   4.882  26.496
 5572CHOL    C173935  10.176   4.956  26.267
 5572CHOL    C273936  10.177   5.030  26.039
 5573CHOL   ROH73937  -5.501  18.954   7.857
 5573CHOL    R173938  -5.363  18.876   7.877
 5573CHOL    R273939  -5.346  18.699   8.028
 5573CHOL    R373940  -5.208  18.788   7.899
 5573CHOL    R473941  -5.225  18.631   8.046
 5573CHOL    R573942  -5.069  18.710   7.918
 5573CHOL    C173943  -4.862  18.592   7.948
 5573CHOL    C273944  -4.655  18.475   7.978
 5574CHOL   ROH73945  24.668   1.953   3.919
 5574CHOL    R173946  24.536   2.026   3.972
 5574CHOL    R273947  24.538   2.251   4.033
 5574CHOL    R373948  24.387   2.107   4.032
 5574CHOL    R473949  24.423   2.314   4.079
 5574CHOL    R573950  24.255   2.180   4.085
 5574CHOL    C173951  24.056   2.289   4.165
 5574CHOL    C273952  23.858   2.398   4.244
 5575CHOL   ROH73953   0.068  14.549  24.067
 5575CHOL    R173954   0.158  14.507  23.941
 5575CHOL    R273955   0.388  14.481  23.962
 5575CHOL    R373956   0.258  14.461  23.799
 5575CHOL    R473957   0.467  14.445  23.851
 5575CHOL    R573958   0.348  14.419  23.674
 5575CHOL    C173959   0.482  14.357  23.485
 5575CHOL    C273960   0.617  14.294  23.296
 5576CHOL   ROH73961  12.313  27.642  10.685
 5576CHOL    R173962  12.293  27.483  10.678
 5576CHOL    R273963  12.411  27.342  10.822
 5576CHOL    R373964  12.272  27.305  10.671
 5576CHOL    R473965  12.394  27.203  10.816
 5576CHOL    R573966  12.252  27.146  10.664
 5576CHOL    C173967  12.223  26.908  10.655
 5576CHOL    C273968  12.193  26.670  10.645
 5577CHOL   ROH73969  -0.735   9.548  -4.362
 5577CHOL    R173970  -0.639   9.549  -4.234
 5577CHOL    R273971  -0.721   9.611  -4.024
 5577CHOL    R373972  -0.532   9.550  -4.089
 5577CHOL    R473973  -0.637   9.612  -3.912
 5577CHOL    R573974  -0.436   9.551  -3.961
 5577CHOL    C173975  -0.293   9.552  -3.769
 5577CHOL    C273976  -0.150   9.554  -3.576
 5578CHOL   ROH73977  17.495  24.546  16.816
 5578CHOL    R173978  17.425  24.417  16.753
 5578CHOL    R273979  17.382  24.404  16.524
 5578CHOL    R373980  17.346  24.272  16.681
 5578CHOL    R473981  17.321  24.291  16.468
 5578CHOL    R573982  17.276  24.143  16.618
 5578CHOL    C173983  17.171  23.949  16.523
 5578CHOL    C273984  17.066  23.755  16.428
 5579CHOL   ROH73985   2.276  13.533  25.698
 5579CHOL    R173986   2.342  13.503  25.555
 5579CHOL    R273987   2.514  13.636  25.472
 5579CHOL    R373988   2.416  13.468  25.395
 5579CHOL    R473989   2.571  13.610  25.347
 5579CHOL    R573990   2.482  13.438  25.253
 5579CHOL    C173991   2.581  13.392  25.039
 5579CHOL    C273992   2.680  13.347  24.825
 5580CHOL   ROH73993  12.592  -7.415  12.876
 5580CHOL    R173994  12.569  -7.259  12.849
 5580CHOL    R273995  12.642  -7.160  12.651
 5580CHOL    R373996  12.544  -7.083  12.819
 5580CHOL    R473997  12.622  -7.023  12.627
 5580CHOL    R573998  12.521  -6.927  12.792
 5580CHOL    C173999  12.488  -6.693  12.752
 5580CHOL    C274000  12.454  -6.459  12.711
 5581CHOL   ROH74001  10.746  -5.825   1.666
 5581CHOL    R174002  10.740  -5.684   1.741
 5581CHOL    R274003  10.858  -5.648   1.939
 5581CHOL    R374004  10.732  -5.525   1.825
 5581CHOL    R474005  10.853  -5.524   2.004
 5581CHOL    R574006  10.726  -5.384   1.901
 5581CHOL    C174007  10.716  -5.172   2.013
 5581CHOL    C274008  10.707  -4.961   2.126
 5582CHOL   ROH74009  25.563   7.593   1.770
 5582CHOL    R174010  25.422   7.612   1.843
 5582CHOL    R274011  25.277   7.431   1.873
 5582CHOL    R374012  25.263   7.633   1.925
 5582CHOL    R474013  25.154   7.448   1.937
 5582CHOL    R574014  25.122   7.652   1.998
 5582CHOL    C174015  24.910   7.680   2.107
 5582CHOL    C274016  24.699   7.709   2.217
 5583CHOL   ROH74017  26.429  13.421  15.486
 5583CHOL    R174018  26.280  13.390  15.438
 5583CHOL    R274019  26.204  13.464  15.230
 5583CHOL    R374020  26.112  13.355  15.383
 5583CHOL    R474021  26.073  13.437  15.187
 5583CHOL    R574022  25.962  13.325  15.335
 5583CHOL    C174023  25.739  13.278  15.262
 5583CHOL    C274024  25.515  13.232  15.189
 5584CHOL   ROH74025  26.463   6.878  15.764
 5584CHOL    R174026  26.315   6.908  15.710
 5584CHOL    R274027  26.179   6.735  15.631
 5584CHOL    R374028  26.149   6.941  15.650
 5584CHOL    R474029  26.050   6.762  15.584
 5584CHOL    R574030  26.002   6.971  15.596
 5584CHOL    C174031  25.780   7.016  15.515
 5584CHOL    C274032  25.558   7.060  15.435
 5585CHOL   ROH74033  14.176  19.783  -4.354
 5585CHOL    R174034  14.140  19.697  -4.224
 5585CHOL    R274035  14.091  19.470  -4.240
 5585CHOL    R374036  14.099  19.600  -4.078
 5585CHOL    R474037  14.060  19.394  -4.127
 5585CHOL    R574038  14.062  19.515  -3.948
 5585CHOL    C174039  14.008  19.386  -3.753
 5585CHOL    C274040  13.954  19.257  -3.558
 5586CHOL   ROH74041  11.534  -3.414  21.488
 5586CHOL    R174042  11.515  -3.296  21.382
 5586CHOL    R274043  11.587  -3.319  21.162
 5586CHOL    R374044  11.493  -3.162  21.263
 5586CHOL    R474045  11.571  -3.215  21.069
 5586CHOL    R574046  11.474  -3.044  21.157
 5586CHOL    C174047  11.445  -2.866  20.998
 5586CHOL    C274048  11.416  -2.689  20.839
 5587CHOL   ROH74049  20.879   9.710  -4.114
 5587CHOL    R174050  20.781   9.712  -3.987
 5587CHOL    R274051  20.702   9.913  -3.900
 5587CHOL    R374052  20.671   9.714  -3.845
 5587CHOL    R474053  20.617   9.915  -3.789
 5587CHOL    R574054  20.573   9.716  -3.719
 5587CHOL    C174055  20.426   9.720  -3.529
 5587CHOL    C274056  20.279   9.723  -3.339
 5588CHOL   ROH74057  -3.030   3.095  20.184
 5588CHOL    R174058  -2.918   3.158  20.088
 5588CHOL    R274059  -2.713   3.051  20.057
 5588CHOL    R374060  -2.793   3.228  19.980
 5588CHOL    R474061  -2.616   3.106  19.973
 5588CHOL    R574062  -2.682   3.291  19.884
 5588CHOL    C174063  -2.514   3.385  19.740
 5588CHOL    C274064  -2.347   3.479  19.596
 5589CHOL   ROH74065   6.916  -5.452  18.431
 5589CHOL    R174066   6.941  -5.314  18.354
 5589CHOL    R274067   7.141  -5.274  18.241
 5589CHOL    R374068   6.970  -5.158  18.268
 5589CHOL    R474069   7.163  -5.153  18.174
 5589CHOL    R574070   6.995  -5.020  18.192
 5589CHOL    C174071   7.033  -4.813  18.077
 5589CHOL    C274072   7.071  -4.605  17.962
 5590CHOL   ROH74073  24.714  19.869   9.888
 5590CHOL    R174074  24.580  19.781   9.891
 5590CHOL    R274075  24.590  19.550   9.920
 5590CHOL    R374076  24.430  19.682   9.895
 5590CHOL    R474077  24.473  19.473   9.923
 5590CHOL    R574078  24.297  19.594   9.898
 5590CHOL    C174079  24.096  19.462   9.903
 5590CHOL    C274080  23.896  19.330   9.908
 5591CHOL   ROH74081   2.256  -1.846  -0.946
 5591CHOL    R174082   2.326  -1.742  -0.846
 5591CHOL    R274083   2.550  -1.682  -0.874
 5591CHOL    R374084   2.406  -1.626  -0.735
 5591CHOL    R474085   2.612  -1.591  -0.787
 5591CHOL    R574086   2.476  -1.522  -0.635
 5591CHOL    C174087   2.582  -1.366  -0.486
 5591CHOL    C274088   2.687  -1.211  -0.336
 5592CHOL   ROH74089  27.072  13.448  13.013
 5592CHOL    R174090  26.917  13.419  12.985
 5592CHOL    R274091  26.772  13.590  12.923
 5592CHOL    R374092  26.743  13.385  12.954
 5592CHOL    R474093  26.636  13.564  12.899
 5592CHOL    R574094  26.589  13.356  12.927
 5592CHOL    C174095  26.356  13.312  12.885
 5592CHOL    C274096  26.124  13.268  12.843
 5593CHOL   ROH74097   8.890   6.945  27.498
 5593CHOL    R174098   8.901   6.972  27.341
 5593CHOL    R274099   9.108   6.998  27.238
 5593CHOL    R374100   8.913   7.002  27.164
 5593CHOL    R474101   9.118   7.022  27.100
 5593CHOL    R574102   8.924   7.029  27.007
 5593CHOL    C174103   8.940   7.070  26.771
 5593CHOL    C274104   8.957   7.111  26.535
 5594CHOL   ROH74105   2.681  26.303  11.100
 5594CHOL    R174106   2.746  26.157  11.090
 5594CHOL    R274107   2.921  26.115  10.941
 5594CHOL    R374108   2.820  25.994  11.078
 5594CHOL    R474109   2.979  25.987  10.933
 5594CHOL    R574110   2.886  25.848  11.068
 5594CHOL    C174111   2.984  25.630  11.053
 5594CHOL    C274112   3.082  25.411  11.037
 5595CHOL   ROH74113  18.813  -5.379   8.413
 5595CHOL    R174114  18.734  -5.240   8.426
 5595CHOL    R274115  18.837  -5.038   8.372
 5595CHOL    R374116  18.645  -5.085   8.442
 5595CHOL    R474117  18.768  -4.917   8.383
 5595CHOL    R574118  18.566  -4.946   8.455
 5595CHOL    C174119  18.448  -4.738   8.475
 5595CHOL    C274120  18.330  -4.530   8.495
 5596CHOL   ROH74121  -2.909   1.604  19.192
 5596CHOL    R174122  -2.797   1.680  19.107
 5596CHOL    R274123  -2.602   1.569  19.040
 5596CHOL    R374124  -2.670   1.765  19.011
 5596CHOL    R474125  -2.504   1.636  18.966
 5596CHOL    R574126  -2.558   1.841  18.927
 5596CHOL    C174127  -2.389   1.954  18.799
 5596CHOL    C274128  -2.220   2.068  18.672
 5597CHOL   ROH74129  15.592  16.223  -5.785
 5597CHOL    R174130  15.543  16.166  -5.644
 5597CHOL    R274131  15.607  15.953  -5.572
 5597CHOL    R374132  15.488  16.101  -5.485
 5597CHOL    R474133  15.565  15.903  -5.448
 5597CHOL    R574134  15.439  16.044  -5.344
 5597CHOL    C174135  15.366  15.958  -5.132
 5597CHOL    C274136  15.293  15.872  -4.920
 5598CHOL   ROH74137  18.474  24.160  16.411
 5598CHOL    R174138  18.394  24.036  16.351
 5598CHOL    R274139  18.424  23.969  16.129
 5598CHOL    R374140  18.303  23.895  16.283
 5598CHOL    R474141  18.353  23.860  16.076
 5598CHOL    R574142  18.223  23.771  16.222
 5598CHOL    C174143  18.102  23.584  16.132
 5598CHOL    C274144  17.981  23.398  16.042
 5599CHOL   ROH74145  19.626  11.974  -4.862
 5599CHOL    R174146  19.540  11.958  -4.728
 5599CHOL    R274147  19.397  12.127  -4.657
 5599CHOL    R374148  19.444  11.940  -4.577
 5599CHOL    R474149  19.322  12.114  -4.539
 5599CHOL    R574150  19.358  11.924  -4.443
 5599CHOL    C174151  19.229  11.901  -4.242
 5599CHOL    C274152  19.101  11.877  -4.041
 5600CHOL   ROH74153  26.663  11.672   4.133
 5600CHOL    R174154  26.512  11.660   4.185
 5600CHOL    R274155  26.391  11.463   4.157
 5600CHOL    R374156  26.342  11.647   4.243
 5600CHOL    R474157  26.259  11.453   4.203
 5600CHOL    R574158  26.191  11.636   4.295
 5600CHOL    C174159  25.965  11.618   4.373
 5600CHOL    C274160  25.739  11.600   4.451
 5601CHOL   ROH74161  -6.923   4.622  12.569
 5601CHOL    R174162  -6.772   4.670  12.545
 5601CHOL    R274163  -6.638   4.738  12.723
 5601CHOL    R374164  -6.603   4.724  12.517
 5601CHOL    R474165  -6.506   4.780  12.701
 5601CHOL    R574166  -6.453   4.772  12.493
 5601CHOL    C174167  -6.227   4.845  12.456
 5601CHOL    C274168  -6.001   4.917  12.419
 5602CHOL   ROH74169  24.975  15.418  17.786
 5602CHOL    R174170  24.838  15.372  17.718
 5602CHOL    R274171  24.734  15.504  17.556
 5602CHOL    R374172  24.684  15.320  17.641
 5602CHOL    R474173  24.614  15.464  17.497
 5602CHOL    R574174  24.547  15.273  17.572
 5602CHOL    C174175  24.341  15.204  17.470
 5602CHOL    C274176  24.135  15.135  17.368
 5603CHOL   ROH74177   5.435  20.469  23.657
 5603CHOL    R174178   5.474  20.371  23.536
 5603CHOL    R274179   5.661  20.233  23.549
 5603CHOL    R374180   5.517  20.262  23.401
 5603CHOL    R474181   5.695  20.148  23.444
 5603CHOL    R574182   5.556  20.164  23.280
 5603CHOL    C174183   5.614  20.018  23.099
 5603CHOL    C274184   5.672  19.871  22.918
 5604CHOL   ROH74185  26.864   4.866   7.955
 5604CHOL    R174186  26.711   4.911   7.972
 5604CHOL    R274187  26.584   4.976   7.788
 5604CHOL    R374188  26.540   4.961   7.991
 5604CHOL    R474189  26.451   5.015   7.803
 5604CHOL    R574190  26.387   5.006   8.008
 5604CHOL    C174191  26.158   5.073   8.034
 5604CHOL    C274192  25.929   5.140   8.060
 5605CHOL   ROH74193  15.411   0.798  24.232
 5605CHOL    R174194  15.363   0.883  24.106
 5605CHOL    R274195  15.446   0.839  23.892
 5605CHOL    R374196  15.308   0.979  23.963
 5605CHOL    R474197  15.403   0.914  23.782
 5605CHOL    R574198  15.259   1.065  23.837
 5605CHOL    C174199  15.187   1.192  23.647
 5605CHOL    C274200  15.114   1.320  23.458
 5606CHOL   ROH74201  -6.602   3.154  10.588
 5606CHOL    R174202  -6.454   3.214  10.582
 5606CHOL    R274203  -6.267   3.075  10.594
 5606CHOL    R374204  -6.288   3.282  10.576
 5606CHOL    R474205  -6.138   3.128  10.589
 5606CHOL    R574206  -6.140   3.342  10.570
 5606CHOL    C174207  -5.918   3.433  10.561
 5606CHOL    C274208  -5.696   3.523  10.553
 5607CHOL   ROH74209  -7.107   6.606   5.399
 5607CHOL    R174210  -6.955   6.635   5.441
 5607CHOL    R274211  -6.899   6.683   5.662
 5607CHOL    R374212  -6.785   6.667   5.488
 5607CHOL    R474213  -6.766   6.708   5.699
 5607CHOL    R574214  -6.633   6.696   5.530
 5607CHOL    C174215  -6.405   6.739   5.593
 5607CHOL    C274216  -6.178   6.782   5.656
 5608CHOL   ROH74217   5.148  21.283  -3.107
 5608CHOL    R174218   5.186  21.179  -2.992
 5608CHOL    R274219   5.390  21.066  -2.996
 5608CHOL    R374220   5.230  21.061  -2.863
 5608CHOL    R474221   5.424  20.975  -2.895
 5608CHOL    R574222   5.268  20.957  -2.747
 5608CHOL    C174223   5.326  20.801  -2.575
 5608CHOL    C274224   5.383  20.644  -2.402
 5609CHOL   ROH74225  12.822  22.827  21.929
 5609CHOL    R174226  12.796  22.710  21.823
 5609CHOL    R274227  12.957  22.545  21.785
 5609CHOL    R374228  12.768  22.579  21.703
 5609CHOL    R474229  12.934  22.443  21.692
 5609CHOL    R574230  12.742  22.462  21.597
 5609CHOL    C174231  12.704  22.287  21.438
 5609CHOL    C274232  12.665  22.112  21.278
 5610CHOL   ROH74233   4.833  -2.320  21.863
 5610CHOL    R174234   4.878  -2.209  21.757
 5610CHOL    R274235   4.944  -1.996  21.828
 5610CHOL    R374236   4.928  -2.083  21.638
 5610CHOL    R474237   4.983  -1.899  21.735
 5610CHOL    R574238   4.973  -1.972  21.533
 5610CHOL    C174239   5.040  -1.805  21.374
 5610CHOL    C274240   5.107  -1.638  21.215
 5611CHOL   ROH74241  25.544  17.539  13.923
 5611CHOL    R174242  25.404  17.469  13.890
 5611CHOL    R274243  25.259  17.558  13.731
 5611CHOL    R374244  25.247  17.389  13.853
 5611CHOL    R474245  25.137  17.497  13.702
 5611CHOL    R574246  25.107  17.319  13.820
 5611CHOL    C174247  24.897  17.213  13.771
 5611CHOL    C274248  24.687  17.108  13.721
 5612CHOL   ROH74249  -4.008  -0.952  12.674
 5612CHOL    R174250  -3.884  -0.855  12.649
 5612CHOL    R274251  -3.712  -0.837  12.805
 5612CHOL    R374252  -3.744  -0.745  12.621
 5612CHOL    R474253  -3.603  -0.751  12.783
 5612CHOL    R574254  -3.620  -0.647  12.595
 5612CHOL    C174255  -3.433  -0.501  12.558
 5612CHOL    C274256  -3.247  -0.355  12.520
 5613CHOL   ROH74257   2.249   4.969  -5.470
 5613CHOL    R174258   2.317   5.014  -5.332
 5613CHOL    R274259   2.506   4.903  -5.250
 5613CHOL    R374260   2.394   5.064  -5.178
 5613CHOL    R474261   2.565   4.943  -5.130
 5613CHOL    R574262   2.463   5.109  -5.040
 5613CHOL    C174263   2.565   5.176  -4.834
 5613CHOL    C274264   2.667   5.243  -4.627
 5614CHOL   ROH74265  -0.448  23.536   4.819
 5614CHOL    R174266  -0.357  23.413   4.865
 5614CHOL    R274267  -0.126  23.437   4.891
 5614CHOL    R374268  -0.254  23.275   4.918
 5614CHOL    R474269  -0.046  23.330   4.931
 5614CHOL    R574270  -0.163  23.152   4.964
 5614CHOL    C174271  -0.026  22.967   5.034
 5614CHOL    C274272   0.111  22.782   5.103
 5615CHOL   ROH74273  18.878  -4.017  16.384
 5615CHOL    R174274  18.794  -3.892  16.330
 5615CHOL    R274275  18.748  -3.867  16.103
 5615CHOL    R374276  18.701  -3.750  16.269
 5615CHOL    R474277  18.675  -3.758  16.056
 5615CHOL    R574278  18.617  -3.625  16.215
 5615CHOL    C174279  18.492  -3.437  16.135
 5615CHOL    C274280  18.366  -3.249  16.054
 5616CHOL   ROH74281  26.226   8.376   2.963
 5616CHOL    R174282  26.080   8.389   3.026
 5616CHOL    R274283  25.965   8.592   3.021
 5616CHOL    R374284  25.915   8.405   3.098
 5616CHOL    R474285  25.837   8.604   3.077
 5616CHOL    R574286  25.769   8.418   3.161
 5616CHOL    C174287  25.549   8.438   3.256
 5616CHOL    C274288  25.329   8.458   3.351
 5617CHOL   ROH74289   7.260  15.472  26.715
 5617CHOL    R174290   7.281  15.430  26.562
 5617CHOL    R274291   7.430  15.261  26.504
 5617CHOL    R374292   7.305  15.384  26.390
 5617CHOL    R474293   7.449  15.224  26.370
 5617CHOL    R574294   7.326  15.342  26.237
 5617CHOL    C174295   7.358  15.280  26.008
 5617CHOL    C274296   7.390  15.217  25.778
 5618CHOL   ROH74297  -4.780   2.231  16.595
 5618CHOL    R174298  -4.648   2.303  16.540
 5618CHOL    R274299  -4.471   2.178  16.453
 5618CHOL    R374300  -4.500   2.383  16.477
 5618CHOL    R474301  -4.356   2.241  16.404
 5618CHOL    R574302  -4.368   2.455  16.422
 5618CHOL    C174303  -4.170   2.563  16.339
 5618CHOL    C274304  -3.972   2.670  16.256
 5619CHOL   ROH74305  25.352  18.161  13.354
 5619CHOL    R174306  25.213  18.087  13.324
 5619CHOL    R274307  25.061  18.176  13.171
 5619CHOL    R374308  25.057  18.004  13.290
 5619CHOL    R474309  24.940  18.111  13.144
 5619CHOL    R574310  24.919  17.930  13.259
 5619CHOL    C174311  24.710  17.819  13.214
 5619CHOL    C274312  24.502  17.708  13.169
 5620CHOL   ROH74313  -0.941   8.329  -4.150
 5620CHOL    R174314  -0.844   8.340  -4.023
 5620CHOL    R274315  -0.915   8.443  -3.826
 5620CHOL    R374316  -0.735   8.352  -3.881
 5620CHOL    R474317  -0.830   8.453  -3.716
 5620CHOL    R574318  -0.638   8.364  -3.754
 5620CHOL    C174319  -0.493   8.380  -3.564
 5620CHOL    C274320  -0.347   8.397  -3.374
 5621CHOL   ROH74321  25.504  18.285   8.097
 5621CHOL    R174322  25.363  18.211   8.116
 5621CHOL    R274323  25.275  18.076   7.947
 5621CHOL    R374324  25.205  18.128   8.137
 5621CHOL    R474325  25.152  18.011   7.964
 5621CHOL    R574326  25.065  18.054   8.156
 5621CHOL    C174327  24.854  17.943   8.184
 5621CHOL    C274328  24.643  17.832   8.212
 5622CHOL   ROH74329  -5.622   9.632  18.823
 5622CHOL    R174330  -5.484   9.635  18.742
 5622CHOL    R274331  -5.340   9.452  18.744
 5622CHOL    R374332  -5.329   9.639  18.651
 5622CHOL    R474333  -5.219   9.455  18.673
 5622CHOL    R574334  -5.190   9.642  18.571
 5622CHOL    C174335  -4.983   9.647  18.449
 5622CHOL    C274336  -4.776   9.652  18.328
 5623CHOL   ROH74337  -5.308   9.247   0.547
 5623CHOL    R174338  -5.172   9.254   0.631
 5623CHOL    R274339  -5.092   9.458   0.712
 5623CHOL    R374340  -5.020   9.263   0.727
 5623CHOL    R474341  -4.973   9.465   0.786
 5623CHOL    R574342  -4.884   9.270   0.811
 5623CHOL    C174343  -4.680   9.281   0.938
 5623CHOL    C274344  -4.477   9.292   1.064
 5624CHOL   ROH74345   6.206  18.992  -5.088
 5624CHOL    R174346   6.239  18.913  -4.953
 5624CHOL    R274347   6.449  18.819  -4.917
 5624CHOL    R374348   6.276  18.824  -4.801
 5624CHOL    R474349   6.478  18.750  -4.799
 5624CHOL    R574350   6.309  18.746  -4.666
 5624CHOL    C174351   6.358  18.627  -4.463
 5624CHOL    C274352   6.408  18.509  -4.260
 5625CHOL   ROH74353  11.372  27.531  12.718
 5625CHOL    R174354  11.358  27.374  12.693
 5625CHOL    R274355  11.520  27.256  12.573
 5625CHOL    R374356  11.342  27.196  12.664
 5625CHOL    R474357  11.508  27.119  12.551
 5625CHOL    R574358  11.328  27.039  12.639
 5625CHOL    C174359  11.308  26.803  12.601
 5625CHOL    C274360  11.287  26.567  12.563
 5626CHOL   ROH74361  21.337  -3.038   5.715
 5626CHOL    R174362  21.234  -2.921   5.753
 5626CHOL    R274363  21.262  -2.705   5.669
 5626CHOL    R374364  21.119  -2.790   5.795
 5626CHOL    R474365  21.172  -2.603   5.701
 5626CHOL    R574366  21.016  -2.673   5.832
 5626CHOL    C174367  20.862  -2.498   5.889
 5626CHOL    C274368  20.708  -2.323   5.945
 5627CHOL   ROH74369  19.077  -5.117   7.556
 5627CHOL    R174370  18.996  -4.981   7.577
 5627CHOL    R274371  19.019  -4.803   7.428
 5627CHOL    R374372  18.906  -4.827   7.602
 5627CHOL    R474373  18.949  -4.683   7.447
 5627CHOL    R574374  18.825  -4.690   7.623
 5627CHOL    C174375  18.704  -4.486   7.655
 5627CHOL    C274376  18.583  -4.281   7.687
 5628CHOL   ROH74377  25.923  17.640   9.101
 5628CHOL    R174378  25.778  17.573   9.111
 5628CHOL    R274379  25.660  17.512   8.919
 5628CHOL    R374380  25.615  17.497   9.123
 5628CHOL    R474381  25.534  17.453   8.928
 5628CHOL    R574382  25.470  17.429   9.133
 5628CHOL    C174383  25.253  17.328   9.148
 5628CHOL    C274384  25.036  17.227   9.164
 5629CHOL   ROH74385  11.266  -3.299  21.663
 5629CHOL    R174386  11.248  -3.181  21.556
 5629CHOL    R274387  11.290  -3.217  21.330
 5629CHOL    R374388  11.228  -3.048  21.437
 5629CHOL    R474389  11.275  -3.114  21.237
 5629CHOL    R574390  11.211  -2.930  21.330
 5629CHOL    C174391  11.184  -2.754  21.170
 5629CHOL    C274392  11.157  -2.577  21.010
 5630CHOL   ROH74393  18.020  22.597  19.542
 5630CHOL    R174394  17.945  22.482  19.460
 5630CHOL    R274395  17.953  22.260  19.531
 5630CHOL    R374396  17.860  22.353  19.368
 5630CHOL    R474397  17.887  22.159  19.459
 5630CHOL    R574398  17.784  22.237  19.287
 5630CHOL    C174399  17.671  22.065  19.164
 5630CHOL    C274400  17.558  21.892  19.041
 5631CHOL   ROH74401  26.973  10.579  14.996
 5631CHOL    R174402  26.819  10.569  14.954
 5631CHOL    R274403  26.700  10.758  14.887
 5631CHOL    R374404  26.646  10.557  14.907
 5631CHOL    R474405  26.565  10.749  14.850
 5631CHOL    R574406  26.492  10.547  14.864
 5631CHOL    C174407  26.260  10.532  14.801
 5631CHOL    C274408  26.029  10.516  14.738
 5632CHOL   ROH74409  -0.197  -0.450  20.358
 5632CHOL    R174410  -0.106  -0.359  20.263
 5632CHOL    R274411   0.124  -0.343  20.296
 5632CHOL    R374412  -0.004  -0.257  20.155
 5632CHOL    R474413   0.203  -0.264  20.212
 5632CHOL    R574414   0.086  -0.166  20.060
 5632CHOL    C174415   0.223  -0.030  19.917
 5632CHOL    C274416   0.359   0.107  19.774
 5633CHOL   ROH74417  14.867  -1.528  22.562
 5633CHOL    R174418  14.825  -1.423  22.449
 5633CHOL    R274419  14.822  -1.483  22.224
 5633CHOL    R374420  14.778  -1.304  22.322
 5633CHOL    R474421  14.785  -1.391  22.125
 5633CHOL    R574422  14.735  -1.199  22.209
 5633CHOL    C174423  14.672  -1.041  22.040
 5633CHOL    C274424  14.609  -0.883  21.871
 5634CHOL   ROH74425  12.967  23.768  -1.054
 5634CHOL    R174426  12.943  23.644  -0.956
 5634CHOL    R274427  13.071  23.449  -0.975
 5634CHOL    R374428  12.916  23.503  -0.846
 5634CHOL    R474429  13.049  23.340  -0.890
 5634CHOL    R574430  12.891  23.379  -0.748
 5634CHOL    C174431  12.855  23.192  -0.602
 5634CHOL    C274432  12.819  23.006  -0.455
 5635CHOL   ROH74433  -6.673   6.454  15.726
 5635CHOL    R174434  -6.524   6.486  15.678
 5635CHOL    R274435  -6.351   6.333  15.714
 5635CHOL    R374436  -6.356   6.521  15.623
 5635CHOL    R474437  -6.220   6.361  15.672
 5635CHOL    R574438  -6.207   6.553  15.575
 5635CHOL    C174439  -5.983   6.600  15.503
 5635CHOL    C274440  -5.759   6.647  15.430
 5636CHOL   ROH74441  -7.931  10.902  11.562
 5636CHOL    R174442  -7.772  10.895  11.546
 5636CHOL    R274443  -7.636  11.065  11.631
 5636CHOL    R374444  -7.593  10.887  11.529
 5636CHOL    R474445  -7.497  11.059  11.617
 5636CHOL    R574446  -7.434  10.880  11.513
 5636CHOL    C174447  -7.195  10.870  11.489
 5636CHOL    C274448  -6.957  10.860  11.466
 5637CHOL   ROH74449  -7.321  14.693   8.542
 5637CHOL    R174450  -7.167  14.652   8.557
 5637CHOL    R274451  -7.106  14.441   8.635
 5637CHOL    R374452  -6.994  14.605   8.574
 5637CHOL    R474453  -6.972  14.404   8.648
 5637CHOL    R574454  -6.840  14.564   8.589
 5637CHOL    C174455  -6.609  14.502   8.611
 5637CHOL    C274456  -6.378  14.440   8.633
 5638CHOL   ROH74457   1.146  25.045   6.298
 5638CHOL    R174458   1.227  24.911   6.329
 5638CHOL    R274459   1.460  24.912   6.348
 5638CHOL    R374460   1.318  24.759   6.364
 5638CHOL    R474461   1.531  24.795   6.375
 5638CHOL    R574462   1.399  24.625   6.395
 5638CHOL    C174463   1.521  24.423   6.442
 5638CHOL    C274464   1.643  24.222   6.488
 5639CHOL   ROH74465   3.343  -2.003  21.467
 5639CHOL    R174466   3.401  -1.895  21.364
 5639CHOL    R274467   3.503  -1.699  21.440
 5639CHOL    R374468   3.466  -1.774  21.248
 5639CHOL    R474469   3.553  -1.605  21.350
 5639CHOL    R574470   3.523  -1.666  21.145
 5639CHOL    C174471   3.610  -1.504  20.991
 5639CHOL    C274472   3.697  -1.342  20.837
 5640CHOL   ROH74473  22.379  11.676  -2.650
 5640CHOL    R174474  22.263  11.662  -2.541
 5640CHOL    R274475  22.160  11.457  -2.500
 5640CHOL    R374476  22.133  11.647  -2.417
 5640CHOL    R474477  22.058  11.445  -2.405
 5640CHOL    R574478  22.017  11.634  -2.308
 5640CHOL    C174479  21.843  11.613  -2.144
 5640CHOL    C274480  21.669  11.593  -1.980
 5641CHOL   ROH74481  27.075  10.872   5.366
 5641CHOL    R174482  26.920  10.867   5.406
 5641CHOL    R274483  26.793  10.674   5.371
 5641CHOL    R374484  26.746  10.861   5.451
 5641CHOL    R474485  26.658  10.670   5.406
 5641CHOL    R574486  26.591  10.856   5.490
 5641CHOL    C174487  26.359  10.849   5.550
 5641CHOL    C274488  26.126  10.842   5.610
 5642CHOL   ROH74489   7.018  27.612   9.180
 5642CHOL    R174490   7.040  27.454   9.188
 5642CHOL    R274491   7.034  27.342   9.393
 5642CHOL    R374492   7.066  27.276   9.197
 5642CHOL    R474493   7.054  27.203   9.400
 5642CHOL    R574494   7.088  27.117   9.205
 5642CHOL    C174495   7.122  26.880   9.217
 5642CHOL    C274496   7.155  26.643   9.229
 5643CHOL   ROH74497   5.218  20.193  23.805
 5643CHOL    R174498   5.258  20.097  23.683
 5643CHOL    R274499   5.449  19.963  23.694
 5643CHOL    R374500   5.304  19.990  23.546
 5643CHOL    R474501   5.484  19.880  23.587
 5643CHOL    R574502   5.344  19.894  23.424
 5643CHOL    C174503   5.405  19.751  23.241
 5643CHOL    C274504   5.466  19.608  23.058
 5644CHOL   ROH74505  21.493  21.063  17.562
 5644CHOL    R174506  21.389  20.960  17.498
 5644CHOL    R274507  21.269  21.015  17.306
 5644CHOL    R374508  21.272  20.844  17.425
 5644CHOL    R474509  21.178  20.925  17.249
 5644CHOL    R574510  21.168  20.741  17.360
 5644CHOL    C174511  21.012  20.586  17.264
 5644CHOL    C274512  20.856  20.432  17.167
 5645CHOL   ROH74513   0.025  13.555  -4.476
 5645CHOL    R174514   0.114  13.526  -4.346
 5645CHOL    R274515   0.017  13.514  -4.134
 5645CHOL    R374516   0.214  13.494  -4.200
 5645CHOL    R474517   0.095  13.489  -4.021
 5645CHOL    R574518   0.303  13.465  -4.070
 5645CHOL    C174519   0.436  13.423  -3.875
 5645CHOL    C274520   0.570  13.380  -3.680
 5646CHOL   ROH74521   0.301  24.979  11.767
 5646CHOL    R174522   0.385  24.844  11.753
 5646CHOL    R274523   0.608  24.848  11.685
 5646CHOL    R374524   0.480  24.692  11.737
 5646CHOL    R474525   0.682  24.730  11.672
 5646CHOL    R574526   0.564  24.557  11.723
 5646CHOL    C174527   0.691  24.354  11.702
 5646CHOL    C274528   0.817  24.151  11.681
 5647CHOL   ROH74529   5.530   8.212  27.157
 5647CHOL    R174530   5.566   8.226  27.002
 5647CHOL    R274531   5.784   8.276  26.934
 5647CHOL    R374532   5.607   8.243  26.827
 5647CHOL    R474533   5.816   8.288  26.798
 5647CHOL    R574534   5.644   8.257  26.672
 5647CHOL    C174535   5.698   8.279  26.439
 5647CHOL    C274536   5.752   8.300  26.206
 5648CHOL   ROH74537   5.871   7.092  -7.228
 5648CHOL    R174538   5.904   7.118  -7.074
 5648CHOL    R274539   5.810   6.984  -6.907
 5648CHOL    R374540   5.941   7.147  -6.900
 5648CHOL    R474541   5.839   7.007  -6.772
 5648CHOL    R574542   5.974   7.173  -6.746
 5648CHOL    C174543   6.024   7.211  -6.514
 5648CHOL    C274544   6.074   7.250  -6.282
 5649CHOL   ROH74545  -1.042  -2.527   3.198
 5649CHOL    R174546  -0.945  -2.415   3.258
 5649CHOL    R274547  -0.778  -2.470   3.412
 5649CHOL    R374548  -0.835  -2.289   3.324
 5649CHOL    R474549  -0.693  -2.372   3.464
 5649CHOL    R574550  -0.737  -2.177   3.384
 5649CHOL    C174551  -0.591  -2.009   3.473
 5649CHOL    C274552  -0.445  -1.841   3.563
 5650CHOL   ROH74553  10.107  25.766  18.340
 5650CHOL    R174554  10.104  25.624  18.266
 5650CHOL    R274555  10.174  25.602  18.045
 5650CHOL    R374556  10.101  25.464  18.184
 5650CHOL    R474557  10.171  25.478  17.980
 5650CHOL    R574558  10.098  25.322  18.110
 5650CHOL    C174559  10.094  25.109  18.000
 5650CHOL    C274560  10.089  24.896  17.889
 5651CHOL   ROH74561  18.595  -5.093   6.122
 5651CHOL    R174562  18.519  -4.957   6.158
 5651CHOL    R274563  18.638  -4.766   6.221
 5651CHOL    R374564  18.434  -4.803   6.198
 5651CHOL    R474565  18.572  -4.647   6.252
 5651CHOL    R574566  18.358  -4.667   6.234
 5651CHOL    C174567  18.244  -4.463   6.288
 5651CHOL    C274568  18.130  -4.258   6.342
 5652CHOL   ROH74569  17.381  24.711   3.200
 5652CHOL    R174570  17.317  24.578   3.262
 5652CHOL    R274571  17.443  24.433   3.393
 5652CHOL    R374572  17.244  24.429   3.331
 5652CHOL    R474573  17.387  24.317   3.447
 5652CHOL    R574574  17.179  24.296   3.392
 5652CHOL    C174575  17.083  24.097   3.485
 5652CHOL    C274576  16.986  23.898   3.577
 5653CHOL   ROH74577  25.955  17.606  11.250
 5653CHOL    R174578  25.811  17.538  11.239
 5653CHOL    R274579  25.782  17.310  11.280
 5653CHOL    R374580  25.648  17.461  11.227
 5653CHOL    R474581  25.656  17.250  11.270
 5653CHOL    R574582  25.504  17.393  11.216
 5653CHOL    C174583  25.288  17.290  11.200
 5653CHOL    C274584  25.071  17.188  11.183
 5654CHOL   ROH74585  -5.713   4.325  16.697
 5654CHOL    R174586  -5.573   4.380  16.642
 5654CHOL    R274587  -5.509   4.601  16.676
 5654CHOL    R374588  -5.416   4.441  16.580
 5654CHOL    R474589  -5.386   4.649  16.628
 5654CHOL    R574590  -5.276   4.496  16.525
 5654CHOL    C174591  -5.066   4.577  16.442
 5654CHOL    C274592  -4.856   4.659  16.360
 5655CHOL   ROH74593  -4.094  12.599  20.724
 5655CHOL    R174594  -3.969  12.580  20.627
 5655CHOL    R274595  -3.756  12.538  20.712
 5655CHOL    R374596  -3.827  12.558  20.517
 5655CHOL    R474597  -3.646  12.521  20.627
 5655CHOL    R574598  -3.702  12.538  20.420
 5655CHOL    C174599  -3.514  12.509  20.274
 5655CHOL    C274600  -3.326  12.480  20.128
 5656CHOL   ROH74601   4.223  -4.368   0.866
 5656CHOL    R174602   4.272  -4.240   0.948
 5656CHOL    R274603   4.437  -4.099   0.864
 5656CHOL    R374604   4.326  -4.095   1.040
 5656CHOL    R474605   4.480  -3.986   0.935
 5656CHOL    R574606   4.375  -3.966   1.122
 5656CHOL    C174607   4.448  -3.774   1.246
 5656CHOL    C274608   4.521  -3.581   1.369
 5657CHOL   ROH74609  18.115  23.862   2.325
 5657CHOL    R174610  18.042  23.739   2.397
 5657CHOL    R274611  17.867  23.626   2.292
 5657CHOL    R374612  17.959  23.601   2.477
 5657CHOL    R474613  17.803  23.518   2.354
 5657CHOL    R574614  17.886  23.478   2.549
 5657CHOL    C174615  17.776  23.294   2.657
 5657CHOL    C274616  17.666  23.109   2.764
 5658CHOL   ROH74617  13.586  17.816  25.481
 5658CHOL    R174618  13.554  17.748  25.340
 5658CHOL    R274619  13.692  17.580  25.254
 5658CHOL    R374620  13.519  17.671  25.181
 5658CHOL    R474621  13.664  17.521  25.130
 5658CHOL    R574622  13.487  17.603  25.039
 5658CHOL    C174623  13.439  17.501  24.828
 5658CHOL    C274624  13.392  17.399  24.616
 5659CHOL   ROH74625  27.410  10.945   6.976
 5659CHOL    R174626  27.252  10.940   7.001
 5659CHOL    R274627  27.120  11.131   6.975
 5659CHOL    R374628  27.074  10.934   7.030
 5659CHOL    R474629  26.982  11.126   6.997
 5659CHOL    R574630  26.916  10.929   7.055
 5659CHOL    C174631  26.680  10.922   7.093
 5659CHOL    C274632  26.443  10.915   7.131
 5660CHOL   ROH74633  18.746   1.082  22.586
 5660CHOL    R174634  18.665   1.162  22.474
 5660CHOL    R274635  18.775   1.273  22.301
 5660CHOL    R374636  18.573   1.251  22.347
 5660CHOL    R474637  18.704   1.342  22.203
 5660CHOL    R574638  18.491   1.331  22.235
 5660CHOL    C174639  18.369   1.451  22.067
 5660CHOL    C274640  18.247   1.570  21.898
 5661CHOL   ROH74641  22.104  13.185  -2.659
 5661CHOL    R174642  21.992  13.158  -2.547
 5661CHOL    R274643  21.861  12.966  -2.553
 5661CHOL    R374644  21.867  13.128  -2.422
 5661CHOL    R474645  21.764  12.942  -2.455
 5661CHOL    R574646  21.755  13.102  -2.311
 5661CHOL    C174647  21.588  13.061  -2.143
 5661CHOL    C274648  21.421  13.021  -1.976
 5662CHOL   ROH74649  -0.251  15.596  23.447
 5662CHOL    R174650  -0.159  15.546  23.326
 5662CHOL    R274651   0.073  15.538  23.346
 5662CHOL    R374652  -0.057  15.489  23.189
 5662CHOL    R474653   0.153  15.494  23.240
 5662CHOL    R574654   0.035  15.439  23.068
 5662CHOL    C174655   0.172  15.364  22.886
 5662CHOL    C274656   0.310  15.288  22.704
 5663CHOL   ROH74657   8.273  18.018  25.849
 5663CHOL    R174658   8.287  17.947  25.706
 5663CHOL    R274659   8.486  17.962  25.585
 5663CHOL    R374660   8.304  17.867  25.546
 5663CHOL    R474661   8.498  17.900  25.460
 5663CHOL    R574662   8.318  17.796  25.404
 5663CHOL    C174663   8.340  17.689  25.190
 5663CHOL    C274664   8.361  17.583  24.976
 5664CHOL   ROH74665   7.294  26.883   4.659
 5664CHOL    R174666   7.317  26.732   4.705
 5664CHOL    R274667   7.512  26.617   4.650
 5664CHOL    R374668   7.342  26.561   4.758
 5664CHOL    R474669   7.532  26.485   4.690
 5664CHOL    R574670   7.365  26.410   4.804
 5664CHOL    C174671   7.399  26.183   4.874
 5664CHOL    C274672   7.433  25.956   4.943
 5665CHOL   ROH74673  15.967  19.842  -3.677
 5665CHOL    R174674  15.912  19.757  -3.553
 5665CHOL    R274675  15.870  19.528  -3.574
 5665CHOL    R374676  15.851  19.661  -3.413
 5665CHOL    R474677  15.822  19.454  -3.465
 5665CHOL    R574678  15.796  19.576  -3.289
 5665CHOL    C174679  15.715  19.448  -3.103
 5665CHOL    C274680  15.633  19.320  -2.917
 5666CHOL   ROH74681   7.536   2.025  -5.905
 5666CHOL    R174682   7.553   2.094  -5.761
 5666CHOL    R274683   7.701   2.007  -5.603
 5666CHOL    R374684   7.571   2.171  -5.600
 5666CHOL    R474685   7.715   2.067  -5.478
 5666CHOL    R574686   7.588   2.239  -5.456
 5666CHOL    C174687   7.613   2.342  -5.240
 5666CHOL    C274688   7.638   2.445  -5.025
 5667CHOL   ROH74689  24.504  17.593   3.059
 5667CHOL    R174690  24.373  17.524   3.119
 5667CHOL    R274691  24.161  17.584   3.043
 5667CHOL    R374692  24.225  17.446   3.186
 5667CHOL    R474693  24.046  17.523   3.095
 5667CHOL    R574694  24.094  17.377   3.246
 5667CHOL    C174695  23.896  17.273   3.335
 5667CHOL    C274696  23.699  17.170   3.425
 5668CHOL   ROH74697  14.365   5.441  -6.743
 5668CHOL    R174698  14.321   5.482  -6.595
 5668CHOL    R274699  14.237   5.695  -6.549
 5668CHOL    R374700  14.271   5.528  -6.428
 5668CHOL    R474701  14.198   5.731  -6.419
 5668CHOL    R574702  14.227   5.569  -6.280
 5668CHOL    C174703  14.161   5.630  -6.057
 5668CHOL    C274704  14.095   5.692  -5.835
 5669CHOL   ROH74705  -4.016  12.229  20.891
 5669CHOL    R174706  -3.891  12.212  20.793
 5669CHOL    R274707  -3.678  12.166  20.876
 5669CHOL    R374708  -3.750  12.194  20.682
 5669CHOL    R474709  -3.568  12.152  20.790
 5669CHOL    R574710  -3.625  12.177  20.584
 5669CHOL    C174711  -3.437  12.152  20.437
 5669CHOL    C274712  -3.249  12.127  20.289
 5670CHOL   ROH74713   3.111  17.712  24.592
 5670CHOL    R174714   3.176  17.642  24.464
 5670CHOL    R274715   3.315  17.456  24.485
 5670CHOL    R374716   3.248  17.563  24.319
 5670CHOL    R474717   3.372  17.395  24.373
 5670CHOL    R574718   3.313  17.493  24.190
 5670CHOL    C174719   3.410  17.389  23.998
 5670CHOL    C274720   3.507  17.284  23.805
 5671CHOL   ROH74721  11.046  14.594  27.110
 5671CHOL    R174722  11.034  14.549  26.957
 5671CHOL    R274723  11.184  14.628  26.796
 5671CHOL    R374724  11.019  14.499  26.785
 5671CHOL    R474725  11.173  14.589  26.662
 5671CHOL    R574726  11.007  14.455  26.632
 5671CHOL    C174727  10.988  14.388  26.402
 5671CHOL    C274728  10.970  14.321  26.172
 5672CHOL   ROH74729  10.716   4.246  26.807
 5672CHOL    R174730  10.713   4.297  26.655
 5672CHOL    R274731  10.830   4.182  26.489
 5672CHOL    R374732  10.711   4.353  26.485
 5672CHOL    R474733  10.828   4.227  26.356
 5672CHOL    R574734  10.708   4.404  26.333
 5672CHOL    C174735  10.704   4.480  26.105
 5672CHOL    C274736  10.700   4.556  25.878
 5673CHOL   ROH74737  10.532  22.717  -2.518
 5673CHOL    R174738  10.528  22.603  -2.405
 5673CHOL    R274739  10.701  22.580  -2.251
 5673CHOL    R374740  10.522  22.476  -2.279
 5673CHOL    R474741  10.697  22.481  -2.153
 5673CHOL    R574742  10.518  22.362  -2.166
 5673CHOL    C174743  10.511  22.192  -1.997
 5673CHOL    C274744  10.505  22.021  -1.828
 5674CHOL   ROH74745  13.413  26.581   4.616
 5674CHOL    R174746  13.379  26.433   4.665
 5674CHOL    R274747  13.536  26.306   4.783
 5674CHOL    R374748  13.341  26.265   4.720
 5674CHOL    R474749  13.506  26.176   4.826
 5674CHOL    R574750  13.306  26.117   4.769
 5674CHOL    C174751  13.255  25.894   4.843
 5674CHOL    C274752  13.204  25.672   4.917
 5675CHOL   ROH74753  11.994  11.138  -7.798
 5675CHOL    R174754  11.975  11.125  -7.640
 5675CHOL    R274755  12.127  11.004  -7.510
 5675CHOL    R374756  11.954  11.110  -7.461
 5675CHOL    R474757  12.110  10.993  -7.371
 5675CHOL    R574758  11.935  11.097  -7.303
 5675CHOL    C174759  11.907  11.078  -7.065
 5675CHOL    C274760  11.878  11.059  -6.828
 5676CHOL   ROH74761  26.183  15.846  14.199
 5676CHOL    R174762  26.036  15.797  14.159
 5676CHOL    R274763  25.974  15.775  13.936
 5676CHOL    R374764  25.871  15.743  14.114
 5676CHOL    R474765  25.845  15.732  13.901
 5676CHOL    R574766  25.724  15.694  14.074
 5676CHOL    C174767  25.503  15.621  14.015
 5676CHOL    C274768  25.282  15.548  13.955
 5677CHOL   ROH74769  -0.897  -1.010  19.035
 5677CHOL    R174770  -0.801  -0.913  18.952
 5677CHOL    R274771  -0.574  -0.897  19.004
 5677CHOL    R374772  -0.692  -0.803  18.860
 5677CHOL    R474773  -0.489  -0.811  18.932
 5677CHOL    R574774  -0.596  -0.706  18.777
 5677CHOL    C174775  -0.451  -0.560  18.653
 5677CHOL    C274776  -0.306  -0.414  18.529
 5678CHOL   ROH74777  -6.757   9.556   3.512
 5678CHOL    R174778  -6.607   9.559   3.568
 5678CHOL    R274779  -6.532   9.398   3.719
 5678CHOL    R374780  -6.438   9.562   3.630
 5678CHOL    R474781  -6.401   9.401   3.768
 5678CHOL    R574782  -6.288   9.565   3.686
 5678CHOL    C174783  -6.063   9.569   3.769
 5678CHOL    C274784  -5.838   9.574   3.852
 5679CHOL   ROH74785  -3.201  14.448  -1.490
 5679CHOL    R174786  -3.088  14.409  -1.384
 5679CHOL    R274787  -3.110  14.220  -1.249
 5679CHOL    R374788  -2.960  14.365  -1.265
 5679CHOL    R474789  -3.011  14.186  -1.156
 5679CHOL    R574790  -2.847  14.325  -1.160
 5679CHOL    C174791  -2.676  14.267  -1.001
 5679CHOL    C274792  -2.506  14.208  -0.842
 5680CHOL   ROH74793   9.920  27.528   6.650
 5680CHOL    R174794   9.918  27.371   6.679
 5680CHOL    R274795  10.082  27.271   6.812
 5680CHOL    R374796   9.916  27.194   6.713
 5680CHOL    R474797  10.081  27.134   6.837
 5680CHOL    R574798   9.914  27.036   6.742
 5680CHOL    C174799   9.911  26.801   6.786
 5680CHOL    C274800   9.908  26.565   6.830
 5681CHOL   ROH74801  -7.035   8.167  15.432
 5681CHOL    R174802  -6.883   8.183  15.384
 5681CHOL    R274803  -6.731   8.008  15.407
 5681CHOL    R374804  -6.713   8.201  15.330
 5681CHOL    R474805  -6.598   8.022  15.364
 5681CHOL    R574806  -6.561   8.217  15.282
 5681CHOL    C174807  -6.333   8.241  15.209
 5681CHOL    C274808  -6.106   8.265  15.137
 5682CHOL   ROH74809  23.709   1.451  17.416
 5682CHOL    R174810  23.584   1.527  17.351
 5682CHOL    R274811  23.615   1.692  17.189
 5682CHOL    R374812  23.443   1.611  17.277
 5682CHOL    R474813  23.505   1.758  17.132
 5682CHOL    R574814  23.319   1.687  17.212
 5682CHOL    C174815  23.131   1.800  17.114
 5682CHOL    C274816  22.944   1.914  17.016
 5683CHOL   ROH74817  -2.818  10.085  22.468
 5683CHOL    R174818  -2.703  10.083  22.357
 5683CHOL    R274819  -2.550  10.258  22.341
 5683CHOL    R374820  -2.573  10.081  22.233
 5683CHOL    R474821  -2.449  10.257  22.244
 5683CHOL    R574822  -2.457  10.079  22.122
 5683CHOL    C174823  -2.284  10.076  21.956
 5683CHOL    C274824  -2.111  10.073  21.790
 5684CHOL   ROH74825   6.374  -2.874  -1.929
 5684CHOL    R174826   6.405  -2.759  -1.822
 5684CHOL    R274827   6.553  -2.585  -1.873
 5684CHOL    R374828   6.441  -2.630  -1.702
 5684CHOL    R474829   6.580  -2.485  -1.779
 5684CHOL    R574830   6.472  -2.515  -1.595
 5684CHOL    C174831   6.519  -2.342  -1.435
 5684CHOL    C274832   6.566  -2.169  -1.275
 5685CHOL   ROH74833  11.313  22.863  -2.320
 5685CHOL    R174834  11.303  22.748  -2.209
 5685CHOL    R274835  11.495  22.664  -2.106
 5685CHOL    R374836  11.293  22.620  -2.083
 5685CHOL    R474837  11.487  22.564  -2.009
 5685CHOL    R574838  11.283  22.505  -1.972
 5685CHOL    C174839  11.269  22.333  -1.805
 5685CHOL    C274840  11.254  22.161  -1.638
 5686CHOL   ROH74841  -7.671   8.636  12.973
 5686CHOL    R174842  -7.514   8.650  12.945
 5686CHOL    R274843  -7.358   8.595  13.109
 5686CHOL    R374844  -7.337   8.666  12.914
 5686CHOL    R474845  -7.220   8.607  13.084
 5686CHOL    R574846  -7.181   8.679  12.886
 5686CHOL    C174847  -6.945   8.700  12.844
 5686CHOL    C274848  -6.710   8.721  12.802
 5687CHOL   ROH74849   4.248   6.095  26.447
 5687CHOL    R174850   4.295   6.131  26.298
 5687CHOL    R274851   4.387   6.340  26.249
 5687CHOL    R374852   4.348   6.172  26.131
 5687CHOL    R474853   4.428   6.372  26.119
 5687CHOL    R574854   4.395   6.208  25.983
 5687CHOL    C174855   4.466   6.263  25.760
 5687CHOL    C274856   4.536   6.317  25.537
 5688CHOL   ROH74857   3.270  -6.466  12.017
 5688CHOL    R174858   3.330  -6.319  11.999
 5688CHOL    R274859   3.353  -6.176  12.182
 5688CHOL    R374860   3.396  -6.153  11.979
 5688CHOL    R474861   3.405  -6.047  12.166
 5688CHOL    R574862   3.456  -6.005  11.961
 5688CHOL    C174863   3.545  -5.784  11.933
 5688CHOL    C274864   3.635  -5.563  11.906
 5689CHOL   ROH74865   1.008  23.558  17.416
 5689CHOL    R174866   1.086  23.433  17.353
 5689CHOL    R274867   1.280  23.463  17.227
 5689CHOL    R374868   1.173  23.292  17.282
 5689CHOL    R474869   1.347  23.354  17.172
 5689CHOL    R574870   1.250  23.167  17.219
 5689CHOL    C174871   1.367  22.980  17.124
 5689CHOL    C274872   1.483  22.793  17.030
 5690CHOL   ROH74873  22.358   1.688   0.316
 5690CHOL    R174874  22.247   1.762   0.405
 5690CHOL    R274875  22.294   1.963   0.513
 5690CHOL    R374876  22.123   1.844   0.505
 5690CHOL    R474877  22.198   2.028   0.591
 5690CHOL    R574878  22.012   1.918   0.594
 5690CHOL    C174879  21.846   2.028   0.728
 5690CHOL    C274880  21.680   2.139   0.862
 5691CHOL   ROH74881  -3.056  16.928  20.145
 5691CHOL    R174882  -2.943  16.864  20.051
 5691CHOL    R274883  -2.793  16.999  19.935
 5691CHOL    R374884  -2.816  16.792  19.946
 5691CHOL    R474885  -2.694  16.943  19.853
 5691CHOL    R574886  -2.703  16.728  19.852
 5691CHOL    C174887  -2.534  16.632  19.712
 5691CHOL    C274888  -2.364  16.536  19.572
 5692CHOL   ROH74889  22.102  -0.361   2.043
 5692CHOL    R174890  21.993  -0.269   2.115
 5692CHOL    R274891  22.049  -0.058   2.198
 5692CHOL    R374892  21.870  -0.166   2.197
 5692CHOL    R474893  21.954   0.022   2.261
 5692CHOL    R574894  21.761  -0.074   2.270
 5692CHOL    C174895  21.597   0.064   2.378
 5692CHOL    C274896  21.434   0.202   2.487
 5693CHOL   ROH74897  23.647  18.987   3.012
 5693CHOL    R174898  23.523  18.904   3.071
 5693CHOL    R274899  23.515  18.672   3.052
 5693CHOL    R374900  23.384  18.811   3.136
 5693CHOL    R474901  23.407  18.600   3.104
 5693CHOL    R574902  23.260  18.728   3.195
 5693CHOL    C174903  23.075  18.604   3.283
 5693CHOL    C274904  22.889  18.480   3.371
 5694CHOL   ROH74905  25.390   2.784   4.765
 5694CHOL    R174906  25.250   2.849   4.808
 5694CHOL    R274907  25.234   3.077   4.858
 5694CHOL    R374908  25.094   2.922   4.857
 5694CHOL    R474909  25.112   3.134   4.896
 5694CHOL    R574910  24.954   2.988   4.901
 5694CHOL    C174911  24.745   3.085   4.966
 5694CHOL    C274912  24.535   3.183   5.031
 5695CHOL   ROH74913  -1.390  11.209  -3.789
 5695CHOL    R174914  -1.290  11.198  -3.665
 5695CHOL    R274915  -1.311  11.340  -3.481
 5695CHOL    R374916  -1.178  11.186  -3.524
 5695CHOL    R474917  -1.224  11.331  -3.372
 5695CHOL    R574918  -1.078  11.174  -3.400
 5695CHOL    C174919  -0.928  11.158  -3.213
 5695CHOL    C274920  -0.778  11.141  -3.027
 5696CHOL   ROH74921   1.531  25.125  14.306
 5696CHOL    R174922   1.605  24.989  14.264
 5696CHOL    R274923   1.794  24.915  14.380
 5696CHOL    R374924   1.689  24.837  14.218
 5696CHOL    R474925   1.858  24.797  14.344
 5696CHOL    R574926   1.763  24.701  14.176
 5696CHOL    C174927   1.874  24.498  14.114
 5696CHOL    C274928   1.986  24.295  14.051
 5697CHOL   ROH74929  10.189  27.224   5.296
 5697CHOL    R174930  10.184  27.069   5.336
 5697CHOL    R274931  10.318  26.985   5.507
 5697CHOL    R374932  10.178  26.895   5.380
 5697CHOL    R474933  10.313  26.849   5.542
 5697CHOL    R574934  10.173  26.740   5.420
 5697CHOL    C174935  10.165  26.508   5.480
 5697CHOL    C274936  10.158  26.275   5.539
 5698CHOL   ROH74937  12.257  14.247  -7.220
 5698CHOL    R174938  12.235  14.207  -7.067
 5698CHOL    R274939  12.185  13.988  -7.006
 5698CHOL    R374940  12.211  14.162  -6.894
 5698CHOL    R474941  12.166  13.953  -6.871
 5698CHOL    R574942  12.189  14.122  -6.740
 5698CHOL    C174943  12.157  14.062  -6.510
 5698CHOL    C274944  12.125  14.002  -6.280
 5699CHOL   ROH74945   7.733  23.320  -1.669
 5699CHOL    R174946   7.753  23.200  -1.565
 5699CHOL    R274947   7.913  23.035  -1.603
 5699CHOL    R374948   7.775  23.064  -1.449
 5699CHOL    R474949   7.930  22.929  -1.512
 5699CHOL    R574950   7.794  22.943  -1.345
 5699CHOL    C174951   7.824  22.763  -1.190
 5699CHOL    C274952   7.854  22.582  -1.035
 5700CHOL   ROH74953  -2.050  21.977  15.720
 5700CHOL    R174954  -1.943  21.870  15.668
 5700CHOL    R274955  -1.779  21.929  15.514
 5700CHOL    R374956  -1.823  21.749  15.610
 5700CHOL    R474957  -1.685  21.835  15.468
 5700CHOL    R574958  -1.716  21.642  15.559
 5700CHOL    C174959  -1.556  21.480  15.481
 5700CHOL    C274960  -1.395  21.319  15.403
 5701CHOL   ROH74961   4.579  20.669  -3.432
 5701CHOL    R174962   4.624  20.572  -3.313
 5701CHOL    R274963   4.824  20.453  -3.324
 5701CHOL    R374964   4.674  20.463  -3.179
 5701CHOL    R474965   4.863  20.368  -3.220
 5701CHOL    R574966   4.719  20.366  -3.059
 5701CHOL    C174967   4.786  20.221  -2.881
 5701CHOL    C274968   4.853  20.075  -2.702
 5702CHOL   ROH74969   9.216  -0.125  24.640
 5702CHOL    R174970   9.221  -0.037  24.506
 5702CHOL    R274971   9.415   0.078  24.446
 5702CHOL    R374972   9.228   0.061  24.356
 5702CHOL    R474973   9.420   0.155  24.329
 5702CHOL    R574974   9.233   0.149  24.222
 5702CHOL    C174975   9.241   0.281  24.021
 5702CHOL    C274976   9.249   0.412  23.821
 5703CHOL   ROH74977  24.390  11.352  -0.256
 5703CHOL    R174978  24.261  11.342  -0.162
 5703CHOL    R274979  24.058  11.438  -0.225
 5703CHOL    R374980  24.116  11.330  -0.056
 5703CHOL    R474981  23.946  11.429  -0.143
 5703CHOL    R574982  23.988  11.320   0.038
 5703CHOL    C174983  23.794  11.305   0.180
 5703CHOL    C274984  23.601  11.289   0.321
 5704CHOL   ROH74985  17.766   3.673  -4.765
 5704CHOL    R174986  17.693   3.726  -4.633
 5704CHOL    R274987  17.770   3.917  -4.522
 5704CHOL    R374988  17.612   3.786  -4.484
 5704CHOL    R474989  17.707   3.963  -4.407
 5704CHOL    R574990  17.539   3.840  -4.352
 5704CHOL    C174991  17.430   3.919  -4.154
 5704CHOL    C274992  17.321   3.999  -3.956
 5705CHOL   ROH74993  -6.448  15.450  14.866
 5705CHOL    R174994  -6.302  15.400  14.826
 5705CHOL    R274995  -6.112  15.521  14.887
 5705CHOL    R374996  -6.137  15.343  14.780
 5705CHOL    R474997  -5.984  15.477  14.851
 5705CHOL    R574998  -5.991  15.293  14.739
 5705CHOL    C174999  -5.771  15.217  14.679
 5705CHOL    C275000  -5.551  15.141  14.618
 5706CHOL   ROH75001  14.541  20.607  23.521
 5706CHOL    R175002  14.500  20.513  23.398
 5706CHOL    R275003  14.643  20.484  23.217
 5706CHOL    R375004  14.454  20.407  23.260
 5706CHOL    R475005  14.607  20.401  23.109
 5706CHOL    R575006  14.413  20.313  23.137
 5706CHOL    C175007  14.352  20.172  22.953
 5706CHOL    C275008  14.290  20.031  22.769
 5707CHOL   ROH75009  -4.681   1.021  15.036
 5707CHOL    R175010  -4.550   1.101  14.990
 5707CHOL    R275011  -4.446   1.253  15.133
 5707CHOL    R375012  -4.403   1.190  14.939
 5707CHOL    R475013  -4.332   1.323  15.093
 5707CHOL    R575014  -4.271   1.270  14.893
 5707CHOL    C175015  -4.075   1.389  14.824
 5707CHOL    C275016  -3.878   1.508  14.756
 5708CHOL   ROH75017  26.189   7.491  16.729
 5708CHOL    R175018  26.045   7.517  16.665
 5708CHOL    R275019  25.921   7.342  16.573
 5708CHOL    R375020  25.882   7.546  16.593
 5708CHOL    R475021  25.795   7.364  16.517
 5708CHOL    R575022  25.738   7.572  16.529
 5708CHOL    C175023  25.522   7.610  16.433
 5708CHOL    C275024  25.305   7.649  16.337
 5709CHOL   ROH75025   6.244  -3.100  21.539
 5709CHOL    R175026   6.277  -2.983  21.435
 5709CHOL    R275027   6.376  -3.031  21.229
 5709CHOL    R375028   6.315  -2.852  21.318
 5709CHOL    R475029   6.405  -2.928  21.138
 5709CHOL    R575030   6.348  -2.735  21.214
 5709CHOL    C175031   6.398  -2.560  21.057
 5709CHOL    C275032   6.448  -2.385  20.901
 5710CHOL   ROH75033  15.164  -6.695   6.497
 5710CHOL    R175034  15.113  -6.547   6.528
 5710CHOL    R275035  15.262  -6.367   6.533
 5710CHOL    R375036  15.056  -6.379   6.563
 5710CHOL    R475037  15.218  -6.237   6.560
 5710CHOL    R575038  15.005  -6.231   6.594
 5710CHOL    C175039  14.929  -6.008   6.641
 5710CHOL    C275040  14.853  -5.786   6.688
 5711CHOL   ROH75041  22.647   7.735  22.172
 5711CHOL    R175042  22.531   7.757  22.064
 5711CHOL    R275043  22.582   7.810  21.843
 5711CHOL    R375044  22.400   7.783  21.943
 5711CHOL    R475045  22.480   7.830  21.749
 5711CHOL    R575046  22.284   7.805  21.835
 5711CHOL    C175047  22.110   7.839  21.673
 5711CHOL    C275048  21.936   7.872  21.511
 5712CHOL   ROH75049  18.983  24.657   5.327
 5712CHOL    R175050  18.905  24.522   5.363
 5712CHOL    R275051  18.971  24.392   5.546
 5712CHOL    R375052  18.818  24.370   5.405
 5712CHOL    R475053  18.903  24.274   5.578
 5712CHOL    R575054  18.740  24.235   5.441
 5712CHOL    C175055  18.624  24.032   5.496
 5712CHOL    C275056  18.508  23.830   5.550
 5713CHOL   ROH75057  24.828  17.377   3.555
 5713CHOL    R175058  24.693  17.309   3.609
 5713CHOL    R275059  24.484  17.388   3.542
 5713CHOL    R375060  24.542  17.233   3.669
 5713CHOL    R475061  24.367  17.329   3.589
 5713CHOL    R575062  24.407  17.165   3.723
 5713CHOL    C175063  24.206  17.063   3.804
 5713CHOL    C275064  24.004  16.961   3.884
 5714CHOL   ROH75065  -3.115  20.692  15.930
 5714CHOL    R175066  -2.998  20.596  15.878
 5714CHOL    R275067  -2.809  20.684  15.772
 5714CHOL    R375068  -2.866  20.488  15.820
 5714CHOL    R475069  -2.707  20.600  15.727
 5714CHOL    R575070  -2.749  20.392  15.768
 5714CHOL    C175071  -2.573  20.249  15.690
 5714CHOL    C275072  -2.398  20.105  15.612
 5715CHOL   ROH75073   6.141  17.576  -5.800
 5715CHOL    R175074   6.175  17.509  -5.659
 5715CHOL    R275075   6.224  17.641  -5.472
 5715CHOL    R375076   6.213  17.434  -5.499
 5715CHOL    R475077   6.254  17.583  -5.349
 5715CHOL    R575078   6.248  17.368  -5.358
 5715CHOL    C175079   6.299  17.267  -5.146
 5715CHOL    C275080   6.350  17.167  -4.934
 5716CHOL   ROH75081  -7.882   9.197   7.900
 5716CHOL    R175082  -7.724   9.201   7.924
 5716CHOL    R275083  -7.623   9.380   8.035
 5716CHOL    R375084  -7.546   9.206   7.950
 5716CHOL    R475085  -7.485   9.384   8.055
 5716CHOL    R575086  -7.388   9.210   7.973
 5716CHOL    C175087  -7.150   9.216   8.009
 5716CHOL    C275088  -6.913   9.222   8.044
 5717CHOL   ROH75089  18.979  21.792   0.239
 5717CHOL    R175090  18.895  21.685   0.324
 5717CHOL    R275091  18.830  21.482   0.231
 5717CHOL    R375092  18.802  21.566   0.420
 5717CHOL    R475093  18.757  21.389   0.305
 5717CHOL    R575094  18.718  21.459   0.506
 5717CHOL    C175095  18.593  21.299   0.633
 5717CHOL    C275096  18.467  21.139   0.761
 5718CHOL   ROH75097  -3.286   1.119  18.173
 5718CHOL    R175098  -3.169   1.199  18.099
 5718CHOL    R275099  -2.981   1.088  18.017
 5718CHOL    R375100  -3.037   1.289  18.016
 5718CHOL    R475101  -2.879   1.158  17.952
 5718CHOL    R575102  -2.920   1.370  17.942
 5718CHOL    C175103  -2.744   1.490  17.831
 5718CHOL    C275104  -2.569   1.610  17.720
 5719CHOL   ROH75105   8.973   8.443  27.691
 5719CHOL    R175106   8.984   8.458  27.532
 5719CHOL    R275107   9.134   8.608  27.436
 5719CHOL    R375108   8.996   8.474  27.353
 5719CHOL    R475109   9.144   8.620  27.297
 5719CHOL    R575110   9.008   8.488  27.194
 5719CHOL    C175111   9.024   8.510  26.956
 5719CHOL    C275112   9.041   8.532  26.718
 5720CHOL   ROH75113   2.618  23.818   1.330
 5720CHOL    R175114   2.685  23.694   1.406
 5720CHOL    R275115   2.822  23.728   1.592
 5720CHOL    R375116   2.760  23.555   1.492
 5720CHOL    R475117   2.881  23.620   1.659
 5720CHOL    R575118   2.827  23.431   1.568
 5720CHOL    C175119   2.928  23.246   1.683
 5720CHOL    C275120   3.029  23.060   1.797
 5721CHOL   ROH75121   5.078  -6.811  13.680
 5721CHOL    R175122   5.122  -6.660  13.648
 5721CHOL    R275123   5.269  -6.546  13.788
 5721CHOL    R375124   5.170  -6.491  13.612
 5721CHOL    R475125   5.307  -6.414  13.760
 5721CHOL    R575126   5.214  -6.340  13.581
 5721CHOL    C175127   5.279  -6.115  13.533
 5721CHOL    C275128   5.345  -5.889  13.485
 5722CHOL   ROH75129   6.335  13.840  26.932
 5722CHOL    R175130   6.368  13.810  26.778
 5722CHOL    R275131   6.553  13.682  26.718
 5722CHOL    R375132   6.405  13.777  26.605
 5722CHOL    R475133   6.581  13.656  26.583
 5722CHOL    R575134   6.438  13.748  26.452
 5722CHOL    C175135   6.487  13.703  26.221
 5722CHOL    C275136   6.536  13.659  25.990
 5723CHOL   ROH75137  14.054  26.553  15.098
 5723CHOL    R175138  14.018  26.404  15.053
 5723CHOL    R275139  14.184  26.257  14.980
 5723CHOL    R375140  13.977  26.236  15.003
 5723CHOL    R475141  14.152  26.126  14.941
 5723CHOL    R575142  13.941  26.086  14.959
 5723CHOL    C175143  13.887  25.863  14.892
 5723CHOL    C275144  13.833  25.639  14.825
 5724CHOL   ROH75145  23.270   3.708  -0.032
 5724CHOL    R175146  23.154   3.768   0.060
 5724CHOL    R275147  23.194   3.951   0.199
 5724CHOL    R375148  23.023   3.837   0.162
 5724CHOL    R475149  23.092   4.004   0.279
 5724CHOL    R575150  22.906   3.897   0.254
 5724CHOL    C175151  22.732   3.988   0.391
 5724CHOL    C275152  22.558   4.078   0.529
 5725CHOL   ROH75153  23.470   7.758  21.229
 5725CHOL    R175154  23.347   7.780  21.129
 5725CHOL    R275155  23.310   7.987  21.028
 5725CHOL    R375156  23.208   7.805  21.017
 5725CHOL    R475157  23.202   8.007  20.941
 5725CHOL    R575158  23.085   7.828  20.917
 5725CHOL    C175159  22.900   7.861  20.768
 5725CHOL    C275160  22.715   7.894  20.618
 5726CHOL   ROH75161  25.130   0.745  10.775
 5726CHOL    R175162  24.993   0.827  10.770
 5726CHOL    R275163  24.878   0.855  10.568
 5726CHOL    R375164  24.838   0.918  10.763
 5726CHOL    R475165  24.758   0.927  10.564
 5726CHOL    R575166  24.701   1.000  10.758
 5726CHOL    C175167  24.494   1.122  10.750
 5726CHOL    C275168  24.288   1.245  10.742
 5727CHOL   ROH75169   7.844  -4.837  19.696
 5727CHOL    R175170   7.862  -4.704  19.609
 5727CHOL    R275171   7.910  -4.716  19.381
 5727CHOL    R375172   7.883  -4.554  19.511
 5727CHOL    R475173   7.926  -4.599  19.305
 5727CHOL    R575174   7.901  -4.421  19.424
 5727CHOL    C175175   7.929  -4.222  19.293
 5727CHOL    C275176   7.957  -4.023  19.163
 5728CHOL   ROH75177  -0.470   4.062  23.105
 5728CHOL    R175178  -0.377   4.117  22.987
 5728CHOL    R275179  -0.156   4.044  22.966
 5728CHOL    R375180  -0.271   4.178  22.854
 5728CHOL    R475181  -0.074   4.092  22.862
 5728CHOL    R575182  -0.178   4.233  22.736
 5728CHOL    C175183  -0.038   4.314  22.560
 5728CHOL    C275184   0.102   4.396  22.383
 5729CHOL   ROH75185  11.061   7.233  27.556
 5729CHOL    R175186  11.050   7.258  27.398
 5729CHOL    R275187  11.056   7.080  27.248
 5729CHOL    R375188  11.037   7.287  27.221
 5729CHOL    R475189  11.046   7.103  27.110
 5729CHOL    R575190  11.026   7.312  27.064
 5729CHOL    C175191  11.009   7.350  26.827
 5729CHOL    C275192  10.992   7.388  26.591
 5730CHOL   ROH75193  19.738  12.546  -4.712
 5730CHOL    R175194  19.650  12.525  -4.580
 5730CHOL    R275195  19.484  12.678  -4.520
 5730CHOL    R375196  19.552  12.501  -4.431
 5730CHOL    R475197  19.408  12.659  -4.404
 5730CHOL    R575198  19.465  12.481  -4.299
 5730CHOL    C175199  19.333  12.449  -4.100
 5730CHOL    C275200  19.202  12.418  -3.902
 5731CHOL   ROH75201   1.217  15.996  -4.476
 5731CHOL    R175202   1.295  15.943  -4.347
 5731CHOL    R275203   1.186  15.916  -4.143
 5731CHOL    R375204   1.384  15.883  -4.202
 5731CHOL    R475205   1.255  15.869  -4.030
 5731CHOL    R575206   1.462  15.830  -4.073
 5731CHOL    C175207   1.580  15.750  -3.880
 5731CHOL    C275208   1.697  15.670  -3.686
 5732CHOL   ROH75209   7.357  -7.579   8.206
 5732CHOL    R175210   7.378  -7.421   8.220
 5732CHOL    R275211   7.590  -7.331   8.255
 5732CHOL    R375212   7.402  -7.243   8.235
 5732CHOL    R475213   7.608  -7.192   8.268
 5732CHOL    R575214   7.422  -7.085   8.249
 5732CHOL    C175215   7.454  -6.848   8.270
 5732CHOL    C275216   7.485  -6.611   8.290
 5733CHOL   ROH75217   3.680  -5.905  15.271
 5733CHOL    R175218   3.736  -5.763  15.224
 5733CHOL    R275219   3.958  -5.702  15.261
 5733CHOL    R375220   3.798  -5.602  15.170
 5733CHOL    R475221   4.006  -5.577  15.220
 5733CHOL    R575222   3.854  -5.460  15.123
 5733CHOL    C175223   3.937  -5.246  15.052
 5733CHOL    C275224   4.020  -5.033  14.981
 5734CHOL   ROH75225  -7.262  15.052  10.538
 5734CHOL    R175226  -7.109  15.006  10.532
 5734CHOL    R275227  -7.032  14.828  10.662
 5734CHOL    R375228  -6.937  14.953  10.525
 5734CHOL    R475229  -6.898  14.787  10.656
 5734CHOL    R575230  -6.784  14.907  10.518
 5734CHOL    C175231  -6.555  14.837  10.509
 5734CHOL    C275232  -6.325  14.768  10.500
 5735CHOL   ROH75233  12.365  26.695   4.315
 5735CHOL    R175234  12.338  26.546   4.366
 5735CHOL    R275235  12.486  26.440   4.512
 5735CHOL    R375236  12.308  26.378   4.424
 5735CHOL    R475237  12.463  26.310   4.557
 5735CHOL    R575238  12.281  26.228   4.475
 5735CHOL    C175239  12.241  26.005   4.552
 5735CHOL    C275240  12.200  25.781   4.629
 5736CHOL   ROH75241  11.889   3.367  -6.512
 5736CHOL    R175242  11.873   3.425  -6.364
 5736CHOL    R275243  11.999   3.607  -6.292
 5736CHOL    R375244  11.854   3.490  -6.197
 5736CHOL    R475245  11.985   3.658  -6.162
 5736CHOL    R575246  11.838   3.548  -6.049
 5736CHOL    C175247  11.813   3.635  -5.827
 5736CHOL    C275248  11.788   3.722  -5.605
 5737CHOL   ROH75249   2.622  26.301  10.667
 5737CHOL    R175250   2.689  26.156  10.661
 5737CHOL    R275251   2.872  26.114  10.522
 5737CHOL    R375252   2.764  25.992  10.653
 5737CHOL    R475253   2.930  25.986  10.516
 5737CHOL    R575254   2.830  25.847  10.647
 5737CHOL    C175255   2.931  25.629  10.637
 5737CHOL    C275256   3.031  25.411  10.628
 5738CHOL   ROH75257   7.513  -3.860  -1.075
 5738CHOL    R175258   7.535  -3.735  -0.977
 5738CHOL    R275259   7.748  -3.650  -0.937
 5738CHOL    R375260   7.559  -3.594  -0.868
 5738CHOL    R475261   7.767  -3.541  -0.851
 5738CHOL    R575262   7.581  -3.470  -0.770
 5738CHOL    C175263   7.613  -3.282  -0.624
 5738CHOL    C275264   7.645  -3.095  -0.477
 5739CHOL   ROH75265   6.324  12.118  -7.449
 5739CHOL    R175266   6.355  12.101  -7.293
 5739CHOL    R275267   6.451  12.274  -7.170
 5739CHOL    R375268   6.389  12.082  -7.117
 5739CHOL    R475269   6.478  12.259  -7.033
 5739CHOL    R575270   6.420  12.065  -6.961
 5739CHOL    C175271   6.466  12.039  -6.727
 5739CHOL    C275272   6.512  12.013  -6.493
 5740CHOL   ROH75273  15.414  20.427  23.334
 5740CHOL    R175274  15.364  20.335  23.213
 5740CHOL    R275275  15.495  20.308  23.021
 5740CHOL    R375276  15.309  20.232  23.077
 5740CHOL    R475277  15.451  20.228  22.915
 5740CHOL    R575278  15.259  20.140  22.956
 5740CHOL    C175279  15.185  20.002  22.774
 5740CHOL    C275280  15.110  19.864  22.592
 5741CHOL   ROH75281  19.244  22.014   0.789
 5741CHOL    R175282  19.159  21.907   0.871
 5741CHOL    R275283  19.143  21.685   0.799
 5741CHOL    R375284  19.062  21.786   0.964
 5741CHOL    R475285  19.068  21.591   0.871
 5741CHOL    R575286  18.977  21.678   1.046
 5741CHOL    C175287  18.849  21.517   1.169
 5741CHOL    C275288  18.721  21.356   1.293
 5742CHOL   ROH75289  17.163  -6.176  11.910
 5742CHOL    R175290  17.096  -6.032  11.893
 5742CHOL    R275291  17.224  -5.837  11.908
 5742CHOL    R375292  17.021  -5.869  11.873
 5742CHOL    R475293  17.165  -5.711  11.893
 5742CHOL    R575294  16.953  -5.725  11.855
 5742CHOL    C175295  16.853  -5.509  11.829
 5742CHOL    C275296  16.752  -5.292  11.803
 5743CHOL   ROH75297  24.956  15.738  17.600
 5743CHOL    R175298  24.819  15.689  17.533
 5743CHOL    R275299  24.705  15.823  17.381
 5743CHOL    R375300  24.665  15.634  17.458
 5743CHOL    R475301  24.585  15.780  17.322
 5743CHOL    R575302  24.528  15.584  17.392
 5743CHOL    C175303  24.323  15.511  17.291
 5743CHOL    C275304  24.117  15.437  17.191
 5744CHOL   ROH75305  -5.319  11.981  19.105
 5744CHOL    R175306  -5.185  11.964  19.018
 5744CHOL    R275307  -5.015  12.123  19.029
 5744CHOL    R375308  -5.035  11.945  18.921
 5744CHOL    R475309  -4.898  12.108  18.954
 5744CHOL    R575310  -4.901  11.929  18.834
 5744CHOL    C175311  -4.701  11.903  18.705
 5744CHOL    C275312  -4.501  11.878  18.575
 5745CHOL   ROH75313  20.586  13.567  -3.890
 5745CHOL    R175314  20.490  13.535  -3.766
 5745CHOL    R275315  20.269  13.469  -3.799
 5745CHOL    R375316  20.383  13.499  -3.626
 5745CHOL    R475317  20.185  13.441  -3.690
 5745CHOL    R575318  20.287  13.467  -3.502
 5745CHOL    C175319  20.143  13.419  -3.316
 5745CHOL    C275320  20.000  13.371  -3.130
 5746CHOL   ROH75321  -2.846  18.780   0.964
 5746CHOL    R175322  -2.731  18.702   1.043
 5746CHOL    R275323  -2.683  18.752   1.266
 5746CHOL    R375324  -2.601  18.614   1.132
 5746CHOL    R475325  -2.582  18.684   1.335
 5746CHOL    R575326  -2.486  18.536   1.211
 5746CHOL    C175327  -2.313  18.420   1.330
 5746CHOL    C275328  -2.140  18.303   1.448
 5747CHOL   ROH75329  20.251  -1.859  18.328
 5747CHOL    R175330  20.158  -1.755  18.250
 5747CHOL    R275331  20.243  -1.552  18.174
 5747CHOL    R375332  20.053  -1.638  18.163
 5747CHOL    R475333  20.161  -1.460  18.106
 5747CHOL    R575334  19.960  -1.534  18.085
 5747CHOL    C175335  19.820  -1.377  17.968
 5747CHOL    C275336  19.680  -1.221  17.852
 5748CHOL   ROH75337  -7.249   7.234   5.538
 5748CHOL    R175338  -7.096   7.254   5.580
 5748CHOL    R275339  -7.035   7.284   5.803
 5748CHOL    R375340  -6.923   7.276   5.626
 5748CHOL    R475341  -6.901   7.302   5.839
 5748CHOL    R575342  -6.770   7.296   5.668
 5748CHOL    C175343  -6.540   7.326   5.730
 5748CHOL    C275344  -6.310   7.356   5.793
 5749CHOL   ROH75345  -4.523  15.347   0.761
 5749CHOL    R175346  -4.391  15.295   0.836
 5749CHOL    R275347  -4.214  15.440   0.882
 5749CHOL    R375348  -4.244  15.237   0.920
 5749CHOL    R475349  -4.099  15.395   0.947
 5749CHOL    R575350  -4.112  15.185   0.995
 5749CHOL    C175351  -3.915  15.108   1.108
 5749CHOL    C275352  -3.717  15.030   1.221
 5750CHOL   ROH75353  27.444   8.057   7.989
 5750CHOL    R175354  27.286   8.073   8.005
 5750CHOL    R275355  27.141   7.902   7.939
 5750CHOL    R375356  27.107   8.091   8.022
 5750CHOL    R475357  27.002   7.916   7.953
 5750CHOL    R575358  26.949   8.106   8.038
 5750CHOL    C175359  26.711   8.130   8.061
 5750CHOL    C275360  26.474   8.154   8.084
 5751CHOL   ROH75361  25.720   2.177   7.636
 5751CHOL    R175362  25.578   2.249   7.657
 5751CHOL    R275363  25.424   2.262   7.482
 5751CHOL    R375364  25.419   2.329   7.680
 5751CHOL    R475365  25.300   2.324   7.500
 5751CHOL    R575366  25.277   2.401   7.700
 5751CHOL    C175367  25.065   2.508   7.731
 5751CHOL    C275368  24.853   2.615   7.762
 5752CHOL   ROH75369  11.368  -5.785  18.252
 5752CHOL    R175370  11.356  -5.645  18.176
 5752CHOL    R275371  11.545  -5.514  18.136
 5752CHOL    R375372  11.343  -5.487  18.090
 5752CHOL    R475373  11.535  -5.391  18.069
 5752CHOL    R575374  11.331  -5.347  18.014
 5752CHOL    C175375  11.314  -5.137  17.899
 5752CHOL    C275376  11.296  -4.927  17.785
 5753CHOL   ROH75377  12.867  20.643  23.947
 5753CHOL    R175378  12.841  20.548  23.821
 5753CHOL    R275379  13.012  20.499  23.670
 5753CHOL    R375380  12.812  20.442  23.679
 5753CHOL    R475381  12.989  20.416  23.560
 5753CHOL    R575382  12.785  20.347  23.553
 5753CHOL    C175383  12.746  20.205  23.363
 5753CHOL    C275384  12.707  20.063  23.174
 5754CHOL   ROH75385  22.260  -1.739   4.638
 5754CHOL    R175386  22.148  -1.634   4.684
 5754CHOL    R275387  22.003  -1.537   4.530
 5754CHOL    R375388  22.023  -1.516   4.737
 5754CHOL    R475389  21.906  -1.446   4.570
 5754CHOL    R575390  21.911  -1.412   4.783
 5754CHOL    C175391  21.744  -1.254   4.853
 5754CHOL    C275392  21.577  -1.097   4.922
 5755CHOL   ROH75393   9.896  14.149  27.290
 5755CHOL    R175394   9.895  14.109  27.135
 5755CHOL    R275395  10.015  13.925  27.058
 5755CHOL    R375396   9.893  14.064  26.961
 5755CHOL    R475397  10.014  13.890  26.922
 5755CHOL    R575398   9.891  14.024  26.806
 5755CHOL    C175399   9.889  13.964  26.574
 5755CHOL    C275400   9.887  13.904  26.341
 5756CHOL   ROH75401   5.456  -5.233   1.711
 5756CHOL    R175402   5.492  -5.095   1.784
 5756CHOL    R275403   5.686  -5.075   1.913
 5756CHOL    R375404   5.533  -4.941   1.867
 5756CHOL    R475405   5.718  -4.955   1.977
 5756CHOL    R575406   5.569  -4.803   1.940
 5756CHOL    C175407   5.623  -4.597   2.050
 5756CHOL    C275408   5.677  -4.390   2.160
 5757CHOL   ROH75409   1.065  22.840   1.303
 5757CHOL    R175410   1.145  22.723   1.377
 5757CHOL    R275411   1.364  22.756   1.452
 5757CHOL    R375412   1.235  22.591   1.461
 5757CHOL    R475413   1.434  22.653   1.517
 5757CHOL    R575414   1.315  22.475   1.536
 5757CHOL    C175415   1.435  22.299   1.647
 5757CHOL    C275416   1.555  22.124   1.759
 5758CHOL   ROH75417   8.544  -5.196   0.657
 5758CHOL    R175418   8.558  -5.060   0.740
 5758CHOL    R275419   8.574  -5.062   0.972
 5758CHOL    R375420   8.573  -4.907   0.833
 5758CHOL    R475421   8.586  -4.943   1.045
 5758CHOL    R575422   8.587  -4.771   0.916
 5758CHOL    C175423   8.608  -4.566   1.040
 5758CHOL    C275424   8.628  -4.362   1.164
 5759CHOL   ROH75425  10.627  27.220   5.360
 5759CHOL    R175426  10.618  27.065   5.400
 5759CHOL    R275427  10.745  26.979   5.575
 5759CHOL    R375428  10.608  26.891   5.444
 5759CHOL    R475429  10.737  26.843   5.610
 5759CHOL    R575430  10.599  26.736   5.484
 5759CHOL    C175431  10.586  26.504   5.544
 5759CHOL    C275432  10.572  26.272   5.603
 5760CHOL   ROH75433  17.663  -5.922   7.911
 5760CHOL    R175434  17.594  -5.779   7.930
 5760CHOL    R275435  17.712  -5.582   7.888
 5760CHOL    R375436  17.517  -5.618   7.952
 5760CHOL    R475437  17.652  -5.457   7.905
 5760CHOL    R575438  17.448  -5.474   7.971
 5760CHOL    C175439  17.345  -5.260   8.001
 5760CHOL    C275440  17.242  -5.045   8.030
 5761CHOL   ROH75441  19.498  -4.841  12.284
 5761CHOL    R175442  19.412  -4.708  12.263
 5761CHOL    R275443  19.509  -4.497  12.292
 5761CHOL    R375444  19.316  -4.557  12.239
 5761CHOL    R475445  19.434  -4.380  12.273
 5761CHOL    R575446  19.230  -4.424  12.218
 5761CHOL    C175447  19.101  -4.224  12.187
 5761CHOL    C275448  18.973  -4.024  12.156
 5762CHOL   ROH75449   7.122   9.445  -7.692
 5762CHOL    R175450   7.147   9.450  -7.534
 5762CHOL    R275451   7.011   9.329  -7.388
 5762CHOL    R375452   7.175   9.455  -7.356
 5762CHOL    R475453   7.033   9.333  -7.249
 5762CHOL    R575454   7.199   9.459  -7.198
 5762CHOL    C175455   7.237   9.466  -6.962
 5762CHOL    C275456   7.274   9.473  -6.725
 5763CHOL   ROH75457  22.628  22.120   6.921
 5763CHOL    R175458  22.511  22.015   6.950
 5763CHOL    R275459  22.348  21.970   6.790
 5763CHOL    R375460  22.379  21.897   6.983
 5763CHOL    R475461  22.245  21.878   6.815
 5763CHOL    R575462  22.262  21.792   7.012
 5763CHOL    C175463  22.086  21.635   7.056
 5763CHOL    C275464  21.911  21.477   7.100
 5764CHOL   ROH75465  23.252  -1.320  13.250
 5764CHOL    R175466  23.133  -1.219  13.218
 5764CHOL    R275467  23.134  -1.001  13.302
 5764CHOL    R375468  22.998  -1.104  13.181
 5764CHOL    R475469  23.029  -0.912  13.273
 5764CHOL    R575470  22.879  -1.003  13.149
 5764CHOL    C175471  22.700  -0.851  13.100
 5764CHOL    C275472  22.521  -0.699  13.051
 5765CHOL   ROH75473  13.016  21.291  23.394
 5765CHOL    R175474  12.990  21.187  23.275
 5765CHOL    R275475  13.141  21.166  23.099
 5765CHOL    R375476  12.960  21.071  23.141
 5765CHOL    R475477  13.119  21.075  22.995
 5765CHOL    R575478  12.934  20.967  23.022
 5765CHOL    C175479  12.895  20.811  22.843
 5765CHOL    C275480  12.855  20.656  22.665
 5766CHOL   ROH75481  22.482  22.083   6.270
 5766CHOL    R175482  22.366  21.979   6.305
 5766CHOL    R275483  22.202  21.924   6.148
 5766CHOL    R375484  22.234  21.862   6.345
 5766CHOL    R475485  22.100  21.833   6.179
 5766CHOL    R575486  22.118  21.758   6.380
 5766CHOL    C175487  21.943  21.603   6.434
 5766CHOL    C275488  21.769  21.447   6.487
 5767CHOL   ROH75489  21.342  22.554  14.993
 5767CHOL    R175490  21.238  22.443  14.945
 5767CHOL    R275491  21.243  22.227  15.033
 5767CHOL    R375492  21.121  22.317  14.890
 5767CHOL    R475493  21.152  22.129  14.991
 5767CHOL    R575494  21.016  22.206  14.842
 5767CHOL    C175495  20.860  22.039  14.770
 5767CHOL    C275496  20.704  21.872  14.697
 5768CHOL   ROH75497  22.825   3.355  20.200
 5768CHOL    R175498  22.710   3.412  20.105
 5768CHOL    R275499  22.650   3.301  19.909
 5768CHOL    R375500  22.581   3.477  19.997
 5768CHOL    R475501  22.550   3.352  19.825
 5768CHOL    R575502  22.466   3.535  19.902
 5768CHOL    C175503  22.294   3.621  19.759
 5768CHOL    C275504  22.121   3.707  19.616
 5769CHOL   ROH75505   0.366  18.896  -2.347
 5769CHOL    R175506   0.451  18.818  -2.236
 5769CHOL    R275507   0.679  18.862  -2.207
 5769CHOL    R375508   0.547  18.731  -2.111
 5769CHOL    R475509   0.753  18.794  -2.110
 5769CHOL    R575510   0.633  18.653  -2.000
 5769CHOL    C175511   0.760  18.536  -1.834
 5769CHOL    C275512   0.888  18.420  -1.668
 5770CHOL   ROH75513  22.779  -1.936  12.994
 5770CHOL    R175514  22.662  -1.830  12.966
 5770CHOL    R275515  22.673  -1.686  12.783
 5770CHOL    R375516  22.531  -1.711  12.934
 5770CHOL    R475517  22.571  -1.593  12.758
 5770CHOL    R575518  22.415  -1.605  12.905
 5770CHOL    C175519  22.240  -1.446  12.863
 5770CHOL    C275520  22.065  -1.287  12.821
 5771CHOL   ROH75521   3.278  18.550  24.187
 5771CHOL    R175522   3.339  18.472  24.061
 5771CHOL    R275523   3.476  18.285  24.091
 5771CHOL    R375524   3.408  18.384  23.920
 5771CHOL    R475525   3.530  18.217  23.981
 5771CHOL    R575526   3.469  18.306  23.794
 5771CHOL    C175527   3.560  18.188  23.606
 5771CHOL    C275528   3.651  18.071  23.418
 5772CHOL   ROH75529   0.527   1.294  -2.463
 5772CHOL    R175530   0.611   1.372  -2.352
 5772CHOL    R275531   0.576   1.333  -2.125
 5772CHOL    R375532   0.706   1.460  -2.227
 5772CHOL    R475533   0.650   1.401  -2.027
 5772CHOL    R575534   0.791   1.538  -2.116
 5772CHOL    C175535   0.917   1.656  -1.949
 5772CHOL    C275536   1.043   1.773  -1.782
 5773CHOL   ROH75537  27.584  10.645   8.371
 5773CHOL    R175538  27.424  10.642   8.383
 5773CHOL    R275539  27.297  10.830   8.328
 5773CHOL    R375540  27.245  10.639   8.396
 5773CHOL    R475541  27.157  10.827   8.338
 5773CHOL    R575542  27.086  10.636   8.407
 5773CHOL    C175543  26.846  10.632   8.425
 5773CHOL    C275544  26.607  10.627   8.443
 5774CHOL   ROH75545  13.752  -0.935  23.451
 5774CHOL    R175546  13.719  -0.833  23.332
 5774CHOL    R275547  13.792  -0.876  23.114
 5774CHOL    R375548  13.682  -0.719  23.198
 5774CHOL    R475549  13.763  -0.787  23.010
 5774CHOL    R575550  13.650  -0.617  23.079
 5774CHOL    C175551  13.600  -0.465  22.900
 5774CHOL    C275552  13.551  -0.313  22.722
 5775CHOL   ROH75553  20.403   8.121  -4.343
 5775CHOL    R175554  20.311   8.139  -4.213
 5775CHOL    R275555  20.109   8.254  -4.225
 5775CHOL    R375556  20.208   8.159  -4.067
 5775CHOL    R475557  20.028   8.270  -4.111
 5775CHOL    R575558  20.116   8.178  -3.938
 5775CHOL    C175559  19.978   8.205  -3.743
 5775CHOL    C275560  19.840   8.232  -3.548
 5776CHOL   ROH75561   1.797  23.340   1.333
 5776CHOL    R175562   1.873  23.220   1.407
 5776CHOL    R275563   2.047  23.262   1.557
 5776CHOL    R375564   1.957  23.085   1.491
 5776CHOL    R475565   2.113  23.157   1.621
 5776CHOL    R575566   2.033  22.965   1.565
 5776CHOL    C175567   2.146  22.785   1.676
 5776CHOL    C275568   2.260  22.605   1.788
 5777CHOL   ROH75569  15.463   5.066  -6.257
 5777CHOL    R175570  15.409   5.108  -6.113
 5777CHOL    R275571  15.206   5.221  -6.089
 5777CHOL    R375572  15.347   5.155  -5.950
 5777CHOL    R475573  15.159   5.258  -5.962
 5777CHOL    R575574  15.293   5.197  -5.806
 5777CHOL    C175575  15.211   5.259  -5.589
 5777CHOL    C275576  15.130   5.322  -5.372
 5778CHOL   ROH75577   9.033  20.398  24.432
 5778CHOL    R175578   9.041  20.303  24.304
 5778CHOL    R275579   9.066  20.392  24.089
 5778CHOL    R375580   9.050  20.196  24.159
 5778CHOL    R475581   9.073  20.309  23.977
 5778CHOL    R575582   9.059  20.101  24.031
 5778CHOL    C175583   9.071  19.958  23.838
 5778CHOL    C275584   9.083  19.816  23.645
 5779CHOL   ROH75585  11.488  -7.775  10.543
 5779CHOL    R175586  11.478  -7.615  10.536
 5779CHOL    R275587  11.662  -7.486  10.476
 5779CHOL    R375588  11.466  -7.436  10.528
 5779CHOL    R475589  11.653  -7.346  10.470
 5779CHOL    R575590  11.456  -7.277  10.522
 5779CHOL    C175591  11.441  -7.037  10.511
 5779CHOL    C275592  11.425  -6.798  10.501
 5780CHOL   ROH75593  20.348  -1.133  19.123
 5780CHOL    R175594  20.255  -1.033  19.039
 5780CHOL    R275595  20.276  -0.802  19.062
 5780CHOL    R375596  20.151  -0.921  18.944
 5780CHOL    R475597  20.195  -0.715  18.988
 5780CHOL    R575598  20.059  -0.821  18.860
 5780CHOL    C175599  19.920  -0.672  18.734
 5780CHOL    C275600  19.781  -0.522  18.608
 5781CHOL   ROH75601  -2.566  17.193  -0.734
 5781CHOL    R175602  -2.455  17.127  -0.639
 5781CHOL    R275603  -2.255  17.237  -0.593
 5781CHOL    R375604  -2.331  17.052  -0.533
 5781CHOL    R475605  -2.158  17.179  -0.511
 5781CHOL    R575606  -2.220  16.985  -0.438
 5781CHOL    C175607  -2.055  16.886  -0.296
 5781CHOL    C275608  -1.889  16.786  -0.154
 5782CHOL   ROH75609  24.691  15.920  17.991
 5782CHOL    R175610  24.556  15.869  17.921
 5782CHOL    R275611  24.563  15.750  17.721
 5782CHOL    R375612  24.405  15.812  17.842
 5782CHOL    R475613  24.445  15.705  17.660
 5782CHOL    R575614  24.270  15.761  17.772
 5782CHOL    C175615  24.068  15.685  17.668
 5782CHOL    C275616  23.866  15.609  17.563
 5783CHOL   ROH75617  -3.117  20.473  16.313
 5783CHOL    R175618  -3.000  20.379  16.257
 5783CHOL    R275619  -2.817  20.469  16.144
 5783CHOL    R375620  -2.869  20.273  16.194
 5783CHOL    R475621  -2.715  20.387  16.095
 5783CHOL    R575622  -2.753  20.179  16.138
 5783CHOL    C175623  -2.578  20.038  16.054
 5783CHOL    C275624  -2.403  19.897  15.970
 5784CHOL   ROH75625  20.123   7.511  -4.439
 5784CHOL    R175626  20.034   7.534  -4.308
 5784CHOL    R275627  19.973   7.749  -4.240
 5784CHOL    R375628  19.934   7.560  -4.161
 5784CHOL    R475629  19.895   7.769  -4.126
 5784CHOL    R575630  19.844   7.583  -4.030
 5784CHOL    C175631  19.711   7.618  -3.834
 5784CHOL    C275632  19.577   7.652  -3.637
 5785CHOL   ROH75633  -3.843   0.280   3.830
 5785CHOL    R175634  -3.719   0.368   3.879
 5785CHOL    R275635  -3.567   0.284   4.035
 5785CHOL    R375636  -3.579   0.467   3.935
 5785CHOL    R475637  -3.458   0.361   4.078
 5785CHOL    R575638  -3.455   0.555   3.984
 5785CHOL    C175639  -3.269   0.688   4.059
 5785CHOL    C275640  -3.083   0.820   4.133
 5786CHOL   ROH75641   1.694  18.787  23.132
 5786CHOL    R175642   1.771  18.710  23.015
 5786CHOL    R275643   1.931  18.548  23.062
 5786CHOL    R375644   1.857  18.623  22.882
 5786CHOL    R475645   1.998  18.480  22.960
 5786CHOL    R575646   1.934  18.547  22.765
 5786CHOL    C175647   2.049  18.431  22.589
 5786CHOL    C275648   2.164  18.316  22.413
 5787CHOL   ROH75649  13.748  14.284  26.805
 5787CHOL    R175650  13.717  14.241  26.654
 5787CHOL    R275651  13.890  14.198  26.504
 5787CHOL    R375652  13.683  14.194  26.484
 5787CHOL    R475653  13.864  14.160  26.372
 5787CHOL    R575654  13.652  14.151  26.333
 5787CHOL    C175655  13.606  14.087  26.106
 5787CHOL    C275656  13.560  14.023  25.880
 5788CHOL   ROH75657   4.224  -2.511  21.381
 5788CHOL    R175658   4.274  -2.399  21.279
 5788CHOL    R275659   4.314  -2.180  21.350
 5788CHOL    R375660   4.330  -2.272  21.163
 5788CHOL    R475661   4.358  -2.082  21.261
 5788CHOL    R575662   4.380  -2.160  21.061
 5788CHOL    C175663   4.454  -1.991  20.907
 5788CHOL    C275664   4.529  -1.822  20.754
 5789CHOL   ROH75665  27.186  14.245  10.714
 5789CHOL    R175666  27.030  14.209  10.704
 5789CHOL    R275667  26.926  14.185  10.497
 5789CHOL    R375668  26.856  14.169  10.693
 5789CHOL    R475669  26.790  14.154  10.489
 5789CHOL    R575670  26.700  14.133  10.683
 5789CHOL    C175671  26.467  14.079  10.669
 5789CHOL    C275672  26.233  14.025  10.654
 5790CHOL   ROH75673  26.805  13.669  14.035
 5790CHOL    R175674  26.653  13.637  13.996
 5790CHOL    R275675  26.514  13.803  13.909
 5790CHOL    R375676  26.482  13.601  13.952
 5790CHOL    R475677  26.382  13.775  13.875
 5790CHOL    R575678  26.331  13.569  13.913
 5790CHOL    C175679  26.103  13.522  13.855
 5790CHOL    C275680  25.875  13.474  13.797
 5791CHOL   ROH75681  25.416  17.817  13.865
 5791CHOL    R175682  25.277  17.745  13.832
 5791CHOL    R275683  25.135  17.828  13.666
 5791CHOL    R375684  25.121  17.664  13.794
 5791CHOL    R475685  25.014  17.765  13.637
 5791CHOL    R575686  24.982  17.591  13.761
 5791CHOL    C175687  24.774  17.483  13.711
 5791CHOL    C275688  24.565  17.375  13.661
 5792CHOL   ROH75689   1.999   8.000  -5.995
 5792CHOL    R175690   2.070   8.016  -5.852
 5792CHOL    R275691   2.086   7.836  -5.706
 5792CHOL    R375692   2.150   8.034  -5.692
 5792CHOL    R475693   2.148   7.850  -5.581
 5792CHOL    R575694   2.221   8.050  -5.550
 5792CHOL    C175695   2.327   8.074  -5.336
 5792CHOL    C275696   2.433   8.098  -5.122
 5793CHOL   ROH75697  -2.876   7.704  22.253
 5793CHOL    R175698  -2.762   7.724  22.142
 5793CHOL    R275699  -2.575   7.856  22.185
 5793CHOL    R375700  -2.635   7.747  22.017
 5793CHOL    R475701  -2.476   7.874  22.088
 5793CHOL    R575702  -2.521   7.767  21.907
 5793CHOL    C175703  -2.351   7.797  21.740
 5793CHOL    C275704  -2.180   7.827  21.574
 5794CHOL   ROH75705  22.658  20.407  16.592
 5794CHOL    R175706  22.547  20.308  16.533
 5794CHOL    R275707  22.571  20.213  16.321
 5794CHOL    R375708  22.421  20.198  16.466
 5794CHOL    R475709  22.474  20.127  16.270
 5794CHOL    R575710  22.310  20.099  16.407
 5794CHOL    C175711  22.143  19.951  16.318
 5794CHOL    C275712  21.976  19.803  16.229
 5795CHOL   ROH75713  -2.288  10.544  23.000
 5795CHOL    R175714  -2.176  10.540  22.885
 5795CHOL    R275715  -2.002  10.386  22.893
 5795CHOL    R375716  -2.051  10.536  22.757
 5795CHOL    R475717  -1.904  10.383  22.793
 5795CHOL    R575718  -1.939  10.532  22.642
 5795CHOL    C175719  -1.771  10.526  22.470
 5795CHOL    C275720  -1.604  10.520  22.298
 5796CHOL   ROH75721  -0.407  20.362  -0.404
 5796CHOL    R175722  -0.315  20.267  -0.314
 5796CHOL    R275723  -0.083  20.265  -0.341
 5796CHOL    R375724  -0.211  20.161  -0.212
 5796CHOL    R475725  -0.002  20.182  -0.262
 5796CHOL    R575726  -0.119  20.066  -0.122
 5796CHOL    C175727   0.020  19.925   0.013
 5796CHOL    C275728   0.158  19.783   0.149
 5797CHOL   ROH75729  -5.148  17.096  16.568
 5797CHOL    R175730  -5.015  17.031  16.507
 5797CHOL    R275731  -4.896  16.868  16.624
 5797CHOL    R375732  -4.865  16.959  16.438
 5797CHOL    R475733  -4.779  16.812  16.570
 5797CHOL    R575734  -4.732  16.894  16.377
 5797CHOL    C175735  -4.533  16.797  16.285
 5797CHOL    C275736  -4.334  16.700  16.193
 5798CHOL   ROH75737   4.653  27.098  10.461
 5798CHOL    R175738   4.701  26.946  10.456
 5798CHOL    R275739   4.808  26.847  10.639
 5798CHOL    R375740   4.755  26.774  10.450
 5798CHOL    R475741   4.850  26.714  10.634
 5798CHOL    R575742   4.803  26.621  10.446
 5798CHOL    C175743   4.875  26.393  10.438
 5798CHOL    C275744   4.947  26.164  10.431
 5799CHOL   ROH75745  16.930  -1.171  -2.104
 5799CHOL    R175746  16.868  -1.069  -1.997
 5799CHOL    R275747  16.739  -0.888  -2.065
 5799CHOL    R375748  16.799  -0.955  -1.877
 5799CHOL    R475749  16.685  -0.798  -1.971
 5799CHOL    R575750  16.738  -0.853  -1.770
 5799CHOL    C175751  16.645  -0.700  -1.609
 5799CHOL    C275752  16.553  -0.548  -1.448
 5800CHOL   ROH75753  -2.641  13.791  22.087
 5800CHOL    R175754  -2.532  13.756  21.975
 5800CHOL    R275755  -2.407  13.559  21.986
 5800CHOL    R375756  -2.410  13.717  21.849
 5800CHOL    R475757  -2.312  13.529  21.888
 5800CHOL    R575758  -2.301  13.681  21.737
 5800CHOL    C175759  -2.138  13.629  21.569
 5800CHOL    C275760  -1.975  13.576  21.401
 5801CHOL   ROH75761   7.761   7.045  -7.525
 5801CHOL    R175762   7.778   7.073  -7.368
 5801CHOL    R275763   7.715   6.913  -7.211
 5801CHOL    R375764   7.797   7.104  -7.192
 5801CHOL    R475765   7.730   6.937  -7.074
 5801CHOL    R575766   7.814   7.132  -7.035
 5801CHOL    C175767   7.839   7.174  -6.801
 5801CHOL    C275768   7.865   7.216  -6.566
 5802CHOL   ROH75769   8.714  24.159  20.762
 5802CHOL    R175770   8.725  24.033  20.664
 5802CHOL    R275771   8.894  24.021  20.503
 5802CHOL    R375772   8.738  23.892  20.553
 5802CHOL    R475773   8.904  23.911  20.417
 5802CHOL    R575774   8.749  23.766  20.455
 5802CHOL    C175775   8.766  23.577  20.307
 5802CHOL    C275776   8.783  23.389  20.159
 5803CHOL   ROH75777   6.886  -5.645   1.878
 5803CHOL    R175778   6.912  -5.505   1.951
 5803CHOL    R275779   7.080  -5.484   2.112
 5803CHOL    R375780   6.941  -5.348   2.034
 5803CHOL    R475781   7.103  -5.362   2.176
 5803CHOL    R575782   6.967  -5.208   2.108
 5803CHOL    C175783   7.007  -4.999   2.218
 5803CHOL    C275784   7.046  -4.789   2.328
 5804CHOL   ROH75785   4.853   6.372  26.682
 5804CHOL    R175786   4.892   6.408  26.531
 5804CHOL    R275787   5.101   6.499  26.480
 5804CHOL    R375788   4.936   6.448  26.361
 5804CHOL    R475789   5.135   6.531  26.348
 5804CHOL    R575790   4.976   6.484  26.211
 5804CHOL    C175791   5.034   6.538  25.984
 5804CHOL    C275792   5.093   6.592  25.758
 5805CHOL   ROH75793  14.183  -7.378   9.838
 5805CHOL    R175794  14.143  -7.223   9.839
 5805CHOL    R275795  14.246  -7.073   9.984
 5805CHOL    R375796  14.097  -7.049   9.840
 5805CHOL    R475797  14.211  -6.938   9.985
 5805CHOL    R575798  14.057  -6.894   9.841
 5805CHOL    C175799  13.997  -6.662   9.842
 5805CHOL    C275800  13.936  -6.429   9.844
 5806CHOL   ROH75801  23.669   6.044  20.450
 5806CHOL    R175802  23.544   6.080  20.357
 5806CHOL    R275803  23.479   5.938  20.184
 5806CHOL    R375804  23.403   6.120  20.252
 5806CHOL    R475805  23.369   5.969  20.102
 5806CHOL    R575806  23.278   6.156  20.159
 5806CHOL    C175807  23.090   6.210  20.019
 5806CHOL    C275808  22.903   6.264  19.880
 5807CHOL   ROH75809   7.582   4.157  -6.768
 5807CHOL    R175810   7.598   4.208  -6.617
 5807CHOL    R275811   7.559   4.065  -6.437
 5807CHOL    R375812   7.617   4.265  -6.447
 5807CHOL    R475813   7.573   4.109  -6.305
 5807CHOL    R575814   7.633   4.316  -6.297
 5807CHOL    C175815   7.657   4.392  -6.070
 5807CHOL    C275816   7.682   4.468  -5.844
 5808CHOL   ROH75817  24.666   0.348   7.539
 5808CHOL    R175818  24.532   0.433   7.560
 5808CHOL    R275819  24.426   0.536   7.380
 5808CHOL    R375820  24.382   0.529   7.584
 5808CHOL    R475821  24.308   0.611   7.399
 5808CHOL    R575822  24.248   0.614   7.606
 5808CHOL    C175823  24.047   0.742   7.637
 5808CHOL    C275824  23.847   0.870   7.669
 5809CHOL   ROH75825  15.139  18.985  -4.556
 5809CHOL    R175826  15.093  18.906  -4.425
 5809CHOL    R275827  15.049  18.677  -4.432
 5809CHOL    R375828  15.041  18.817  -4.277
 5809CHOL    R475829  15.009  18.607  -4.317
 5809CHOL    R575830  14.995  18.737  -4.146
 5809CHOL    C175831  14.926  18.619  -3.949
 5809CHOL    C275832  14.857  18.500  -3.752
 5810CHOL   ROH75833  19.767  -1.418  19.402
 5810CHOL    R175834  19.679  -1.317  19.315
 5810CHOL    R275835  19.712  -1.086  19.329
 5810CHOL    R375836  19.579  -1.203  19.217
 5810CHOL    R475837  19.635  -0.998  19.253
 5810CHOL    R575838  19.491  -1.102  19.131
 5810CHOL    C175839  19.359  -0.950  19.000
 5810CHOL    C275840  19.226  -0.798  18.870
 5811CHOL   ROH75841  10.517  -5.972  17.990
 5811CHOL    R175842  10.513  -5.830  17.916
 5811CHOL    R275843  10.613  -5.801  17.708
 5811CHOL    R375844  10.509  -5.670  17.833
 5811CHOL    R475845  10.610  -5.676  17.643
 5811CHOL    R575846  10.505  -5.529  17.760
 5811CHOL    C175847  10.499  -5.316  17.649
 5811CHOL    C275848  10.493  -5.103  17.538
 5812CHOL   ROH75849  20.596  24.206   9.267
 5812CHOL    R175850  20.506  24.074   9.274
 5812CHOL    R275851  20.359  24.020   9.101
 5812CHOL    R375852  20.405  23.925   9.281
 5812CHOL    R475853  20.281  23.904   9.106
 5812CHOL    R575854  20.315  23.792   9.288
 5812CHOL    C175855  20.181  23.594   9.297
 5812CHOL    C275856  20.046  23.396   9.307
 5813CHOL   ROH75857   2.218  23.604  18.611
 5813CHOL    R175858   2.286  23.480  18.536
 5813CHOL    R275859   2.512  23.482  18.481
 5813CHOL    R375860   2.361  23.341  18.451
 5813CHOL    R475861   2.571  23.374  18.415
 5813CHOL    R575862   2.429  23.217  18.376
 5813CHOL    C175863   2.530  23.031  18.262
 5813CHOL    C275864   2.632  22.845  18.149
 5814CHOL   ROH75865  22.130  22.893   8.229
 5814CHOL    R175866  22.021  22.777   8.245
 5814CHOL    R275867  21.853  22.748   8.085
 5814CHOL    R375868  21.898  22.647   8.262
 5814CHOL    R475869  21.757  22.647   8.099
 5814CHOL    R575870  21.789  22.531   8.278
 5814CHOL    C175871  21.625  22.357   8.302
 5814CHOL    C275872  21.461  22.183   8.325
 5815CHOL   ROH75873  -5.602  14.217   2.119
 5815CHOL    R175874  -5.462  14.176   2.184
 5815CHOL    R275875  -5.429  14.187   2.415
 5815CHOL    R375876  -5.304  14.130   2.257
 5815CHOL    R475877  -5.306  14.151   2.472
 5815CHOL    R575878  -5.164  14.090   2.322
 5815CHOL    C175879  -4.953  14.028   2.420
 5815CHOL    C275880  -4.743  13.967   2.518
 5816CHOL   ROH75881  14.773  -0.662  23.361
 5816CHOL    R175882  14.731  -0.563  23.242
 5816CHOL    R275883  14.779  -0.616  23.020
 5816CHOL    R375884  14.684  -0.452  23.109
 5816CHOL    R475885  14.742  -0.529  22.916
 5816CHOL    R575886  14.642  -0.353  22.990
 5816CHOL    C175887  14.580  -0.205  22.812
 5816CHOL    C275888  14.517  -0.056  22.634
 5817CHOL   ROH75889  -3.679  11.642  21.397
 5817CHOL    R175890  -3.555  11.630  21.296
 5817CHOL    R275891  -3.350  11.545  21.367
 5817CHOL    R375892  -3.417  11.616  21.182
 5817CHOL    R475893  -3.242  11.534  21.279
 5817CHOL    R575894  -3.293  11.604  21.081
 5817CHOL    C175895  -3.108  11.586  20.930
 5817CHOL    C275896  -2.922  11.568  20.779
 5818CHOL   ROH75897   1.435  -2.951   0.956
 5818CHOL    R175898   1.511  -2.840   1.043
 5818CHOL    R275899   1.743  -2.824   1.041
 5818CHOL    R375900   1.595  -2.715   1.141
 5818CHOL    R475901   1.809  -2.727   1.117
 5818CHOL    R575902   1.671  -2.603   1.228
 5818CHOL    C175903   1.784  -2.437   1.358
 5818CHOL    C275904   1.898  -2.270   1.488
 5819CHOL   ROH75905  19.063   7.551  -5.116
 5819CHOL    R175906  18.983   7.574  -4.980
 5819CHOL    R275907  18.879   7.778  -4.934
 5819CHOL    R375908  18.892   7.600  -4.826
 5819CHOL    R475909  18.809   7.798  -4.815
 5819CHOL    R575910  18.812   7.623  -4.690
 5819CHOL    C175911  18.692   7.658  -4.485
 5819CHOL    C275912  18.571   7.692  -4.280
 5820CHOL   ROH75913  15.319  25.385   2.836
 5820CHOL    R175914  15.273  25.244   2.896
 5820CHOL    R275915  15.429  25.086   2.966
 5820CHOL    R375916  15.221  25.086   2.965
 5820CHOL    R475917  15.389  24.963   3.019
 5820CHOL    R575918  15.175  24.945   3.025
 5820CHOL    C175919  15.105  24.734   3.116
 5820CHOL    C275920  15.036  24.523   3.206
 5821CHOL   ROH75921  -5.172   2.693  16.217
 5821CHOL    R175922  -5.036   2.761  16.165
 5821CHOL    R275923  -4.925   2.919  16.295
 5821CHOL    R375924  -4.884   2.837  16.108
 5821CHOL    R475925  -4.806   2.978  16.250
 5821CHOL    R575926  -4.749   2.905  16.056
 5821CHOL    C175927  -4.545   3.007  15.979
 5821CHOL    C275928  -4.342   3.109  15.901
 5822CHOL   ROH75929   8.916  26.438   2.951
 5822CHOL    R175930   8.924  26.290   3.012
 5822CHOL    R275931   9.107  26.223   3.139
 5822CHOL    R375932   8.932  26.125   3.082
 5822CHOL    R475933   9.114  26.094   3.193
 5822CHOL    R575934   8.940  25.977   3.143
 5822CHOL    C175935   8.952  25.756   3.235
 5822CHOL    C275936   8.963  25.534   3.327
 5823CHOL   ROH75937  27.172  14.391  10.311
 5823CHOL    R175938  27.017  14.353  10.305
 5823CHOL    R275939  26.928  14.237  10.123
 5823CHOL    R375940  26.842  14.310  10.299
 5823CHOL    R475941  26.792  14.204  10.118
 5823CHOL    R575942  26.687  14.272  10.293
 5823CHOL    C175943  26.453  14.216  10.284
 5823CHOL    C275944  26.220  14.159  10.276
 5824CHOL   ROH75945   8.617   4.311  26.754
 5824CHOL    R175946   8.632   4.364  26.604
 5824CHOL    R275947   8.687   4.219  26.430
 5824CHOL    R375948   8.648   4.424  26.435
 5824CHOL    R475949   8.699   4.266  26.299
 5824CHOL    R575950   8.662   4.478  26.285
 5824CHOL    C175951   8.684   4.557  26.060
 5824CHOL    C275952   8.706   4.637  25.835
 5825CHOL   ROH75953   1.297   6.798  25.302
 5825CHOL    R175954   1.375   6.831  25.166
 5825CHOL    R275955   1.514   6.673  25.066
 5825CHOL    R375956   1.463   6.869  25.014
 5825CHOL    R475957   1.582   6.703  24.947
 5825CHOL    R575958   1.542   6.903  24.878
 5825CHOL    C175959   1.659   6.953  24.675
 5825CHOL    C275960   1.776   7.003  24.472
 5826CHOL   ROH75961   2.095  -3.407  18.846
 5826CHOL    R175962   2.165  -3.287  18.767
 5826CHOL    R275963   2.392  -3.240  18.796
 5826CHOL    R375964   2.244  -3.151  18.678
 5826CHOL    R475965   2.453  -3.135  18.727
 5826CHOL    R575966   2.314  -3.031  18.600
 5826CHOL    C175967   2.419  -2.851  18.481
 5826CHOL    C275968   2.524  -2.670  18.363
 5827CHOL   ROH75969  -5.278   0.603  11.276
 5827CHOL    R175970  -5.141   0.685  11.263
 5827CHOL    R275971  -4.942   0.601  11.350
 5827CHOL    R375972  -4.988   0.778  11.248
 5827CHOL    R475973  -4.822   0.673  11.338
 5827CHOL    R575974  -4.851   0.860  11.235
 5827CHOL    C175975  -4.646   0.983  11.215
 5827CHOL    C275976  -4.441   1.107  11.196
 5828CHOL   ROH75977  21.237  22.455  15.431
 5828CHOL    R175978  21.134  22.344  15.379
 5828CHOL    R275979  21.147  22.124  15.456
 5828CHOL    R375980  21.019  22.218  15.321
 5828CHOL    R475981  21.057  22.026  15.411
 5828CHOL    R575982  20.917  22.107  15.269
 5828CHOL    C175983  20.763  21.940  15.191
 5828CHOL    C275984  20.609  21.773  15.113
 5829CHOL   ROH75985   4.858  25.342   2.280
 5829CHOL    R175986   4.904  25.207   2.352
 5829CHOL    R275987   5.047  25.212   2.536
 5829CHOL    R375988   4.955  25.055   2.434
 5829CHOL    R475989   5.087  25.093   2.600
 5829CHOL    R575990   5.001  24.920   2.506
 5829CHOL    C175991   5.070  24.717   2.614
 5829CHOL    C275992   5.138  24.514   2.723
 5830CHOL   ROH75993  10.537   4.075  -6.855
 5830CHOL    R175994  10.533   4.126  -6.703
 5830CHOL    R275995  10.546   4.353  -6.653
 5830CHOL    R375996  10.530   4.183  -6.533
 5830CHOL    R475997  10.543   4.398  -6.520
 5830CHOL    R575998  10.526   4.234  -6.381
 5830CHOL    C175999  10.521   4.310  -6.153
 5830CHOL    C276000  10.515   4.387  -5.926
 5831CHOL   ROH76001  -1.445  23.789  10.503
 5831CHOL    R176002  -1.344  23.665  10.503
 5831CHOL    R276003  -1.176  23.647  10.664
 5831CHOL    R376004  -1.231  23.525  10.504
 5831CHOL    R476005  -1.088  23.539  10.664
 5831CHOL    R576006  -1.130  23.400  10.505
 5831CHOL    C176007  -0.980  23.214  10.505
 5831CHOL    C276008  -0.829  23.028  10.506
 5832CHOL   ROH76009  -2.486  19.186  18.982
 5832CHOL    R176010  -2.376  19.103  18.901
 5832CHOL    R276011  -2.232  19.209  18.750
 5832CHOL    R376012  -2.252  19.010  18.810
 5832CHOL    R476013  -2.136  19.137  18.679
 5832CHOL    R576014  -2.141  18.927  18.728
 5832CHOL    C176015  -1.976  18.803  18.607
 5832CHOL    C276016  -1.811  18.678  18.485
 5833CHOL   ROH76017  22.284  -2.847   9.551
 5833CHOL    R176018  22.172  -2.732   9.555
 5833CHOL    R276019  22.215  -2.527   9.657
 5833CHOL    R376020  22.047  -2.603   9.558
 5833CHOL    R476021  22.117  -2.427   9.660
 5833CHOL    R576022  21.935  -2.489   9.562
 5833CHOL    C176023  21.768  -2.316   9.567
 5833CHOL    C276024  21.601  -2.144   9.573
 5834CHOL   ROH76025   3.943  23.228  20.325
 5834CHOL    R176026   3.994  23.110  20.230
 5834CHOL    R276027   4.156  23.149  20.067
 5834CHOL    R376028   4.052  22.977  20.123
 5834CHOL    R476029   4.201  23.045  19.984
 5834CHOL    R576030   4.103  22.859  20.028
 5834CHOL    C176031   4.180  22.681  19.886
 5834CHOL    C276032   4.257  22.504  19.744
 5835CHOL   ROH76033   3.403   9.122  26.575
 5835CHOL    R176034   3.456   9.124  26.424
 5835CHOL    R276035   3.634   8.988  26.358
 5835CHOL    R376036   3.516   9.126  26.254
 5835CHOL    R476037   3.680   8.990  26.226
 5835CHOL    R576038   3.569   9.128  26.103
 5835CHOL    C176039   3.649   9.131  25.877
 5835CHOL    C276040   3.728   9.134  25.651
 5836CHOL   ROH76041  14.804  -6.658  14.076
 5836CHOL    R176042  14.759  -6.510  14.037
 5836CHOL    R276043  14.873  -6.388  13.875
 5836CHOL    R376044  14.708  -6.342  13.994
 5836CHOL    R476045  14.833  -6.258  13.841
 5836CHOL    R576046  14.662  -6.194  13.955
 5836CHOL    C176047  14.595  -5.971  13.898
 5836CHOL    C276048  14.527  -5.749  13.840
 5837CHOL   ROH76049  26.430   4.976   5.549
 5837CHOL    R176050  26.281   5.020   5.587
 5837CHOL    R276051  26.102   4.972   5.446
 5837CHOL    R376052  26.113   5.070   5.630
 5837CHOL    R476053  25.971   5.011   5.480
 5837CHOL    R576054  25.965   5.114   5.668
 5837CHOL    C176055  25.741   5.181   5.726
 5837CHOL    C276056  25.518   5.247   5.783
 5838CHOL   ROH76057  27.620   9.752  10.763
 5838CHOL    R176058  27.460   9.754  10.756
 5838CHOL    R276059  27.348   9.861  10.582
 5838CHOL    R376060  27.280   9.756  10.749
 5838CHOL    R476061  27.209   9.862  10.576
 5838CHOL    R576062  27.120   9.758  10.743
 5838CHOL    C176063  26.881   9.761  10.733
 5838CHOL    C276064  26.641   9.764  10.723
 5839CHOL   ROH76065   2.247  24.808  16.255
 5839CHOL    R176066   2.317  24.675  16.200
 5839CHOL    R276067   2.542  24.631  16.244
 5839CHOL    R376068   2.397  24.526  16.137
 5839CHOL    R476069   2.604  24.515  16.195
 5839CHOL    R576070   2.467  24.393  16.082
 5839CHOL    C176071   2.573  24.195  15.999
 5839CHOL    C276072   2.678  23.996  15.916
 5840CHOL   ROH76073  -5.105  19.132   6.396
 5840CHOL    R176074  -4.970  19.054   6.432
 5840CHOL    R276075  -4.966  18.893   6.600
 5840CHOL    R376076  -4.818  18.966   6.472
 5840CHOL    R476077  -4.848  18.824   6.631
 5840CHOL    R576078  -4.683  18.888   6.507
 5840CHOL    C176079  -4.480  18.771   6.561
 5840CHOL    C276080  -4.278  18.654   6.615
 5841CHOL   ROH76081  12.075   7.170  27.430
 5841CHOL    R176082  12.051   7.195  27.274
 5841CHOL    R276083  12.050   7.412  27.186
 5841CHOL    R376084  12.023   7.224  27.098
 5841CHOL    R476085  12.029   7.434  27.049
 5841CHOL    R576086  11.999   7.249  26.942
 5841CHOL    C176087  11.963   7.288  26.708
 5841CHOL    C276088  11.926   7.326  26.474
 5842CHOL   ROH76089   2.794   6.836  26.067
 5842CHOL    R176090   2.857   6.868  25.923
 5842CHOL    R276091   2.978   6.706  25.807
 5842CHOL    R376092   2.928   6.903  25.762
 5842CHOL    R476093   3.033   6.734  25.682
 5842CHOL    R576094   2.991   6.935  25.618
 5842CHOL    C176095   3.085   6.983  25.402
 5842CHOL    C276096   3.179   7.030  25.187
 5843CHOL   ROH76097  23.785  -1.019  12.024
 5843CHOL    R176098  23.661  -0.921  12.001
 5843CHOL    R276099  23.680  -0.692  12.044
 5843CHOL    R376100  23.521  -0.810  11.975
 5843CHOL    R476101  23.571  -0.606  12.024
 5843CHOL    R576102  23.397  -0.711  11.952
 5843CHOL    C176103  23.211  -0.564  11.918
 5843CHOL    C276104  23.025  -0.416  11.884
 5844CHOL   ROH76105  -6.038  18.130  10.697
 5844CHOL    R176106  -5.895  18.058  10.688
 5844CHOL    R276107  -5.834  17.894  10.842
 5844CHOL    R376108  -5.734  17.978  10.679
 5844CHOL    R476109  -5.709  17.831  10.834
 5844CHOL    R576110  -5.591  17.907  10.670
 5844CHOL    C176111  -5.377  17.799  10.657
 5844CHOL    C276112  -5.163  17.692  10.644
 5845CHOL   ROH76113   8.905   4.502  -6.978
 5845CHOL    R176114   8.911   4.550  -6.826
 5845CHOL    R276115   9.115   4.565  -6.713
 5845CHOL    R376116   8.919   4.604  -6.654
 5845CHOL    R476117   9.121   4.607  -6.580
 5845CHOL    R576118   8.925   4.652  -6.502
 5845CHOL    C176119   8.935   4.724  -6.273
 5845CHOL    C276120   8.944   4.796  -6.044
 5846CHOL   ROH76121   4.764  23.818  -0.072
 5846CHOL    R176122   4.808  23.694   0.018
 5846CHOL    R276123   4.915  23.726   0.223
 5846CHOL    R376124   4.858  23.553   0.120
 5846CHOL    R476125   4.954  23.617   0.302
 5846CHOL    R576126   4.902  23.429   0.211
 5846CHOL    C176127   4.968  23.242   0.346
 5846CHOL    C276128   5.034  23.056   0.482
 5847CHOL   ROH76129   4.119  18.219  24.760
 5847CHOL    R176130   4.171  18.143  24.629
 5847CHOL    R276131   4.271  17.933  24.645
 5847CHOL    R376132   4.230  18.057  24.483
 5847CHOL    R476133   4.317  17.866  24.531
 5847CHOL    R576134   4.282  17.981  24.352
 5847CHOL    C176135   4.361  17.866  24.156
 5847CHOL    C276136   4.439  17.752  23.960
 5848CHOL   ROH76137   6.784   2.684  -6.100
 5848CHOL    R176138   6.808   2.747  -5.955
 5848CHOL    R276139   6.899   2.619  -5.782
 5848CHOL    R376140   6.835   2.818  -5.792
 5848CHOL    R476141   6.919   2.674  -5.655
 5848CHOL    R576142   6.858   2.881  -5.647
 5848CHOL    C176143   6.894   2.976  -5.429
 5848CHOL    C276144   6.930   3.070  -5.211
 5849CHOL   ROH76145  18.304   2.242  -3.786
 5849CHOL    R176146  18.224   2.306  -3.663
 5849CHOL    R276147  18.329   2.454  -3.516
 5849CHOL    R376148  18.134   2.379  -3.525
 5849CHOL    R476149  18.259   2.510  -3.409
 5849CHOL    R576150  18.054   2.444  -3.403
 5849CHOL    C176151  17.935   2.540  -3.218
 5849CHOL    C276152  17.815   2.637  -3.034
 5850CHOL   ROH76153  24.803   5.067   1.398
 5850CHOL    R176154  24.669   5.110   1.475
 5850CHOL    R276155  24.481   5.182   1.358
 5850CHOL    R376156  24.519   5.157   1.562
 5850CHOL    R476157  24.364   5.220   1.425
 5850CHOL    R576158  24.385   5.200   1.639
 5850CHOL    C176159  24.185   5.264   1.755
 5850CHOL    C276160  23.985   5.328   1.870
 5851CHOL   ROH76161  -1.711  13.259  -3.219
 5851CHOL    R176162  -1.609  13.234  -3.098
 5851CHOL    R276163  -1.626  13.356  -2.900
 5851CHOL    R376164  -1.495  13.206  -2.962
 5851CHOL    R476165  -1.537  13.334  -2.794
 5851CHOL    R576166  -1.393  13.181  -2.841
 5851CHOL    C176167  -1.240  13.144  -2.660
 5851CHOL    C276168  -1.088  13.106  -2.478
 5852CHOL   ROH76169  18.888  18.419  22.782
 5852CHOL    R176170  18.804  18.349  22.666
 5852CHOL    R276171  18.893  18.324  22.451
 5852CHOL    R376172  18.710  18.269  22.534
 5852CHOL    R476173  18.820  18.263  22.349
 5852CHOL    R576174  18.626  18.199  22.418
 5852CHOL    C176175  18.500  18.093  22.243
 5852CHOL    C276176  18.374  17.988  22.069
 5853CHOL   ROH76177   7.565  -7.478  12.814
 5853CHOL    R176178   7.585  -7.321  12.791
 5853CHOL    R276179   7.684  -7.188  12.955
 5853CHOL    R376180   7.607  -7.144  12.766
 5853CHOL    R476181   7.702  -7.050  12.936
 5853CHOL    R576182   7.627  -6.987  12.743
 5853CHOL    C176183   7.657  -6.751  12.710
 5853CHOL    C276184   7.687  -6.516  12.676
 5854CHOL   ROH76185  25.709   6.589   2.394
 5854CHOL    R176186  25.566   6.616   2.461
 5854CHOL    R276187  25.392   6.711   2.339
 5854CHOL    R376188  25.406   6.646   2.537
 5854CHOL    R476189  25.268   6.735   2.398
 5854CHOL    R576190  25.264   6.674   2.604
 5854CHOL    C176191  25.050   6.714   2.705
 5854CHOL    C276192  24.836   6.755   2.806
 5855CHOL   ROH76193  15.114  15.250  26.172
 5855CHOL    R176194  15.073  15.198  26.026
 5855CHOL    R276195  15.094  15.337  25.840
 5855CHOL    R376196  15.027  15.140  25.862
 5855CHOL    R476197  15.059  15.292  25.712
 5855CHOL    R576198  14.987  15.088  25.716
 5855CHOL    C176199  14.925  15.011  25.498
 5855CHOL    C276200  14.864  14.933  25.279
 5856CHOL   ROH76201  18.102  -3.618   1.847
 5856CHOL    R176202  18.028  -3.494   1.917
 5856CHOL    R276203  18.110  -3.402   2.115
 5856CHOL    R376204  17.945  -3.356   1.996
 5856CHOL    R476205  18.045  -3.294   2.176
 5856CHOL    R576206  17.871  -3.232   2.066
 5856CHOL    C176207  17.759  -3.047   2.170
 5856CHOL    C276208  17.648  -2.861   2.275
 5857CHOL   ROH76209  27.062  13.005  13.474
 5857CHOL    R176210  26.908  12.979  13.442
 5857CHOL    R276211  26.767  13.153  13.378
 5857CHOL    R376212  26.734  12.949  13.405
 5857CHOL    R476213  26.631  13.130  13.350
 5857CHOL    R576214  26.579  12.923  13.373
 5857CHOL    C176215  26.348  12.883  13.325
 5857CHOL    C276216  26.116  12.843  13.276
 5858CHOL   ROH76217   8.702  -7.795   9.794
 5858CHOL    R176218   8.712  -7.635   9.796
 5858CHOL    R276219   8.904  -7.527   9.719
 5858CHOL    R376220   8.724  -7.456   9.798
 5858CHOL    R476221   8.913  -7.387   9.720
 5858CHOL    R576222   8.734  -7.296   9.800
 5858CHOL    C176223   8.750  -7.056   9.802
 5858CHOL    C276224   8.766  -6.817   9.805
 5859CHOL   ROH76225  -1.428  23.762   9.414
 5859CHOL    R176226  -1.329  23.636   9.423
 5859CHOL    R276227  -1.170  23.621   9.593
 5859CHOL    R376228  -1.219  23.495   9.433
 5859CHOL    R476229  -1.084  23.510   9.601
 5859CHOL    R576230  -1.120  23.369   9.443
 5859CHOL    C176231  -0.972  23.180   9.456
 5859CHOL    C276232  -0.824  22.992   9.470
 5860CHOL   ROH76233  -4.340  15.405   0.488
 5860CHOL    R176234  -4.211  15.353   0.566
 5860CHOL    R276235  -4.033  15.497   0.614
 5860CHOL    R376236  -4.065  15.294   0.655
 5860CHOL    R476237  -3.920  15.451   0.683
 5860CHOL    R576238  -3.936  15.242   0.733
 5860CHOL    C176239  -3.741  15.164   0.851
 5860CHOL    C276240  -3.547  15.086   0.968
 5861CHOL   ROH76241  -1.670   7.331  -3.428
 5861CHOL    R176242  -1.566   7.351  -3.308
 5861CHOL    R276243  -1.533   7.184  -3.149
 5861CHOL    R376244  -1.449   7.374  -3.173
 5861CHOL    R476245  -1.442   7.202  -3.044
 5861CHOL    R576246  -1.345   7.394  -3.053
 5861CHOL    C176247  -1.188   7.424  -2.874
 5861CHOL    C276248  -1.032   7.454  -2.694
 5862CHOL   ROH76249  18.946  -4.322  15.519
 5862CHOL    R176250  18.863  -4.194  15.471
 5862CHOL    R276251  18.916  -4.084  15.272
 5862CHOL    R376252  18.769  -4.051  15.416
 5862CHOL    R476253  18.843  -3.972  15.230
 5862CHOL    R576254  18.686  -3.923  15.368
 5862CHOL    C176255  18.560  -3.731  15.296
 5862CHOL    C276256  18.435  -3.540  15.223
 5863CHOL   ROH76257  22.500  17.787  -0.019
 5863CHOL    R176258  22.386  17.715   0.068
 5863CHOL    R276259  22.260  17.541  -0.021
 5863CHOL    R376260  22.258  17.635   0.165
 5863CHOL    R476261  22.160  17.478   0.055
 5863CHOL    R576262  22.145  17.563   0.252
 5863CHOL    C176263  21.974  17.455   0.382
 5863CHOL    C276264  21.803  17.348   0.512
 5864CHOL   ROH76265  16.890  25.409   4.400
 5864CHOL    R176266  16.831  25.269   4.449
 5864CHOL    R276267  16.904  25.068   4.355
 5864CHOL    R376268  16.765  25.111   4.505
 5864CHOL    R476269  16.853  24.945   4.399
 5864CHOL    R576270  16.707  24.971   4.554
 5864CHOL    C176271  16.618  24.760   4.629
 5864CHOL    C276272  16.530  24.550   4.703
 5865CHOL   ROH76273   0.763  25.285   9.627
 5865CHOL    R176274   0.846  25.148   9.635
 5865CHOL    R276275   1.029  25.111   9.495
 5865CHOL    R376276   0.939  24.995   9.643
 5865CHOL    R476277   1.101  24.991   9.501
 5865CHOL    R576278   1.022  24.858   9.651
 5865CHOL    C176279   1.146  24.653   9.663
 5865CHOL    C276280   1.271  24.448   9.674
 5866CHOL   ROH76281   8.575  27.596  12.646
 5866CHOL    R176282   8.583  27.438  12.623
 5866CHOL    R276283   8.626  27.293  12.801
 5866CHOL    R376284   8.591  27.260  12.598
 5866CHOL    R476285   8.632  27.155  12.781
 5866CHOL    R576286   8.599  27.101  12.575
 5866CHOL    C176287   8.611  26.864  12.541
 5866CHOL    C276288   8.622  26.627  12.507
 5867CHOL   ROH76289  12.530  27.577  11.309
 5867CHOL    R176290  12.509  27.419  11.296
 5867CHOL    R276291  12.691  27.274  11.280
 5867CHOL    R376292  12.485  27.241  11.282
 5867CHOL    R476293  12.672  27.136  11.269
 5867CHOL    R576294  12.464  27.083  11.269
 5867CHOL    C176295  12.432  26.846  11.250
 5867CHOL    C276296  12.400  26.609  11.231
 5868CHOL   ROH76297  23.746  -0.001  15.028
 5868CHOL    R176298  23.623   0.091  14.985
 5868CHOL    R276299  23.547   0.095  14.764
 5868CHOL    R376300  23.484   0.195  14.936
 5868CHOL    R476301  23.439   0.176  14.726
 5868CHOL    R576302  23.360   0.287  14.893
 5868CHOL    C176303  23.175   0.426  14.828
 5868CHOL    C276304  22.990   0.564  14.763
 5869CHOL   ROH76305  21.795  -0.910   2.304
 5869CHOL    R176306  21.688  -0.813   2.374
 5869CHOL    R276307  21.748  -0.599   2.444
 5869CHOL    R376308  21.568  -0.705   2.452
 5869CHOL    R476309  21.655  -0.515   2.505
 5869CHOL    R576310  21.462  -0.608   2.522
 5869CHOL    C176311  21.301  -0.463   2.626
 5869CHOL    C276312  21.141  -0.318   2.730
 5870CHOL   ROH76313   6.551  -2.983  21.761
 5870CHOL    R176314   6.581  -2.867  21.655
 5870CHOL    R276315   6.668  -2.917  21.444
 5870CHOL    R376316   6.615  -2.737  21.536
 5870CHOL    R476317   6.695  -2.815  21.352
 5870CHOL    R576318   6.645  -2.621  21.430
 5870CHOL    C176319   6.691  -2.447  21.271
 5870CHOL    C276320   6.736  -2.273  21.112
 5871CHOL   ROH76321   6.819   8.044  27.399
 5871CHOL    R176322   6.846   8.061  27.242
 5871CHOL    R276323   7.061   8.042  27.155
 5871CHOL    R376324   6.876   8.079  27.066
 5871CHOL    R476325   7.085   8.056  27.017
 5871CHOL    R576326   6.903   8.096  26.909
 5871CHOL    C176327   6.943   8.121  26.674
 5871CHOL    C276328   6.984   8.146  26.439
 5872CHOL   ROH76329  -8.030   9.664  10.036
 5872CHOL    R176330  -7.870   9.667  10.034
 5872CHOL    R276331  -7.751   9.830  10.150
 5872CHOL    R376332  -7.690   9.670  10.031
 5872CHOL    R476333  -7.611   9.833  10.148
 5872CHOL    R576334  -7.530   9.673  10.029
 5872CHOL    C176335  -7.290   9.677  10.026
 5872CHOL    C276336  -7.050   9.682  10.022
 5873CHOL   ROH76337   6.605  -7.529  10.928
 5873CHOL    R176338   6.632  -7.372  10.920
 5873CHOL    R276339   6.753  -7.262  11.087
 5873CHOL    R376340   6.663  -7.194  10.911
 5873CHOL    R476341   6.777  -7.124  11.079
 5873CHOL    R576342   6.690  -7.037  10.903
 5873CHOL    C176343   6.731  -6.801  10.890
 5873CHOL    C276344   6.772  -6.565  10.878
 5874CHOL   ROH76345  -6.980  15.871   8.805
 5874CHOL    R176346  -6.829  15.819   8.815
 5874CHOL    R276347  -6.650  15.965   8.788
 5874CHOL    R376348  -6.659  15.760   8.827
 5874CHOL    R476349  -6.518  15.919   8.796
 5874CHOL    R576350  -6.509  15.708   8.837
 5874CHOL    C176351  -6.282  15.630   8.852
 5874CHOL    C276352  -6.056  15.552   8.868
 5875CHOL   ROH76353   6.473  10.249  -7.587
 5875CHOL    R176354   6.503  10.247  -7.430
 5875CHOL    R276355   6.447  10.429  -7.295
 5875CHOL    R376356   6.537  10.246  -7.253
 5875CHOL    R476357   6.473  10.428  -7.158
 5875CHOL    R576358   6.567  10.244  -7.096
 5875CHOL    C176359   6.611  10.242  -6.860
 5875CHOL    C276360   6.656  10.239  -6.625
 5876CHOL   ROH76361   4.385   9.371  -7.057
 5876CHOL    R176362   4.433   9.376  -6.905
 5876CHOL    R276363   4.487   9.181  -6.789
 5876CHOL    R376364   4.487   9.382  -6.733
 5876CHOL    R476365   4.529   9.185  -6.656
 5876CHOL    R576366   4.535   9.387  -6.580
 5876CHOL    C176367   4.607   9.395  -6.352
 5876CHOL    C276368   4.679   9.402  -6.123
 5877CHOL   ROH76369   3.839  21.755  -2.117
 5877CHOL    R176370   3.890  21.645  -2.012
 5877CHOL    R276371   4.056  21.492  -2.070
 5877CHOL    R376372   3.947  21.522  -1.894
 5877CHOL    R476373   4.101  21.396  -1.978
 5877CHOL    R576374   3.998  21.412  -1.790
 5877CHOL    C176375   4.074  21.247  -1.632
 5877CHOL    C276376   4.151  21.083  -1.475
 5878CHOL   ROH76377  10.458  25.737   1.502
 5878CHOL    R176378  10.451  25.596   1.578
 5878CHOL    R276379  10.582  25.416   1.510
 5878CHOL    R376380  10.443  25.438   1.663
 5878CHOL    R476381  10.576  25.293   1.576
 5878CHOL    R576382  10.436  25.297   1.739
 5878CHOL    C176383  10.425  25.087   1.853
 5878CHOL    C276384  10.414  24.876   1.967
 5879CHOL   ROH76385  12.599  17.468  -6.010
 5879CHOL    R176386  12.574  17.401  -5.867
 5879CHOL    R276387  12.737  17.268  -5.767
 5879CHOL    R376388  12.546  17.327  -5.705
 5879CHOL    R476389  12.715  17.209  -5.641
 5879CHOL    R576390  12.522  17.260  -5.562
 5879CHOL    C176391  12.484  17.160  -5.347
 5879CHOL    C276392  12.447  17.060  -5.132
 5880CHOL   ROH76393  26.976   4.964  10.773
 5880CHOL    R176394  26.823   5.008  10.764
 5880CHOL    R276395  26.715   5.026  10.558
 5880CHOL    R376396  26.650   5.059  10.753
 5880CHOL    R476397  26.581   5.065  10.549
 5880CHOL    R576398  26.497   5.103  10.744
 5880CHOL    C176399  26.266   5.170  10.730
 5880CHOL    C276400  26.036   5.236  10.716
 5881CHOL   ROH76401  10.686  15.922  -6.865
 5881CHOL    R176402  10.677  15.868  -6.715
 5881CHOL    R276403  10.835  15.720  -6.630
 5881CHOL    R376404  10.666  15.808  -6.545
 5881CHOL    R476405  10.827  15.673  -6.499
 5881CHOL    R576406  10.657  15.755  -6.395
 5881CHOL    C176407  10.643  15.674  -6.169
 5881CHOL    C276408  10.629  15.594  -5.944
 5882CHOL   ROH76409   7.568   7.252  27.411
 5882CHOL    R176410   7.589   7.276  27.254
 5882CHOL    R276411   7.799   7.248  27.156
 5882CHOL    R376412   7.613   7.303  27.078
 5882CHOL    R476413   7.817   7.269  27.019
 5882CHOL    R576414   7.634   7.327  26.921
 5882CHOL    C176415   7.666   7.364  26.686
 5882CHOL    C276416   7.698   7.400  26.451
 5883CHOL   ROH76417  18.414  -5.493  12.252
 5883CHOL    R176418  18.337  -5.354  12.231
 5883CHOL    R276419  18.455  -5.154  12.209
 5883CHOL    R376420  18.250  -5.198  12.208
 5883CHOL    R476421  18.387  -5.033  12.191
 5883CHOL    R576422  18.173  -5.059  12.188
 5883CHOL    C176423  18.058  -4.851  12.157
 5883CHOL    C276424  17.943  -4.643  12.126
 5884CHOL   ROH76425  12.450  -0.613  -4.168
 5884CHOL    R176426  12.427  -0.519  -4.041
 5884CHOL    R276427  12.576  -0.347  -3.990
 5884CHOL    R376428  12.401  -0.412  -3.898
 5884CHOL    R476429  12.556  -0.264  -3.879
 5884CHOL    R576430  12.378  -0.318  -3.770
 5884CHOL    C176431  12.343  -0.176  -3.580
 5884CHOL    C276432  12.309  -0.035  -3.389
 5885CHOL   ROH76433  -4.752  13.593  19.570
 5885CHOL    R176434  -4.621  13.564  19.483
 5885CHOL    R276435  -4.419  13.670  19.530
 5885CHOL    R376436  -4.474  13.531  19.384
 5885CHOL    R476437  -4.304  13.645  19.453
 5885CHOL    R576438  -4.343  13.502  19.297
 5885CHOL    C176439  -4.147  13.458  19.166
 5885CHOL    C276440  -3.950  13.415  19.035
 5886CHOL   ROH76441  23.141  21.453   6.746
 5886CHOL    R176442  23.018  21.356   6.778
 5886CHOL    R276443  23.009  21.140   6.689
 5886CHOL    R376444  22.880  21.246   6.813
 5886CHOL    R476445  22.902  21.055   6.716
 5886CHOL    R576446  22.757  21.149   6.845
 5886CHOL    C176447  22.572  21.003   6.893
 5886CHOL    C276448  22.387  20.857   6.940
 5887CHOL   ROH76449   6.632   8.432  -7.550
 5887CHOL    R176450   6.660   8.446  -7.393
 5887CHOL    R276451   6.519   8.347  -7.237
 5887CHOL    R376452   6.692   8.462  -7.217
 5887CHOL    R476453   6.544   8.359  -7.099
 5887CHOL    R576454   6.720   8.475  -7.060
 5887CHOL    C176455   6.763   8.496  -6.825
 5887CHOL    C276456   6.805   8.517  -6.590
 5888CHOL   ROH76457  -6.265  17.175   7.240
 5888CHOL    R176458  -6.120  17.113   7.269
 5888CHOL    R276459  -5.928  17.245   7.256
 5888CHOL    R376460  -5.958  17.044   7.303
 5888CHOL    R476461  -5.802  17.191   7.281
 5888CHOL    R576462  -5.813  16.982   7.332
 5888CHOL    C176463  -5.596  16.889   7.376
 5888CHOL    C276464  -5.379  16.797   7.420
 5889CHOL   ROH76465   7.638   3.459  -6.526
 5889CHOL    R176466   7.654   3.515  -6.377
 5889CHOL    R276467   7.840   3.642  -6.315
 5889CHOL    R376468   7.671   3.578  -6.209
 5889CHOL    R476469   7.853   3.691  -6.185
 5889CHOL    R576470   7.687   3.634  -6.060
 5889CHOL    C176471   7.710   3.719  -5.837
 5889CHOL    C276472   7.733   3.803  -5.614
 5890CHOL   ROH76473  11.579   4.147  -6.825
 5890CHOL    R176474  11.566   4.198  -6.674
 5890CHOL    R276475  11.640   4.411  -6.612
 5890CHOL    R376476  11.552   4.255  -6.504
 5890CHOL    R476477  11.629   4.455  -6.480
 5890CHOL    R576478  11.539   4.307  -6.353
 5890CHOL    C176479  11.521   4.383  -6.126
 5890CHOL    C276480  11.502   4.460  -5.899
 5891CHOL   ROH76481   3.320  13.673  26.108
 5891CHOL    R176482   3.376  13.645  25.961
 5891CHOL    R276483   3.504  13.805  25.849
 5891CHOL    R376484   3.438  13.614  25.795
 5891CHOL    R476485   3.553  13.781  25.720
 5891CHOL    R576486   3.494  13.587  25.647
 5891CHOL    C176487   3.578  13.545  25.426
 5891CHOL    C276488   3.661  13.503  25.205
 5892CHOL   ROH76489   8.401  -7.322  14.210
 5892CHOL    R176490   8.414  -7.166  14.177
 5892CHOL    R276491   8.615  -7.052  14.210
 5892CHOL    R376492   8.428  -6.991  14.139
 5892CHOL    R476493   8.626  -6.916  14.181
 5892CHOL    R576494   8.441  -6.835  14.106
 5892CHOL    C176495   8.460  -6.601  14.055
 5892CHOL    C276496   8.479  -6.367  14.005
 5893CHOL   ROH76497  16.566  22.217  21.114
 5893CHOL    R176498  16.508  22.105  21.015
 5893CHOL    R276499  16.647  21.994  20.865
 5893CHOL    R376500  16.442  21.979  20.905
 5893CHOL    R476501  16.596  21.896  20.778
 5893CHOL    R576502  16.384  21.868  20.806
 5893CHOL    C176503  16.297  21.700  20.658
 5893CHOL    C276504  16.209  21.532  20.510
 5894CHOL   ROH76505  21.550  -2.263   4.209
 5894CHOL    R176506  21.445  -2.153   4.259
 5894CHOL    R276507  21.273  -2.079   4.121
 5894CHOL    R376508  21.327  -2.029   4.316
 5894CHOL    R476509  21.181  -1.983   4.164
 5894CHOL    R576510  21.222  -1.920   4.366
 5894CHOL    C176511  21.065  -1.755   4.441
 5894CHOL    C276512  20.908  -1.590   4.517
 5895CHOL   ROH76513  26.965  12.515  14.226
 5895CHOL    R176514  26.812  12.492  14.186
 5895CHOL    R276515  26.695  12.650  14.062
 5895CHOL    R376516  26.639  12.465  14.142
 5895CHOL    R476517  26.560  12.630  14.027
 5895CHOL    R576518  26.486  12.442  14.102
 5895CHOL    C176519  26.256  12.407  14.042
 5895CHOL    C276520  26.026  12.372  13.983
 5896CHOL   ROH76521  20.205  24.468   9.269
 5896CHOL    R176522  20.117  24.334   9.275
 5896CHOL    R276523  19.963  24.285   9.107
 5896CHOL    R376524  20.018  24.184   9.281
 5896CHOL    R476525  19.886  24.168   9.111
 5896CHOL    R576526  19.930  24.051   9.286
 5896CHOL    C176527  19.799  23.850   9.295
 5896CHOL    C276528  19.667  23.650   9.303
 5897CHOL   ROH76529  16.773  18.442  24.063
 5897CHOL    R176530  16.712  18.366  23.936
 5897CHOL    R276531  16.743  18.137  23.906
 5897CHOL    R376532  16.643  18.282  23.793
 5897CHOL    R476533  16.689  18.071  23.795
 5897CHOL    R576534  16.581  18.206  23.666
 5897CHOL    C176535  16.490  18.093  23.475
 5897CHOL    C276536  16.398  17.979  23.285
 5898CHOL   ROH76537  25.562   3.316  15.270
 5898CHOL    R176538  25.420   3.375  15.224
 5898CHOL    R276539  25.376   3.420  14.999
 5898CHOL    R376540  25.261   3.440  15.172
 5898CHOL    R476541  25.252   3.471  14.959
 5898CHOL    R576542  25.119   3.499  15.126
 5898CHOL    C176543  24.907   3.587  15.058
 5898CHOL    C276544  24.695   3.675  14.989
 5899CHOL   ROH76545  -2.274  16.635  -1.417
 5899CHOL    R176546  -2.167  16.575  -1.314
 5899CHOL    R276547  -1.957  16.673  -1.288
 5899CHOL    R376548  -2.047  16.507  -1.199
 5899CHOL    R476549  -1.863  16.620  -1.199
 5899CHOL    R576550  -1.939  16.447  -1.096
 5899CHOL    C176551  -1.779  16.356  -0.943
 5899CHOL    C276552  -1.618  16.266  -0.789
 5900CHOL   ROH76553   6.624   7.069  -7.369
 5900CHOL    R176554   6.651   7.096  -7.213
 5900CHOL    R276555   6.572   6.948  -7.051
 5900CHOL    R376556   6.680   7.126  -7.039
 5900CHOL    R476557   6.595   6.971  -6.915
 5900CHOL    R576558   6.707   7.152  -6.883
 5900CHOL    C176559   6.747   7.193  -6.650
 5900CHOL    C276560   6.787   7.233  -6.416
 5901CHOL   ROH76561  -5.566   8.274   1.124
 5901CHOL    R176562  -5.427   8.290   1.202
 5901CHOL    R276563  -5.317   8.103   1.290
 5901CHOL    R376564  -5.271   8.307   1.290
 5901CHOL    R476565  -5.196   8.117   1.358
 5901CHOL    R576566  -5.132   8.323   1.368
 5901CHOL    C176567  -4.924   8.346   1.485
 5901CHOL    C276568  -4.715   8.369   1.602
 5902CHOL   ROH76569   9.431   9.407  -7.900
 5902CHOL    R176570   9.436   9.415  -7.740
 5902CHOL    R276571   9.630   9.480  -7.629
 5902CHOL    R376572   9.441   9.423  -7.561
 5902CHOL    R476573   9.634   9.486  -7.489
 5902CHOL    R576574   9.446   9.431  -7.401
 5902CHOL    C176575   9.453   9.442  -7.161
 5902CHOL    C276576   9.460   9.453  -6.922
 5903CHOL   ROH76577  10.174  25.665   1.350
 5903CHOL    R176578  10.170  25.525   1.428
 5903CHOL    R276579  10.330  25.360   1.387
 5903CHOL    R376580  10.166  25.368   1.516
 5903CHOL    R476581  10.326  25.238   1.455
 5903CHOL    R576582  10.162  25.228   1.594
 5903CHOL    C176583  10.156  25.019   1.711
 5903CHOL    C276584  10.150  24.809   1.828
 5904CHOL   ROH76585   2.122  25.428  14.336
 5904CHOL    R176586   2.192  25.290  14.296
 5904CHOL    R276587   2.398  25.229  14.386
 5904CHOL    R376588   2.271  25.135  14.250
 5904CHOL    R476589   2.460  25.108  14.350
 5904CHOL    R576590   2.341  24.996  14.210
 5904CHOL    C176591   2.446  24.789  14.149
 5904CHOL    C276592   2.551  24.582  14.088
 5905CHOL   ROH76593  19.604  22.977  17.121
 5905CHOL    R176594  19.514  22.861  17.058
 5905CHOL    R276595  19.400  22.893  16.857
 5905CHOL    R376596  19.413  22.730  16.987
 5905CHOL    R476597  19.322  22.791  16.802
 5905CHOL    R576598  19.322  22.614  16.924
 5905CHOL    C176599  19.187  22.440  16.830
 5905CHOL    C276600  19.052  22.266  16.736
 5906CHOL   ROH76601  10.258  27.009  15.364
 5906CHOL    R176602  10.251  26.856  15.318
 5906CHOL    R276603  10.374  26.692  15.430
 5906CHOL    R376604  10.244  26.684  15.267
 5906CHOL    R476605  10.368  26.558  15.390
 5906CHOL    R576606  10.237  26.531  15.221
 5906CHOL    C176607  10.228  26.301  15.152
 5906CHOL    C276608  10.218  26.071  15.084
 5907CHOL   ROH76609  15.394  25.132  17.556
 5907CHOL    R176610  15.343  24.997  17.488
 5907CHOL    R276611  15.396  24.789  17.579
 5907CHOL    R376612  15.285  24.844  17.411
 5907CHOL    R476613  15.351  24.670  17.519
 5907CHOL    R576614  15.234  24.709  17.343
 5907CHOL    C176615  15.157  24.506  17.240
 5907CHOL    C276616  15.080  24.303  17.138
 5908CHOL   ROH76617  24.065  17.602   2.198
 5908CHOL    R176618  23.938  17.534   2.268
 5908CHOL    R276619  23.955  17.325   2.370
 5908CHOL    R376620  23.796  17.458   2.347
 5908CHOL    R476621  23.844  17.266   2.431
 5908CHOL    R576622  23.669  17.391   2.418
 5908CHOL    C176623  23.479  17.289   2.523
 5908CHOL    C276624  23.289  17.187   2.628
 5909CHOL   ROH76625  26.150   6.829   3.297
 5909CHOL    R176626  26.004   6.856   3.356
 5909CHOL    R276627  25.842   6.688   3.359
 5909CHOL    R376628  25.839   6.887   3.422
 5909CHOL    R476629  25.714   6.711   3.410
 5909CHOL    R576630  25.692   6.914   3.480
 5909CHOL    C176631  25.473   6.955   3.569
 5909CHOL    C276632  25.253   6.996   3.657
 5910CHOL   ROH76633   4.775   7.083  -6.951
 5910CHOL    R176634   4.819   7.107  -6.799
 5910CHOL    R276635   4.838   6.930  -6.649
 5910CHOL    R376636   4.868   7.135  -6.628
 5910CHOL    R476637   4.876   6.951  -6.516
 5910CHOL    R576638   4.912   7.159  -6.476
 5910CHOL    C176639   4.978   7.196  -6.248
 5910CHOL    C276640   5.044   7.233  -6.020
 5911CHOL   ROH76641   5.128   0.561  -4.517
 5911CHOL    R176642   5.174   0.649  -4.392
 5911CHOL    R276643   5.312   0.560  -4.226
 5911CHOL    R376644   5.225   0.748  -4.250
 5911CHOL    R476645   5.352   0.637  -4.116
 5911CHOL    R576646   5.271   0.837  -4.125
 5911CHOL    C176647   5.340   0.969  -3.937
 5911CHOL    C276648   5.408   1.101  -3.749
 5912CHOL   ROH76649  24.609   5.689   0.766
 5912CHOL    R176650  24.477   5.726   0.848
 5912CHOL    R276651  24.314   5.866   0.757
 5912CHOL    R376652  24.328   5.768   0.941
 5912CHOL    R476653  24.198   5.898   0.829
 5912CHOL    R576654  24.196   5.806   1.024
 5912CHOL    C176655  23.998   5.861   1.147
 5912CHOL    C276656  23.800   5.917   1.271
 5913CHOL   ROH76657  -7.676  12.194  12.701
 5913CHOL    R176658  -7.519  12.177  12.675
 5913CHOL    R276659  -7.363  12.296  12.800
 5913CHOL    R376660  -7.343  12.157  12.645
 5913CHOL    R476661  -7.225  12.281  12.777
 5913CHOL    R576662  -7.186  12.139  12.619
 5913CHOL    C176663  -6.951  12.113  12.580
 5913CHOL    C276664  -6.716  12.087  12.540
 5914CHOL   ROH76665   3.943  -6.046   4.742
 5914CHOL    R176666   3.994  -5.902   4.789
 5914CHOL    R276667   3.970  -5.832   5.010
 5914CHOL    R376668   4.051  -5.740   4.842
 5914CHOL    R476669   4.014  -5.706   5.051
 5914CHOL    R576670   4.102  -5.595   4.889
 5914CHOL    C176671   4.179  -5.379   4.960
 5914CHOL    C276672   4.256  -5.163   5.030
 5915CHOL   ROH76673   5.768  19.028  -4.953
 5915CHOL    R176674   5.805  18.949  -4.819
 5915CHOL    R276675   6.012  18.844  -4.794
 5915CHOL    R376676   5.846  18.860  -4.668
 5915CHOL    R476677   6.044  18.775  -4.677
 5915CHOL    R576678   5.883  18.781  -4.534
 5915CHOL    C176679   5.938  18.662  -4.332
 5915CHOL    C276680   5.993  18.544  -4.131
 5916CHOL   ROH76681  -0.086  17.267  22.765
 5916CHOL    R176682   0.004  17.203  22.649
 5916CHOL    R276683   0.204  17.094  22.699
 5916CHOL    R376684   0.105  17.131  22.519
 5916CHOL    R476685   0.283  17.038  22.598
 5916CHOL    R576686   0.194  17.066  22.403
 5916CHOL    C176687   0.329  16.970  22.229
 5916CHOL    C276688   0.464  16.874  22.055
 5917CHOL   ROH76689  -0.114  20.600  -0.447
 5917CHOL    R176690  -0.024  20.503  -0.357
 5917CHOL    R276691   0.208  20.497  -0.381
 5917CHOL    R376692   0.077  20.394  -0.255
 5917CHOL    R476693   0.286  20.412  -0.302
 5917CHOL    R576694   0.166  20.297  -0.164
 5917CHOL    C176695   0.301  20.152  -0.029
 5917CHOL    C276696   0.436  20.006   0.107
 5918CHOL   ROH76697  -0.062   4.106  -3.671
 5918CHOL    R176698   0.028   4.162  -3.551
 5918CHOL    R276699  -0.066   4.208  -3.342
 5918CHOL    R376700   0.129   4.225  -3.416
 5918CHOL    R476701   0.013   4.256  -3.237
 5918CHOL    R576702   0.218   4.281  -3.296
 5918CHOL    C176703   0.353   4.364  -3.115
 5918CHOL    C276704   0.488   4.448  -2.935
 5919CHOL   ROH76705   7.927  -7.374   6.241
 5919CHOL    R176706   7.944  -7.218   6.272
 5919CHOL    R276707   8.156  -7.122   6.290
 5919CHOL    R376708   7.964  -7.043   6.308
 5919CHOL    R476709   8.172  -6.986   6.317
 5919CHOL    R576710   7.981  -6.887   6.339
 5919CHOL    C176711   8.008  -6.653   6.386
 5919CHOL    C276712   8.034  -6.419   6.433
 5920CHOL   ROH76713  -4.018  20.827   6.663
 5920CHOL    R176714  -3.895  20.729   6.693
 5920CHOL    R276715  -3.883  20.609   6.893
 5920CHOL    R376716  -3.757  20.619   6.727
 5920CHOL    R476717  -3.775  20.524   6.919
 5920CHOL    R576718  -3.634  20.522   6.757
 5920CHOL    C176719  -3.449  20.375   6.802
 5920CHOL    C276720  -3.264  20.228   6.847
 5921CHOL   ROH76721   1.378  11.974  -5.598
 5921CHOL    R176722   1.458  11.956  -5.460
 5921CHOL    R276723   1.450  12.121  -5.295
 5921CHOL    R376724   1.547  11.936  -5.305
 5921CHOL    R476725   1.520  12.105  -5.175
 5921CHOL    R576726   1.627  11.918  -5.167
 5921CHOL    C176727   1.746  11.892  -4.961
 5921CHOL    C276728   1.865  11.865  -4.754
 5922CHOL   ROH76729  -2.278   3.897  21.439
 5922CHOL    R176730  -2.173   3.953  21.332
 5922CHOL    R276731  -2.018   3.812  21.230
 5922CHOL    R376732  -2.056   4.016  21.211
 5922CHOL    R476733  -1.927   3.861  21.136
 5922CHOL    R576734  -1.951   4.073  21.104
 5922CHOL    C176735  -1.794   4.157  20.943
 5922CHOL    C276736  -1.637   4.241  20.782
 5923CHOL   ROH76737   8.415  26.611  16.325
 5923CHOL    R176738   8.429  26.463  16.267
 5923CHOL    R276739   8.612  26.402  16.135
 5923CHOL    R376740   8.445  26.295  16.202
 5923CHOL    R476741   8.625  26.272  16.085
 5923CHOL    R576742   8.459  26.147  16.143
 5923CHOL    C176743   8.481  25.924  16.056
 5923CHOL    C276744   8.502  25.702  15.969
 5924CHOL   ROH76745  20.953  21.619  17.508
 5924CHOL    R176746  20.853  21.512  17.444
 5924CHOL    R276747  20.796  21.522  17.218
 5924CHOL    R376748  20.741  21.391  17.371
 5924CHOL    R476749  20.709  21.428  17.162
 5924CHOL    R576750  20.641  21.284  17.307
 5924CHOL    C176751  20.492  21.122  17.211
 5924CHOL    C276752  20.342  20.961  17.114
 5925CHOL   ROH76753  -2.042   3.605  -1.748
 5925CHOL    R176754  -1.938   3.665  -1.642
 5925CHOL    R276755  -1.903   3.559  -1.437
 5925CHOL    R376756  -1.822   3.732  -1.522
 5925CHOL    R476757  -1.812   3.611  -1.344
 5925CHOL    R576758  -1.718   3.792  -1.415
 5925CHOL    C176759  -1.563   3.881  -1.256
 5925CHOL    C276760  -1.408   3.971  -1.096
 5926CHOL   ROH76761   0.423   9.523  -5.169
 5926CHOL    R176762   0.511   9.524  -5.035
 5926CHOL    R276763   0.418   9.590  -4.831
 5926CHOL    R376764   0.609   9.524  -4.884
 5926CHOL    R476765   0.494   9.590  -4.714
 5926CHOL    R576766   0.696   9.525  -4.750
 5926CHOL    C176767   0.828   9.526  -4.550
 5926CHOL    C276768   0.959   9.527  -4.349
 5927CHOL   ROH76769  16.834  -1.992  -1.327
 5927CHOL    R176770  16.774  -1.884  -1.226
 5927CHOL    R276771  16.758  -1.659  -1.286
 5927CHOL    R376772  16.707  -1.762  -1.111
 5927CHOL    R476773  16.706  -1.564  -1.197
 5927CHOL    R576774  16.647  -1.653  -1.010
 5927CHOL    C176775  16.557  -1.491  -0.858
 5927CHOL    C276776  16.467  -1.329  -0.706
 5928CHOL   ROH76777  24.159  19.918  13.824
 5928CHOL    R176778  24.032  19.827  13.789
 5928CHOL    R276779  23.949  19.816  13.571
 5928CHOL    R376780  23.889  19.725  13.749
 5928CHOL    R476781  23.838  19.737  13.540
 5928CHOL    R576782  23.762  19.634  13.714
 5928CHOL    C176783  23.571  19.498  13.661
 5928CHOL    C276784  23.381  19.362  13.608
 5929CHOL   ROH76785  -7.677   7.769   7.211
 5929CHOL    R176786  -7.520   7.785   7.238
 5929CHOL    R276787  -7.442   7.866   7.443
 5929CHOL    R376788  -7.344   7.804   7.269
 5929CHOL    R476789  -7.305   7.880   7.467
 5929CHOL    R576790  -7.187   7.820   7.297
 5929CHOL    C176791  -6.952   7.844   7.338
 5929CHOL    C276792  -6.717   7.869   7.379
 5930CHOL   ROH76793   5.096  22.416  -1.948
 5930CHOL    R176794   5.135  22.301  -1.844
 5930CHOL    R276795   5.224  22.354  -1.635
 5930CHOL    R376796   5.179  22.172  -1.726
 5930CHOL    R476797   5.258  22.254  -1.543
 5930CHOL    R576798   5.217  22.057  -1.622
 5930CHOL    C176799   5.276  21.885  -1.465
 5930CHOL    C276800   5.334  21.713  -1.308
 5931CHOL   ROH76801  17.448  -0.970  21.805
 5931CHOL    R176802  17.379  -0.871  21.700
 5931CHOL    R276803  17.433  -0.644  21.695
 5931CHOL    R376804  17.301  -0.760  21.582
 5931CHOL    R476805  17.373  -0.558  21.603
 5931CHOL    R576806  17.232  -0.661  21.477
 5931CHOL    C176807  17.128  -0.513  21.320
 5931CHOL    C276808  17.024  -0.364  21.162
 5932CHOL   ROH76809  -3.533  13.935  21.076
 5932CHOL    R176810  -3.413  13.903  20.975
 5932CHOL    R276811  -3.254  13.740  21.024
 5932CHOL    R376812  -3.279  13.867  20.860
 5932CHOL    R476813  -3.150  13.712  20.936
 5932CHOL    R576814  -3.160  13.835  20.759
 5932CHOL    C176815  -2.980  13.787  20.607
 5932CHOL    C276816  -2.801  13.739  20.455
 5933CHOL   ROH76817   5.333  -2.396  -2.091
 5933CHOL    R176818   5.372  -2.285  -1.983
 5933CHOL    R276819   5.336  -2.322  -1.755
 5933CHOL    R376820   5.417  -2.160  -1.860
 5933CHOL    R476821   5.371  -2.225  -1.660
 5933CHOL    R576822   5.456  -2.049  -1.752
 5933CHOL    C176823   5.515  -1.883  -1.589
 5933CHOL    C276824   5.574  -1.717  -1.427
 5934CHOL   ROH76825  -4.224   7.674  20.669
 5934CHOL    R176826  -4.098   7.693  20.572
 5934CHOL    R276827  -3.937   7.857  20.615
 5934CHOL    R376828  -3.956   7.715  20.463
 5934CHOL    R476829  -3.827   7.874  20.530
 5934CHOL    R576830  -3.831   7.735  20.366
 5934CHOL    C176831  -3.642   7.764  20.221
 5934CHOL    C276832  -3.453   7.793  20.075
 5935CHOL   ROH76833  15.032  -6.275   4.738
 5935CHOL    R176834  14.982  -6.131   4.785
 5935CHOL    R276835  15.107  -6.002   4.933
 5935CHOL    R376836  14.925  -5.968   4.837
 5935CHOL    R476837  15.063  -5.875   4.974
 5935CHOL    R576838  14.875  -5.824   4.884
 5935CHOL    C176839  14.799  -5.607   4.954
 5935CHOL    C276840  14.723  -5.390   5.024
 5936CHOL   ROH76841   4.881  24.933  18.379
 5936CHOL    R176842   4.926  24.798  18.305
 5936CHOL    R276843   5.078  24.652  18.405
 5936CHOL    R376844   4.976  24.647  18.222
 5936CHOL    R476845   5.117  24.534  18.340
 5936CHOL    R576846   5.021  24.512  18.149
 5936CHOL    C176847   5.088  24.310  18.038
 5936CHOL    C276848   5.155  24.108  17.927
 5937CHOL   ROH76849   5.360  19.034  24.686
 5937CHOL    R176850   5.399  18.949  24.556
 5937CHOL    R276851   5.591  18.997  24.433
 5937CHOL    R376852   5.442  18.852  24.411
 5937CHOL    R476853   5.625  18.923  24.320
 5937CHOL    R576854   5.481  18.767  24.281
 5937CHOL    C176855   5.539  18.639  24.087
 5937CHOL    C276856   5.597  18.511  23.892
 5938CHOL   ROH76857  -1.478  -1.426  17.729
 5938CHOL    R176858  -1.377  -1.324  17.659
 5938CHOL    R276859  -1.274  -1.154  17.782
 5938CHOL    R376860  -1.262  -1.209  17.581
 5938CHOL    R476861  -1.185  -1.065  17.721
 5938CHOL    R576862  -1.161  -1.106  17.511
 5938CHOL    C176863  -1.009  -0.953  17.406
 5938CHOL    C276864  -0.857  -0.800  17.302
 5939CHOL   ROH76865   6.747   0.544  24.762
 5939CHOL    R176866   6.772   0.623  24.626
 5939CHOL    R276867   6.986   0.698  24.568
 5939CHOL    R376868   6.801   0.713  24.472
 5939CHOL    R476869   7.008   0.768  24.449
 5939CHOL    R576870   6.826   0.792  24.336
 5939CHOL    C176871   6.865   0.911  24.131
 5939CHOL    C276872   6.903   1.030  23.926
 5940CHOL   ROH76873   3.735  19.817  -3.735
 5940CHOL    R176874   3.789  19.730  -3.612
 5940CHOL    R276875   4.003  19.638  -3.614
 5940CHOL    R376876   3.849  19.633  -3.473
 5940CHOL    R476877   4.050  19.562  -3.506
 5940CHOL    R576878   3.903  19.546  -3.349
 5940CHOL    C176879   3.984  19.417  -3.164
 5940CHOL    C276880   4.064  19.287  -2.979
 5941CHOL   ROH76881  25.272  18.503  12.842
 5941CHOL    R176882  25.134  18.427  12.815
 5941CHOL    R276883  25.038  18.422  12.603
 5941CHOL    R376884  24.979  18.341  12.786
 5941CHOL    R476885  24.918  18.355  12.579
 5941CHOL    R576886  24.840  18.264  12.759
 5941CHOL    C176887  24.633  18.150  12.719
 5941CHOL    C276888  24.426  18.036  12.679
 5942CHOL   ROH76889   9.733   4.818  26.994
 5942CHOL    R176890   9.737   4.867  26.842
 5942CHOL    R276891   9.808   4.725  26.672
 5942CHOL    R376892   9.742   4.922  26.671
 5942CHOL    R476893   9.812   4.768  26.538
 5942CHOL    R576894   9.746   4.971  26.518
 5942CHOL    C176895   9.752   5.045  26.290
 5942CHOL    C276896   9.758   5.119  26.062
 5943CHOL   ROH76897   3.838  -1.611  22.131
 5943CHOL    R176898   3.892  -1.505  22.024
 5943CHOL    R276899   3.944  -1.286  22.088
 5943CHOL    R376900   3.952  -1.385  21.904
 5943CHOL    R476901   3.991  -1.193  21.995
 5943CHOL    R576902   4.006  -1.279  21.797
 5943CHOL    C176903   4.087  -1.119  21.637
 5943CHOL    C276904   4.167  -0.959  21.477
 5944CHOL   ROH76905  -1.795  -1.818   3.196
 5944CHOL    R176906  -1.689  -1.714   3.254
 5944CHOL    R276907  -1.554  -1.768   3.437
 5944CHOL    R376908  -1.569  -1.596   3.319
 5944CHOL    R476909  -1.461  -1.677   3.487
 5944CHOL    R576910  -1.463  -1.492   3.377
 5944CHOL    C176911  -1.303  -1.335   3.464
 5944CHOL    C276912  -1.143  -1.178   3.551
 5945CHOL   ROH76913   0.272  24.966   9.453
 5945CHOL    R176914   0.359  24.832   9.463
 5945CHOL    R276915   0.552  24.805   9.336
 5945CHOL    R376916   0.457  24.681   9.474
 5945CHOL    R476917   0.628  24.688   9.344
 5945CHOL    R576918   0.543  24.548   9.484
 5945CHOL    C176919   0.674  24.347   9.499
 5945CHOL    C276920   0.804  24.146   9.514
 5946CHOL   ROH76921   4.324  26.750   6.988
 5946CHOL    R176922   4.375  26.601   7.014
 5946CHOL    R276923   4.359  26.503   7.225
 5946CHOL    R376924   4.433  26.432   7.042
 5946CHOL    R476925   4.404  26.372   7.247
 5946CHOL    R576926   4.485  26.283   7.068
 5946CHOL    C176927   4.562  26.059   7.106
 5946CHOL    C276928   4.639  25.835   7.145
 5947CHOL   ROH76929   7.336  -6.490   3.565
 5947CHOL    R176930   7.359  -6.342   3.623
 5947CHOL    R276931   7.517  -6.302   3.789
 5947CHOL    R376932   7.384  -6.177   3.688
 5947CHOL    R476933   7.537  -6.173   3.840
 5947CHOL    R576934   7.407  -6.029   3.745
 5947CHOL    C176935   7.441  -5.808   3.832
 5947CHOL    C276936   7.475  -5.586   3.919
 5948CHOL   ROH76937  10.995  -3.177  21.839
 5948CHOL    R176938  10.979  -3.059  21.732
 5948CHOL    R276939  10.993  -2.836  21.796
 5948CHOL    R376940  10.962  -2.927  21.611
 5948CHOL    R476941  10.979  -2.733  21.702
 5948CHOL    R576942  10.946  -2.810  21.503
 5948CHOL    C176943  10.922  -2.633  21.342
 5948CHOL    C276944  10.899  -2.457  21.181
 5949CHOL   ROH76945  22.188   3.424  -1.126
 5949CHOL    R176946  22.079   3.486  -1.026
 5949CHOL    R276947  22.121   3.685  -0.912
 5949CHOL    R376948  21.957   3.556  -0.914
 5949CHOL    R476949  22.026   3.739  -0.824
 5949CHOL    R576950  21.848   3.618  -0.814
 5949CHOL    C176951  21.686   3.710  -0.664
 5949CHOL    C276952  21.523   3.803  -0.514
 5950CHOL   ROH76953   3.507   4.579  25.742
 5950CHOL    R176954   3.563   4.627  25.600
 5950CHOL    R276955   3.639   4.845  25.569
 5950CHOL    R376956   3.626   4.681  25.440
 5950CHOL    R476957   3.688   4.887  25.444
 5950CHOL    R576958   3.682   4.729  25.298
 5950CHOL    C176959   3.766   4.801  25.086
 5950CHOL    C276960   3.850   4.873  24.873
 5951CHOL   ROH76961   4.694   2.479  25.306
 5951CHOL    R176962   4.734   2.543  25.165
 5951CHOL    R276963   4.810   2.410  24.990
 5951CHOL    R376964   4.779   2.615  25.006
 5951CHOL    R476965   4.845   2.466  24.866
 5951CHOL    R576966   4.819   2.680  24.865
 5951CHOL    C176967   4.878   2.776  24.653
 5951CHOL    C276968   4.938   2.872  24.442
 5952CHOL   ROH76969   5.113  12.242  -7.149
 5952CHOL    R176970   5.156  12.223  -6.996
 5952CHOL    R276971   5.222  12.406  -6.867
 5952CHOL    R376972   5.203  12.202  -6.824
 5952CHOL    R476973   5.260  12.389  -6.733
 5952CHOL    R576974   5.246  12.184  -6.670
 5952CHOL    C176975   5.310  12.155  -6.441
 5952CHOL    C276976   5.374  12.127  -6.211
 5953CHOL   ROH76977  18.928   0.515  22.028
 5953CHOL    R176978  18.845   0.600  21.920
 5953CHOL    R276979  18.947   0.771  21.799
 5953CHOL    R376980  18.752   0.695  21.799
 5953CHOL    R476981  18.874   0.845  21.705
 5953CHOL    R576982  18.669   0.779  21.692
 5953CHOL    C176983  18.545   0.906  21.530
 5953CHOL    C276984  18.421   1.033  21.368
 5954CHOL   ROH76985  19.552  -0.554  -0.736
 5954CHOL    R176986  19.462  -0.462  -0.641
 5954CHOL    R276987  19.242  -0.410  -0.697
 5954CHOL    R376988  19.361  -0.358  -0.534
 5954CHOL    R476989  19.163  -0.329  -0.614
 5954CHOL    R576990  19.271  -0.266  -0.439
 5954CHOL    C176991  19.137  -0.127  -0.296
 5954CHOL    C276992  19.002   0.011  -0.154
 5955CHOL   ROH76993  19.007  25.219  10.538
 5955CHOL    R176994  18.927  25.080  10.535
 5955CHOL    R276995  18.991  24.903  10.673
 5955CHOL    R376996  18.838  24.924  10.533
 5955CHOL    R476997  18.921  24.781  10.671
 5955CHOL    R576998  18.758  24.785  10.530
 5955CHOL    C176999  18.639  24.577  10.526
 5955CHOL    C277000  18.520  24.368  10.522
 5956CHOL   ROH77001  -0.727  13.567  -3.934
 5956CHOL    R177002  -0.633  13.539  -3.808
 5956CHOL    R277003  -0.719  13.537  -3.591
 5956CHOL    R377004  -0.526  13.506  -3.666
 5956CHOL    R477005  -0.636  13.512  -3.481
 5956CHOL    R577006  -0.432  13.478  -3.541
 5956CHOL    C177007  -0.290  13.435  -3.352
 5956CHOL    C277008  -0.149  13.393  -3.163
 5957CHOL   ROH77009  -4.937  17.981   4.068
 5957CHOL    R177010  -4.802  17.914   4.122
 5957CHOL    R277011  -4.646  18.039   4.243
 5957CHOL    R377012  -4.651  17.839   4.183
 5957CHOL    R477013  -4.529  17.980   4.290
 5957CHOL    R577014  -4.516  17.772   4.238
 5957CHOL    C177015  -4.314  17.671   4.319
 5957CHOL    C277016  -4.112  17.570   4.400
 5958CHOL   ROH77017  19.001  -0.766  -1.032
 5958CHOL    R177018  18.917  -0.671  -0.935
 5958CHOL    R277019  18.792  -0.493  -1.019
 5958CHOL    R377020  18.822  -0.564  -0.825
 5958CHOL    R477021  18.719  -0.410  -0.934
 5958CHOL    R577022  18.738  -0.470  -0.728
 5958CHOL    C177023  18.612  -0.327  -0.581
 5958CHOL    C277024  18.486  -0.185  -0.435
 5959CHOL   ROH77025  16.039   4.043  -5.715
 5959CHOL    R177026  15.982   4.091  -5.573
 5959CHOL    R277027  16.039   4.300  -5.486
 5959CHOL    R377028  15.918   4.145  -5.414
 5959CHOL    R477029  15.990   4.342  -5.362
 5959CHOL    R577030  15.861   4.193  -5.273
 5959CHOL    C177031  15.776   4.266  -5.060
 5959CHOL    C277032  15.691   4.338  -4.848
 5960CHOL   ROH77033   9.901  -7.724  11.989
 5960CHOL    R177034   9.901  -7.565  11.972
 5960CHOL    R277035   9.997  -7.464  11.785
 5960CHOL    R377036   9.901  -7.386  11.953
 5960CHOL    R477037   9.997  -7.324  11.771
 5960CHOL    R577038   9.901  -7.227  11.937
 5960CHOL    C177039   9.901  -6.988  11.911
 5960CHOL    C277040   9.901  -6.749  11.886
 5961CHOL   ROH77041  -5.429  17.285  15.683
 5961CHOL    R177042  -5.293  17.219  15.631
 5961CHOL    R277043  -5.105  17.349  15.588
 5961CHOL    R377044  -5.140  17.144  15.573
 5961CHOL    R477045  -4.985  17.292  15.543
 5961CHOL    R577046  -5.003  17.078  15.521
 5961CHOL    C177047  -4.799  16.979  15.443
 5961CHOL    C277048  -4.595  16.879  15.365
 5962CHOL   ROH77049  -4.174   0.301  15.171
 5962CHOL    R177050  -4.047   0.386  15.124
 5962CHOL    R277051  -3.978   0.575  15.243
 5962CHOL    R377052  -3.904   0.482  15.071
 5962CHOL    R477053  -3.867   0.649  15.202
 5962CHOL    R577054  -3.777   0.567  15.024
 5962CHOL    C177055  -3.586   0.694  14.954
 5962CHOL    C277056  -3.395   0.821  14.884
 5963CHOL   ROH77057  -0.478  23.809  14.521
 5963CHOL    R177058  -0.390  23.684  14.474
 5963CHOL    R277059  -0.214  23.605  14.604
 5963CHOL    R377060  -0.292  23.543  14.421
 5963CHOL    R477061  -0.137  23.495  14.563
 5963CHOL    R577062  -0.204  23.417  14.373
 5963CHOL    C177063  -0.072  23.230  14.303
 5963CHOL    C277064   0.059  23.042  14.232
 5964CHOL   ROH77065  -3.305  21.652  13.012
 5964CHOL    R177066  -3.185  21.551  12.983
 5964CHOL    R277067  -2.989  21.624  12.878
 5964CHOL    R377068  -3.049  21.437  12.949
 5964CHOL    R477069  -2.884  21.535  12.853
 5964CHOL    R577070  -2.929  21.335  12.920
 5964CHOL    C177071  -2.749  21.184  12.876
 5964CHOL    C277072  -2.568  21.032  12.832
 5965CHOL   ROH77073  18.458   0.012  -2.155
 5965CHOL    R177074  18.379   0.101  -2.048
 5965CHOL    R277075  18.317   0.320  -2.096
 5965CHOL    R377076  18.290   0.200  -1.927
 5965CHOL    R477077  18.248   0.398  -2.002
 5965CHOL    R577078  18.212   0.289  -1.819
 5965CHOL    C177079  18.093   0.422  -1.658
 5965CHOL    C277080  17.975   0.555  -1.497
 5966CHOL   ROH77081   9.642   1.191  25.447
 5966CHOL    R177082   9.646   1.269  25.307
 5966CHOL    R277083   9.778   1.459  25.280
 5966CHOL    R377084   9.651   1.356  25.150
 5966CHOL    R477085   9.782   1.527  25.158
 5966CHOL    R577086   9.655   1.434  25.011
 5966CHOL    C177087   9.661   1.551  24.801
 5966CHOL    C277088   9.667   1.667  24.591
 5967CHOL   ROH77089  -2.552  16.325  -1.302
 5967CHOL    R177090  -2.443  16.267  -1.200
 5967CHOL    R277091  -2.232  16.365  -1.182
 5967CHOL    R377092  -2.320  16.202  -1.086
 5967CHOL    R477093  -2.136  16.315  -1.093
 5967CHOL    R577094  -2.210  16.144  -0.984
 5967CHOL    C177095  -2.047  16.057  -0.832
 5967CHOL    C277096  -1.883  15.970  -0.680
 5968CHOL   ROH77097  25.650  18.014   8.156
 5968CHOL    R177098  25.508  17.943   8.174
 5968CHOL    R277099  25.419  17.808   8.006
 5968CHOL    R377100  25.348  17.863   8.194
 5968CHOL    R477101  25.295  17.746   8.021
 5968CHOL    R577102  25.206  17.791   8.212
 5968CHOL    C177103  24.993  17.685   8.239
 5968CHOL    C277104  24.780  17.578   8.266
 5969CHOL   ROH77105   5.201   0.639  24.466
 5969CHOL    R177106   5.239   0.722  24.335
 5969CHOL    R277107   5.381   0.632  24.173
 5969CHOL    R377108   5.282   0.815  24.187
 5969CHOL    R477109   5.414   0.705  24.058
 5969CHOL    R577110   5.319   0.898  24.055
 5969CHOL    C177111   5.376   1.023  23.858
 5969CHOL    C277112   5.433   1.148  23.661
 5970CHOL   ROH77113  17.173  25.728   5.908
 5970CHOL    R177114  17.108  25.586   5.942
 5970CHOL    R277115  17.215  25.387   5.883
 5970CHOL    R377116  17.034  25.426   5.980
 5970CHOL    R477117  17.158  25.263   5.913
 5970CHOL    R577118  16.969  25.284   6.013
 5970CHOL    C177119  16.871  25.071   6.064
 5970CHOL    C277120  16.773  24.858   6.115
 5971CHOL   ROH77121  -7.162  15.281   8.673
 5971CHOL    R177122  -7.010  15.234   8.685
 5971CHOL    R277123  -6.835  15.381   8.637
 5971CHOL    R377124  -6.838  15.181   8.699
 5971CHOL    R477125  -6.701  15.340   8.647
 5971CHOL    R577126  -6.685  15.134   8.711
 5971CHOL    C177127  -6.457  15.064   8.730
 5971CHOL    C277128  -6.228  14.994   8.748
 5972CHOL   ROH77129   1.040  25.074  13.561
 5972CHOL    R177130   1.116  24.938  13.523
 5972CHOL    R277131   1.337  24.941  13.450
 5972CHOL    R377132   1.201  24.786  13.480
 5972CHOL    R477133   1.403  24.822  13.416
 5972CHOL    R577134   1.276  24.650  13.441
 5972CHOL    C177135   1.390  24.446  13.384
 5972CHOL    C277136   1.504  24.243  13.327
 5973CHOL   ROH77137  19.205   4.267  -4.137
 5973CHOL    R177138  19.121   4.319  -4.011
 5973CHOL    R277139  19.160   4.530  -3.919
 5973CHOL    R377140  19.027   4.377  -3.869
 5973CHOL    R477141  19.087   4.575  -3.809
 5973CHOL    R577142  18.943   4.428  -3.742
 5973CHOL    C177143  18.818   4.506  -3.553
 5973CHOL    C277144  18.692   4.584  -3.364
 5974CHOL   ROH77145  26.744  15.585  11.475
 5974CHOL    R177146  26.593  15.535  11.459
 5974CHOL    R277147  26.528  15.402  11.279
 5974CHOL    R377148  26.422  15.480  11.442
 5974CHOL    R477149  26.396  15.358  11.266
 5974CHOL    R577150  26.271  15.430  11.426
 5974CHOL    C177151  26.044  15.356  11.402
 5974CHOL    C277152  25.817  15.281  11.379
 5975CHOL   ROH77153  24.304  19.420   5.612
 5975CHOL    R177154  24.174  19.335   5.650
 5975CHOL    R277155  24.072  19.196   5.493
 5975CHOL    R377156  24.028  19.239   5.692
 5975CHOL    R477157  23.958  19.121   5.526
 5975CHOL    R577158  23.897  19.153   5.730
 5975CHOL    C177159  23.702  19.026   5.786
 5975CHOL    C277160  23.507  18.898   5.842
 5976CHOL   ROH77161  16.272  -4.172  18.758
 5976CHOL    R177162  16.217  -4.044  18.679
 5976CHOL    R277163  16.362  -3.878  18.604
 5976CHOL    R377164  16.155  -3.901  18.589
 5976CHOL    R477165  16.314  -3.766  18.535
 5976CHOL    R577166  16.100  -3.773  18.510
 5976CHOL    C177167  16.018  -3.581  18.391
 5976CHOL    C277168  15.936  -3.390  18.272
 5977CHOL   ROH77169  15.013   7.700  -7.003
 5977CHOL    R177170  14.960   7.722  -6.854
 5977CHOL    R277171  14.925   7.936  -6.769
 5977CHOL    R377172  14.899   7.747  -6.686
 5977CHOL    R477173  14.879   7.956  -6.638
 5977CHOL    R577174  14.846   7.769  -6.537
 5977CHOL    C177175  14.766   7.801  -6.313
 5977CHOL    C277176  14.686   7.834  -6.089
 5978CHOL   ROH77177  12.108  13.794  27.208
 5978CHOL    R177178  12.088  13.756  27.054
 5978CHOL    R277179  12.265  13.767  26.903
 5978CHOL    R377180  12.064  13.714  26.880
 5978CHOL    R477181  12.247  13.734  26.768
 5978CHOL    R577182  12.044  13.676  26.726
 5978CHOL    C177183  12.013  13.620  26.495
 5978CHOL    C277184  11.983  13.564  26.263
 5979CHOL   ROH77185   7.447  26.146  17.153
 5979CHOL    R177186   7.469  26.001  17.089
 5979CHOL    R277187   7.514  25.977  16.861
 5979CHOL    R377188   7.494  25.838  17.016
 5979CHOL    R477189   7.533  25.850  16.805
 5979CHOL    R577190   7.517  25.694  16.952
 5979CHOL    C177191   7.550  25.476  16.856
 5979CHOL    C277192   7.583  25.259  16.759
 5980CHOL   ROH77193  -3.625  10.176  21.583
 5980CHOL    R177194  -3.504  10.171  21.479
 5980CHOL    R277195  -3.381  10.363  21.428
 5980CHOL    R377196  -3.367  10.165  21.362
 5980CHOL    R477197  -3.275  10.358  21.337
 5980CHOL    R577198  -3.246  10.160  21.258
 5980CHOL    C177199  -3.064  10.152  21.101
 5980CHOL    C277200  -2.882  10.145  20.945
 5981CHOL   ROH77201  12.929  18.517  -5.419
 5981CHOL    R177202  12.901  18.441  -5.281
 5981CHOL    R277203  13.062  18.300  -5.187
 5981CHOL    R377204  12.871  18.357  -5.125
 5981CHOL    R477205  13.038  18.234  -5.066
 5981CHOL    R577206  12.843  18.281  -4.986
 5981CHOL    C177207  12.802  18.168  -4.779
 5981CHOL    C277208  12.760  18.054  -4.571
 5982CHOL   ROH77209  10.981  16.444  -6.650
 5982CHOL    R177210  10.969  16.386  -6.501
 5982CHOL    R277211  11.020  16.163  -6.455
 5982CHOL    R377212  10.956  16.321  -6.334
 5982CHOL    R477213  11.010  16.113  -6.325
 5982CHOL    R577214  10.944  16.263  -6.185
 5982CHOL    C177215  10.926  16.176  -5.963
 5982CHOL    C277216  10.908  16.089  -5.740
 5983CHOL   ROH77217  21.630  17.715  -1.097
 5983CHOL    R177218  21.526  17.645  -0.998
 5983CHOL    R277219  21.595  17.478  -0.849
 5983CHOL    R377220  21.409  17.566  -0.886
 5983CHOL    R477221  21.504  17.417  -0.763
 5983CHOL    R577222  21.305  17.496  -0.787
 5983CHOL    C177223  21.148  17.390  -0.638
 5983CHOL    C277224  20.992  17.285  -0.489
 5984CHOL   ROH77225   7.776   9.324  27.628
 5984CHOL    R177226   7.797   9.328  27.469
 5984CHOL    R277227   7.983   9.434  27.376
 5984CHOL    R377228   7.821   9.334  27.291
 5984CHOL    R477229   8.002   9.438  27.237
 5984CHOL    R577230   7.842   9.338  27.133
 5984CHOL    C177231   7.874   9.345  26.895
 5984CHOL    C277232   7.905   9.351  26.657
 5985CHOL   ROH77233  13.381  22.906  -1.956
 5985CHOL    R177234  13.353  22.791  -1.848
 5985CHOL    R277235  13.417  22.570  -1.889
 5985CHOL    R377236  13.323  22.662  -1.727
 5985CHOL    R477237  13.393  22.470  -1.795
 5985CHOL    R577238  13.295  22.546  -1.619
 5985CHOL    C177239  13.254  22.374  -1.457
 5985CHOL    C277240  13.212  22.201  -1.295
 5986CHOL   ROH77241   7.050  -1.163  -3.740
 5986CHOL    R177242   7.077  -1.060  -3.620
 5986CHOL    R277243   7.104  -1.136  -3.401
 5986CHOL    R377244   7.107  -0.945  -3.485
 5986CHOL    R477245   7.128  -1.046  -3.296
 5986CHOL    R577246   7.134  -0.843  -3.366
 5986CHOL    C177247   7.174  -0.689  -3.186
 5986CHOL    C277248   7.215  -0.535  -3.006
 5987CHOL   ROH77249  26.646   5.036  13.446
 5987CHOL    R177250  26.496   5.081  13.415
 5987CHOL    R277251  26.340   4.930  13.330
 5987CHOL    R377252  26.326   5.132  13.380
 5987CHOL    R477253  26.208   4.970  13.303
 5987CHOL    R577254  26.176   5.178  13.350
 5987CHOL    C177255  25.950   5.245  13.303
 5987CHOL    C277256  25.725   5.313  13.257
 5988CHOL   ROH77257   7.213  -7.446  12.702
 5988CHOL    R177258   7.236  -7.289  12.680
 5988CHOL    R277259   7.355  -7.162  12.834
 5988CHOL    R377260   7.261  -7.113  12.654
 5988CHOL    R477261   7.375  -7.025  12.815
 5988CHOL    R577262   7.284  -6.956  12.632
 5988CHOL    C177263   7.318  -6.721  12.598
 5988CHOL    C277264   7.352  -6.486  12.565
 5989CHOL   ROH77265  -6.505  17.145  10.443
 5989CHOL    R177266  -6.358  17.082  10.437
 5989CHOL    R277267  -6.170  17.219  10.420
 5989CHOL    R377268  -6.192  17.012  10.431
 5989CHOL    R477269  -6.041  17.165  10.414
 5989CHOL    R577270  -6.045  16.950  10.425
 5989CHOL    C177271  -5.824  16.856  10.416
 5989CHOL    C277272  -5.603  16.762  10.408
 5990CHOL   ROH77273   2.223   9.539  26.108
 5990CHOL    R177274   2.288   9.540  25.962
 5990CHOL    R277275   2.427   9.367  25.891
 5990CHOL    R377276   2.361   9.541  25.797
 5990CHOL    R477277   2.483   9.368  25.763
 5990CHOL    R577278   2.426   9.542  25.651
 5990CHOL    C177279   2.523   9.544  25.432
 5990CHOL    C277280   2.620   9.546  25.212
 5991CHOL   ROH77281  -0.891  19.010  20.939
 5991CHOL    R177282  -0.796  18.931  20.837
 5991CHOL    R277283  -0.585  19.015  20.781
 5991CHOL    R377284  -0.688  18.843  20.723
 5991CHOL    R477285  -0.502  18.946  20.692
 5991CHOL    R577286  -0.593  18.765  20.621
 5991CHOL    C177287  -0.450  18.647  20.469
 5991CHOL    C277288  -0.307  18.529  20.317
 5992CHOL   ROH77289   5.307  23.955  20.077
 5992CHOL    R177290   5.349  23.834  19.981
 5992CHOL    R277291   5.501  23.864  19.808
 5992CHOL    R377292   5.396  23.697  19.874
 5992CHOL    R477293   5.538  23.758  19.724
 5992CHOL    R577294   5.438  23.576  19.778
 5992CHOL    C177295   5.500  23.393  19.635
 5992CHOL    C277296   5.563  23.211  19.492
 5993CHOL   ROH77297   7.512  19.951  24.573
 5993CHOL    R177298   7.534  19.860  24.443
 5993CHOL    R277299   7.737  19.864  24.327
 5993CHOL    R377300   7.559  19.757  24.298
 5993CHOL    R477301   7.756  19.784  24.214
 5993CHOL    R577302   7.581  19.666  24.168
 5993CHOL    C177303   7.615  19.529  23.974
 5993CHOL    C277304   7.648  19.392  23.779
 5994CHOL   ROH77305  11.819  10.620  -7.849
 5994CHOL    R177306  11.803  10.614  -7.690
 5994CHOL    R277307  11.633  10.731  -7.582
 5994CHOL    R377308  11.785  10.607  -7.511
 5994CHOL    R477309  11.619  10.726  -7.443
 5994CHOL    R577310  11.769  10.601  -7.352
 5994CHOL    C177311  11.744  10.591  -7.113
 5994CHOL    C277312  11.720  10.582  -6.875
 5995CHOL   ROH77313  20.565  11.587  -4.258
 5995CHOL    R177314  20.469  11.573  -4.130
 5995CHOL    R277315  20.445  11.369  -4.020
 5995CHOL    R377316  20.362  11.557  -3.987
 5995CHOL    R477317  20.361  11.357  -3.909
 5995CHOL    R577318  20.266  11.543  -3.860
 5995CHOL    C177319  20.122  11.523  -3.668
 5995CHOL    C277320  19.979  11.502  -3.477
 5996CHOL   ROH77321  27.167  13.795  11.918
 5996CHOL    R177322  27.011  13.763  11.898
 5996CHOL    R277323  26.908  13.792  11.692
 5996CHOL    R377324  26.837  13.726  11.877
 5996CHOL    R477325  26.772  13.764  11.675
 5996CHOL    R577326  26.681  13.694  11.857
 5996CHOL    C177327  26.448  13.646  11.828
 5996CHOL    C277328  26.214  13.597  11.798
 5997CHOL   ROH77329  12.975  14.650  -6.995
 5997CHOL    R177330  12.947  14.607  -6.843
 5997CHOL    R277331  13.118  14.520  -6.710
 5997CHOL    R377332  12.917  14.558  -6.673
 5997CHOL    R477333  13.094  14.482  -6.578
 5997CHOL    R577334  12.889  14.515  -6.522
 5997CHOL    C177335  12.848  14.450  -6.294
 5997CHOL    C277336  12.806  14.385  -6.067
 5998CHOL   ROH77337  19.415   7.406  -4.879
 5998CHOL    R177338  19.332   7.430  -4.744
 5998CHOL    R277339  19.259   7.643  -4.685
 5998CHOL    R377340  19.239   7.457  -4.593
 5998CHOL    R477341  19.187   7.664  -4.567
 5998CHOL    R577342  19.155   7.480  -4.459
 5998CHOL    C177343  19.031   7.516  -4.257
 5998CHOL    C277344  18.906   7.552  -4.055
 5999CHOL   ROH77345  -6.011   5.656   2.925
 5999CHOL    R177346  -5.868   5.690   2.987
 5999CHOL    R277347  -5.848   5.829   3.174
 5999CHOL    R377348  -5.706   5.729   3.057
 5999CHOL    R477349  -5.722   5.859   3.228
 5999CHOL    R577350  -5.563   5.763   3.119
 5999CHOL    C177351  -5.348   5.814   3.213
 5999CHOL    C277352  -5.133   5.866   3.306
 6000CHOL   ROH77353  13.821  -6.927   5.662
 6000CHOL    R177354  13.779  -6.777   5.700
 6000CHOL    R277355  13.807  -6.603   5.548
 6000CHOL    R377356  13.733  -6.609   5.743
 6000CHOL    R477357  13.770  -6.472   5.582
 6000CHOL    R577358  13.691  -6.460   5.781
 6000CHOL    C177359  13.629  -6.235   5.839
 6000CHOL    C277360  13.566  -6.011   5.896
 6001CHOL   ROH77361  -0.623  22.584   3.010
 6001CHOL    R177362  -0.531  22.468   3.071
 6001CHOL    R277363  -0.299  22.493   3.084
 6001CHOL    R377364  -0.427  22.338   3.140
 6001CHOL    R477365  -0.219  22.392   3.137
 6001CHOL    R577366  -0.335  22.222   3.200
 6001CHOL    C177367  -0.197  22.048   3.292
 6001CHOL    C277368  -0.059  21.874   3.383
 6002CHOL   ROH77369  14.772  12.368  -7.073
 6002CHOL    R177370  14.729  12.346  -6.921
 6002CHOL    R277371  14.533  12.231  -6.867
 6002CHOL    R377372  14.680  12.320  -6.749
 6002CHOL    R477373  14.495  12.211  -6.734
 6002CHOL    R577374  14.636  12.298  -6.597
 6002CHOL    C177375  14.571  12.264  -6.369
 6002CHOL    C277376  14.506  12.231  -6.140
 6003CHOL   ROH77377  -6.311  17.588   9.216
 6003CHOL    R177378  -6.165  17.522   9.222
 6003CHOL    R277379  -5.974  17.655   9.229
 6003CHOL    R377380  -6.001  17.448   9.229
 6003CHOL    R477381  -5.846  17.598   9.234
 6003CHOL    R577382  -5.856  17.383   9.234
 6003CHOL    C177383  -5.637  17.284   9.243
 6003CHOL    C277384  -5.418  17.185   9.252
 6004CHOL   ROH77385  20.162  23.195   3.686
 6004CHOL    R177386  20.068  23.081   3.748
 6004CHOL    R277387  19.893  22.989   3.625
 6004CHOL    R377388  19.963  22.954   3.819
 6004CHOL    R477389  19.811  22.890   3.680
 6004CHOL    R577390  19.869  22.840   3.881
 6004CHOL    C177391  19.728  22.670   3.975
 6004CHOL    C277392  19.588  22.499   4.068
 6005CHOL   ROH77393  -4.110  20.957   7.638
 6005CHOL    R177394  -3.986  20.858   7.658
 6005CHOL    R277395  -3.985  20.700   7.829
 6005CHOL    R377396  -3.846  20.746   7.680
 6005CHOL    R477397  -3.876  20.613   7.847
 6005CHOL    R577398  -3.722  20.647   7.700
 6005CHOL    C177399  -3.536  20.498   7.729
 6005CHOL    C277400  -3.350  20.349   7.759
 6006CHOL   ROH77401  24.826  19.322  12.658
 6006CHOL    R177402  24.692  19.238  12.633
 6006CHOL    R277403  24.651  19.137  12.427
 6006CHOL    R377404  24.541  19.143  12.605
 6006CHOL    R477405  24.533  19.064  12.405
 6006CHOL    R577406  24.407  19.059  12.579
 6006CHOL    C177407  24.207  18.933  12.542
 6006CHOL    C277408  24.006  18.807  12.504
 6007CHOL   ROH77409  -7.705  12.808   8.452
 6007CHOL    R177410  -7.548  12.783   8.470
 6007CHOL    R277411  -7.468  12.589   8.572
 6007CHOL    R377412  -7.371  12.755   8.491
 6007CHOL    R477413  -7.331  12.567   8.588
 6007CHOL    R577414  -7.214  12.730   8.509
 6007CHOL    C177415  -6.979  12.693   8.537
 6007CHOL    C277416  -6.744  12.656   8.565
 6008CHOL   ROH77417   0.101   8.396  24.859
 6008CHOL    R177418   0.191   8.416  24.728
 6008CHOL    R277419   0.278   8.625  24.674
 6008CHOL    R377420   0.293   8.438  24.582
 6008CHOL    R477421   0.357   8.642  24.559
 6008CHOL    R577422   0.383   8.458  24.451
 6008CHOL    C177423   0.518   8.488  24.255
 6008CHOL    C277424   0.654   8.518  24.059
 6009CHOL   ROH77425  13.473   3.991  -6.496
 6009CHOL    R177426  13.442   4.045  -6.348
 6009CHOL    R277427  13.447   4.273  -6.300
 6009CHOL    R377428  13.407   4.105  -6.183
 6009CHOL    R477429  13.420   4.320  -6.171
 6009CHOL    R577430  13.376   4.159  -6.035
 6009CHOL    C177431  13.329   4.239  -5.814
 6009CHOL    C277432  13.282   4.319  -5.592
 6010CHOL   ROH77433  17.272  17.413  24.383
 6010CHOL    R177434  17.204  17.347  24.254
 6010CHOL    R277435  17.173  17.471  24.059
 6010CHOL    R377436  17.128  17.273  24.108
 6010CHOL    R477437  17.114  17.414  23.945
 6010CHOL    R577438  17.060  17.208  23.979
 6010CHOL    C177439  16.959  17.109  23.785
 6010CHOL    C277440  16.857  17.010  23.591
 6011CHOL   ROH77441  -0.349   4.390  23.348
 6011CHOL    R177442  -0.256   4.442  23.229
 6011CHOL    R277443  -0.034   4.373  23.210
 6011CHOL    R377444  -0.152   4.502  23.094
 6011CHOL    R477445   0.047   4.419  23.105
 6011CHOL    R577446  -0.060   4.554  22.975
 6011CHOL    C177447   0.079   4.633  22.796
 6011CHOL    C277448   0.218   4.711  22.617
 6012CHOL   ROH77449   6.759  -2.642  22.182
 6012CHOL    R177450   6.787  -2.528  22.074
 6012CHOL    R277451   6.810  -2.305  22.138
 6012CHOL    R377452   6.819  -2.399  21.952
 6012CHOL    R477453   6.835  -2.205  22.043
 6012CHOL    R577454   6.847  -2.285  21.844
 6012CHOL    C177455   6.890  -2.114  21.681
 6012CHOL    C277456   6.932  -1.942  21.519
 6013CHOL   ROH77457  13.457  -6.442   3.807
 6013CHOL    R177458  13.421  -6.296   3.861
 6013CHOL    R277459  13.488  -6.105   3.745
 6013CHOL    R377460  13.380  -6.131   3.922
 6013CHOL    R477461  13.456  -5.977   3.792
 6013CHOL    R577462  13.344  -5.985   3.976
 6013CHOL    C177463  13.290  -5.766   4.057
 6013CHOL    C277464  13.236  -5.546   4.138
 6014CHOL   ROH77465   7.877   0.427  24.870
 6014CHOL    R177466   7.894   0.508  24.733
 6014CHOL    R277467   7.996   0.718  24.730
 6014CHOL    R377468   7.913   0.599  24.579
 6014CHOL    R477469   8.011   0.789  24.610
 6014CHOL    R577470   7.930   0.681  24.442
 6014CHOL    C177471   7.955   0.802  24.237
 6014CHOL    C277472   7.981   0.924  24.032
 6015CHOL   ROH77473  22.958  22.185   9.878
 6015CHOL    R177474  22.841  22.076   9.878
 6015CHOL    R277475  22.871  21.866   9.974
 6015CHOL    R377476  22.708  21.954   9.877
 6015CHOL    R477477  22.768  21.771   9.974
 6015CHOL    R577478  22.591  21.846   9.877
 6015CHOL    C177479  22.415  21.683   9.876
 6015CHOL    C277480  22.239  21.520   9.875
 6016CHOL   ROH77481  24.288   1.895   3.131
 6016CHOL    R177482  24.159   1.968   3.193
 6016CHOL    R277483  24.147   2.200   3.205
 6016CHOL    R377484  24.015   2.049   3.262
 6016CHOL    R477485  24.035   2.264   3.258
 6016CHOL    R577486  23.886   2.122   3.323
 6016CHOL    C177487  23.693   2.231   3.416
 6016CHOL    C277488  23.500   2.340   3.508
 6017CHOL   ROH77489   5.434   8.529  -7.302
 6017CHOL    R177490   5.472   8.541  -7.147
 6017CHOL    R277491   5.321   8.477  -6.981
 6017CHOL    R377492   5.515   8.556  -6.973
 6017CHOL    R477493   5.355   8.488  -6.845
 6017CHOL    R577494   5.553   8.568  -6.818
 6017CHOL    C177495   5.610   8.587  -6.586
 6017CHOL    C277496   5.667   8.605  -6.353
 6018CHOL   ROH77497  20.806  19.336  -0.623
 6018CHOL    R177498  20.708  19.249  -0.531
 6018CHOL    R277499  20.791  19.074  -0.400
 6018CHOL    R377500  20.599  19.150  -0.428
 6018CHOL    R477501  20.706  18.998  -0.320
 6018CHOL    R577502  20.501  19.063  -0.336
 6018CHOL    C177503  20.355  18.932  -0.198
 6018CHOL    C277504  20.208  18.801  -0.060
 6019CHOL   ROH77505  19.866  18.194  -2.375
 6019CHOL    R177506  19.778  18.121  -2.263
 6019CHOL    R277507  19.851  17.923  -2.164
 6019CHOL    R377508  19.679  18.038  -2.138
 6019CHOL    R477509  19.774  17.858  -2.066
 6019CHOL    R577510  19.591  17.965  -2.026
 6019CHOL    C177511  19.459  17.855  -1.858
 6019CHOL    C277512  19.327  17.745  -1.691
 6020CHOL   ROH77513  27.529  11.197  11.622
 6020CHOL    R177514  27.370  11.188  11.608
 6020CHOL    R277515  27.255  11.321  11.455
 6020CHOL    R377516  27.191  11.177  11.592
 6020CHOL    R477517  27.116  11.313  11.443
 6020CHOL    R577518  27.032  11.167  11.578
 6020CHOL    C177519  26.793  11.153  11.558
 6020CHOL    C277520  26.555  11.139  11.537
 6021CHOL   ROH77521  -1.205  23.709   7.637
 6021CHOL    R177522  -1.109  23.583   7.658
 6021CHOL    R277523  -0.907  23.565   7.544
 6021CHOL    R377524  -1.001  23.440   7.682
 6021CHOL    R477525  -0.823  23.454   7.562
 6021CHOL    R577526  -0.905  23.314   7.703
 6021CHOL    C177527  -0.762  23.124   7.735
 6021CHOL    C277528  -0.618  22.935   7.766
 6022CHOL   ROH77529  17.788  23.870   2.015
 6022CHOL    R177530  17.717  23.747   2.089
 6022CHOL    R277531  17.549  23.624   1.983
 6022CHOL    R377532  17.638  23.608   2.172
 6022CHOL    R477533  17.487  23.516   2.048
 6022CHOL    R577534  17.567  23.485   2.246
 6022CHOL    C177535  17.461  23.300   2.356
 6022CHOL    C277536  17.355  23.115   2.467
 6023CHOL   ROH77537   9.596  -1.095  -4.084
 6023CHOL    R177538   9.596  -0.996  -3.958
 6023CHOL    R277539   9.755  -1.017  -3.789
 6023CHOL    R377540   9.595  -0.886  -3.816
 6023CHOL    R477541   9.755  -0.930  -3.679
 6023CHOL    R577542   9.594  -0.787  -3.690
 6023CHOL    C177543   9.594  -0.639  -3.501
 6023CHOL    C277544   9.593  -0.491  -3.312
 6024CHOL   ROH77545  -6.544   9.798   2.955
 6024CHOL    R177546  -6.396   9.800   3.015
 6024CHOL    R277547  -6.345   9.686   3.212
 6024CHOL    R377548  -6.229   9.802   3.083
 6024CHOL    R477549  -6.215   9.688   3.265
 6024CHOL    R577550  -6.081   9.805   3.143
 6024CHOL    C177551  -5.859   9.808   3.234
 6024CHOL    C277552  -5.637   9.811   3.324
 6025CHOL   ROH77553   3.370  23.992   1.005
 6025CHOL    R177554   3.428  23.867   1.086
 6025CHOL    R277555   3.554  23.897   1.280
 6025CHOL    R377556   3.494  23.726   1.177
 6025CHOL    R477557   3.605  23.788   1.350
 6025CHOL    R577558   3.552  23.601   1.257
 6025CHOL    C177559   3.640  23.413   1.379
 6025CHOL    C277560   3.728  23.226   1.500
 6026CHOL   ROH77561  19.141  -5.066  12.274
 6026CHOL    R177562  19.058  -4.931  12.253
 6026CHOL    R277563  19.167  -4.726  12.231
 6026CHOL    R377564  18.965  -4.779  12.229
 6026CHOL    R477565  19.094  -4.607  12.213
 6026CHOL    R577566  18.882  -4.644  12.208
 6026CHOL    C177567  18.758  -4.441  12.177
 6026CHOL    C277568  18.633  -4.238  12.146
 6027CHOL   ROH77569   5.614  11.825  -7.324
 6027CHOL    R177570   5.651  11.810  -7.169
 6027CHOL    R277571   5.774  11.975  -7.059
 6027CHOL    R377572   5.693  11.794  -6.995
 6027CHOL    R477573   5.806  11.963  -6.923
 6027CHOL    R577574   5.731  11.779  -6.840
 6027CHOL    C177575   5.786  11.757  -6.608
 6027CHOL    C277576   5.842  11.735  -6.375
 6028CHOL   ROH77577  19.780  22.954   2.750
 6028CHOL    R177578  19.689  22.842   2.820
 6028CHOL    R277579  19.555  22.699   2.694
 6028CHOL    R377580  19.587  22.717   2.899
 6028CHOL    R477581  19.476  22.602   2.755
 6028CHOL    R577582  19.497  22.606   2.970
 6028CHOL    C177583  19.360  22.438   3.075
 6028CHOL    C277584  19.224  22.271   3.180
 6029CHOL   ROH77585  21.995  21.372   3.525
 6029CHOL    R177586  21.888  21.269   3.585
 6029CHOL    R277587  21.889  21.045   3.523
 6029CHOL    R377588  21.768  21.154   3.653
 6029CHOL    R477589  21.796  20.955   3.576
 6029CHOL    R577590  21.660  21.051   3.713
 6029CHOL    C177591  21.500  20.898   3.803
 6029CHOL    C277592  21.339  20.744   3.893
 6030CHOL   ROH77593  -7.438  14.412  10.757
 6030CHOL    R177594  -7.284  14.370  10.750
 6030CHOL    R277595  -7.204  14.185  10.868
 6030CHOL    R377596  -7.110  14.323  10.742
 6030CHOL    R477597  -7.069  14.148  10.862
 6030CHOL    R577598  -6.956  14.281  10.735
 6030CHOL    C177599  -6.725  14.217  10.725
 6030CHOL    C277600  -6.493  14.154  10.715
 6031CHOL   ROH77601   6.308  22.359  22.217
 6031CHOL    R177602   6.340  22.248  22.106
 6031CHOL    R277603   6.547  22.242  21.999
 6031CHOL    R377604   6.376  22.123  21.982
 6031CHOL    R477605   6.575  22.145  21.902
 6031CHOL    R577606   6.408  22.012  21.871
 6031CHOL    C177607   6.456  21.846  21.705
 6031CHOL    C277608   6.504  21.680  21.539
 6032CHOL   ROH77609  11.994  -7.640   7.606
 6032CHOL    R177610  11.977  -7.482   7.624
 6032CHOL    R277611  12.048  -7.374   7.818
 6032CHOL    R377612  11.957  -7.304   7.644
 6032CHOL    R477613  12.033  -7.236   7.833
 6032CHOL    R577614  11.939  -7.146   7.661
 6032CHOL    C177615  11.913  -6.909   7.688
 6032CHOL    C277616  11.887  -6.672   7.715
 6033CHOL   ROH77617  -7.313  14.053  12.843
 6033CHOL    R177618  -7.160  14.014  12.817
 6033CHOL    R277619  -6.996  14.059  12.977
 6033CHOL    R377620  -6.988  13.970  12.788
 6033CHOL    R477621  -6.862  14.025  12.954
 6033CHOL    R577622  -6.835  13.931  12.762
 6033CHOL    C177623  -6.606  13.872  12.724
 6033CHOL    C277624  -6.376  13.814  12.685
 6034CHOL   ROH77625  10.810  14.066  27.274
 6034CHOL    R177626  10.799  14.026  27.120
 6034CHOL    R277627  10.990  13.997  26.989
 6034CHOL    R377628  10.786  13.981  26.946
 6034CHOL    R477629  10.980  13.961  26.854
 6034CHOL    R577630  10.775  13.941  26.791
 6034CHOL    C177631  10.757  13.880  26.560
 6034CHOL    C277632  10.740  13.820  26.328
 6035CHOL   ROH77633  15.990   6.808  -6.473
 6035CHOL    R177634  15.931   6.837  -6.327
 6035CHOL    R277635  15.705   6.887  -6.297
 6035CHOL    R377636  15.865   6.869  -6.163
 6035CHOL    R477637  15.653   6.912  -6.169
 6035CHOL    R577638  15.806   6.897  -6.017
 6035CHOL    C177639  15.717   6.940  -5.798
 6035CHOL    C277640  15.628   6.983  -5.579
 6036CHOL   ROH77641  11.908  24.174  -0.725
 6036CHOL    R177642  11.894  24.046  -0.629
 6036CHOL    R277643  12.075  23.903  -0.594
 6036CHOL    R377644  11.879  23.903  -0.522
 6036CHOL    R477645  12.063  23.792  -0.510
 6036CHOL    R577646  11.865  23.776  -0.426
 6036CHOL    C177647  11.844  23.584  -0.282
 6036CHOL    C277648  11.824  23.393  -0.139
 6037CHOL   ROH77649  -7.023   4.275   9.684
 6037CHOL    R177650  -6.872   4.327   9.689
 6037CHOL    R277651  -6.700   4.190   9.767
 6037CHOL    R377652  -6.702   4.386   9.694
 6037CHOL    R477653  -6.567   4.236   9.771
 6037CHOL    R577654  -6.550   4.438   9.699
 6037CHOL    C177655  -6.324   4.516   9.705
 6037CHOL    C277656  -6.097   4.594   9.712
 6038CHOL   ROH77657  15.488  -3.080  20.686
 6038CHOL    R177658  15.440  -2.964  20.586
 6038CHOL    R277659  15.438  -2.998  20.356
 6038CHOL    R377660  15.386  -2.834  20.474
 6038CHOL    R477661  15.396  -2.897  20.268
 6038CHOL    R577662  15.339  -2.719  20.374
 6038CHOL    C177663  15.267  -2.545  20.225
 6038CHOL    C277664  15.195  -2.371  20.075
 6039CHOL   ROH77665  17.670  22.055  -0.618
 6039CHOL    R177666  17.596  21.945  -0.529
 6039CHOL    R277667  17.592  21.721  -0.595
 6039CHOL    R377668  17.512  21.820  -0.429
 6039CHOL    R477669  17.527  21.624  -0.517
 6039CHOL    R577670  17.438  21.710  -0.340
 6039CHOL    C177671  17.327  21.544  -0.207
 6039CHOL    C277672  17.215  21.379  -0.073
 6040CHOL   ROH77673  -1.378  14.508  -3.170
 6040CHOL    R177674  -1.279  14.470  -3.050
 6040CHOL    R277675  -1.358  14.452  -2.831
 6040CHOL    R377676  -1.169  14.427  -2.915
 6040CHOL    R477677  -1.272  14.419  -2.726
 6040CHOL    R577678  -1.070  14.390  -2.795
 6040CHOL    C177679  -0.922  14.333  -2.614
 6040CHOL    C277680  -0.774  14.276  -2.434
 6041CHOL   ROH77681  -3.041  18.182  19.187
 6041CHOL    R177682  -2.927  18.107  19.104
 6041CHOL    R277683  -2.729  18.217  19.045
 6041CHOL    R377684  -2.798  18.023  19.010
 6041CHOL    R477685  -2.629  18.151  18.972
 6041CHOL    R577686  -2.683  17.948  18.927
 6041CHOL    C177687  -2.512  17.836  18.802
 6041CHOL    C277688  -2.340  17.723  18.677
 6042CHOL   ROH77689  -3.434   5.146  -1.001
 6042CHOL    R177690  -3.315   5.188  -0.902
 6042CHOL    R277691  -3.328   5.142  -0.674
 6042CHOL    R377692  -3.182   5.235  -0.791
 6042CHOL    R477693  -3.224   5.178  -0.587
 6042CHOL    R577694  -3.063   5.277  -0.692
 6042CHOL    C177695  -2.885   5.339  -0.544
 6042CHOL    C277696  -2.707   5.402  -0.395
 6043CHOL   ROH77697  26.781   5.871  13.891
 6043CHOL    R177698  26.629   5.909  13.856
 6043CHOL    R277699  26.516   5.805  13.682
 6043CHOL    R377700  26.459   5.952  13.818
 6043CHOL    R477701  26.384   5.838  13.651
 6043CHOL    R577702  26.308   5.991  13.783
 6043CHOL    C177703  26.080   6.048  13.731
 6043CHOL    C277704  25.853   6.105  13.679
 6044CHOL   ROH77705  -2.076  21.724   3.770
 6044CHOL    R177706  -1.973  21.615   3.826
 6044CHOL    R277707  -1.999  21.522   4.038
 6044CHOL    R377708  -1.857  21.492   3.888
 6044CHOL    R477709  -1.909  21.427   4.087
 6044CHOL    R577710  -1.754  21.383   3.944
 6044CHOL    C177711  -1.599  21.220   4.028
 6044CHOL    C277712  -1.444  21.057   4.111
 6045CHOL   ROH77713  16.241  15.606  -5.790
 6045CHOL    R177714  16.186  15.553  -5.649
 6045CHOL    R277715  16.181  15.325  -5.600
 6045CHOL    R377716  16.125  15.494  -5.491
 6045CHOL    R477717  16.133  15.279  -5.477
 6045CHOL    R577718  16.070  15.442  -5.350
 6045CHOL    C177719  15.988  15.363  -5.139
 6045CHOL    C277720  15.906  15.284  -4.928
 6046CHOL   ROH77721  26.837  11.264   4.581
 6046CHOL    R177722  26.684  11.256   4.628
 6046CHOL    R277723  26.556  11.065   4.588
 6046CHOL    R377724  26.513  11.246   4.681
 6046CHOL    R477725  26.423  11.058   4.629
 6046CHOL    R577726  26.360  11.238   4.729
 6046CHOL    C177727  26.131  11.226   4.799
 6046CHOL    C277728  25.902  11.213   4.870
 6047CHOL   ROH77729   6.075  22.208  -2.481
 6047CHOL    R177730   6.105  22.095  -2.372
 6047CHOL    R277731   6.294  22.108  -2.235
 6047CHOL    R377732   6.139  21.968  -2.249
 6047CHOL    R477733   6.321  22.009  -2.140
 6047CHOL    R577734   6.170  21.855  -2.140
 6047CHOL    C177735   6.215  21.686  -1.976
 6047CHOL    C277736   6.260  21.517  -1.812
 6048CHOL   ROH77737  15.725  23.894  19.442
 6048CHOL    R177738  15.673  23.769  19.357
 6048CHOL    R277739  15.741  23.552  19.409
 6048CHOL    R377740  15.614  23.628  19.262
 6048CHOL    R477741  15.695  23.442  19.335
 6048CHOL    R577742  15.562  23.503  19.177
 6048CHOL    C177743  15.484  23.315  19.050
 6048CHOL    C277744  15.406  23.127  18.923
 6049CHOL   ROH77745  17.014  25.979  13.376
 6049CHOL    R177746  16.952  25.833  13.353
 6049CHOL    R277747  17.082  25.660  13.266
 6049CHOL    R377748  16.883  25.669  13.328
 6049CHOL    R477749  17.029  25.533  13.246
 6049CHOL    R577750  16.822  25.523  13.306
 6049CHOL    C177751  16.729  25.304  13.272
 6049CHOL    C277752  16.637  25.085  13.238
 6050CHOL   ROH77753  13.570  -0.367  23.967
 6050CHOL    R177754  13.538  -0.270  23.844
 6050CHOL    R277755  13.617  -0.318  23.630
 6050CHOL    R377756  13.502  -0.161  23.706
 6050CHOL    R477757  13.589  -0.233  23.522
 6050CHOL    R577758  13.471  -0.063  23.582
 6050CHOL    C177759  13.423   0.082  23.398
 6050CHOL    C277760  13.375   0.228  23.213
 6051CHOL   ROH77761  -3.056  17.963   0.512
 6051CHOL    R177762  -2.938  17.891   0.593
 6051CHOL    R277763  -2.810  18.009   0.748
 6051CHOL    R377764  -2.806  17.810   0.685
 6051CHOL    R477765  -2.707  17.946   0.819
 6051CHOL    R577766  -2.688  17.739   0.766
 6051CHOL    C177767  -2.512  17.631   0.888
 6051CHOL    C277768  -2.336  17.523   1.010
 6052CHOL   ROH77769  -1.071  23.111  15.156
 6052CHOL    R177770  -0.976  22.992  15.106
 6052CHOL    R277771  -0.837  22.879  15.254
 6052CHOL    R377772  -0.870  22.859  15.049
 6052CHOL    R477773  -0.754  22.775  15.210
 6052CHOL    R577774  -0.775  22.740  14.999
 6052CHOL    C177775  -0.633  22.562  14.923
 6052CHOL    C277776  -0.491  22.384  14.847
 6053CHOL   ROH77777   7.437  -0.258  -4.536
 6053CHOL    R177778   7.458  -0.164  -4.408
 6053CHOL    R277779   7.620  -0.215  -4.248
 6053CHOL    R377780   7.482  -0.059  -4.264
 6053CHOL    R477781   7.638  -0.133  -4.136
 6053CHOL    R577782   7.503   0.035  -4.136
 6053CHOL    C177783   7.535   0.175  -3.944
 6053CHOL    C277784   7.566   0.315  -3.752
 6054CHOL   ROH77785  19.669  -1.725  19.138
 6054CHOL    R177786  19.581  -1.622  19.053
 6054CHOL    R277787  19.561  -1.399  19.117
 6054CHOL    R377788  19.482  -1.506  18.957
 6054CHOL    R477789  19.484  -1.309  19.043
 6054CHOL    R577790  19.394  -1.404  18.872
 6054CHOL    C177791  19.262  -1.249  18.744
 6054CHOL    C277792  19.130  -1.095  18.616
 6055CHOL   ROH77793  27.561  11.054   8.231
 6055CHOL    R177794  27.402  11.048   8.244
 6055CHOL    R277795  27.271  11.236   8.201
 6055CHOL    R377796  27.222  11.041   8.258
 6055CHOL    R477797  27.131  11.231   8.212
 6055CHOL    R577798  27.063  11.035   8.271
 6055CHOL    C177799  26.824  11.026   8.290
 6055CHOL    C277800  26.585  11.017   8.309
 6056CHOL   ROH77801  23.574  -1.451  10.960
 6056CHOL    R177802  23.451  -1.349  10.951
 6056CHOL    R277803  23.484  -1.119  10.975
 6056CHOL    R377804  23.313  -1.234  10.941
 6056CHOL    R477805  23.377  -1.030  10.967
 6056CHOL    R577806  23.191  -1.131  10.932
 6056CHOL    C177807  23.006  -0.978  10.919
 6056CHOL    C277808  22.822  -0.825  10.905
 6057CHOL   ROH77809  -0.017  10.015  24.880
 6057CHOL    R177810   0.075  10.010  24.749
 6057CHOL    R277811   0.227  10.181  24.703
 6057CHOL    R377812   0.179  10.004  24.602
 6057CHOL    R477813   0.307  10.177  24.588
 6057CHOL    R577814   0.271   9.999  24.471
 6057CHOL    C177815   0.409   9.992  24.275
 6057CHOL    C277816   0.547   9.985  24.079
 6058CHOL   ROH77817  -3.406   6.970  21.514
 6058CHOL    R177818  -3.287   6.996  21.410
 6058CHOL    R277819  -3.118   7.150  21.458
 6058CHOL    R377820  -3.153   7.026  21.294
 6058CHOL    R477821  -3.014   7.173  21.368
 6058CHOL    R577822  -3.034   7.052  21.191
 6058CHOL    C177823  -2.855   7.092  21.035
 6058CHOL    C277824  -2.676   7.132  20.880
 6059CHOL   ROH77825  27.236  12.845  12.645
 6059CHOL    R177826  27.080  12.821  12.621
 6059CHOL    R277827  26.968  12.923  12.444
 6059CHOL    R377828  26.903  12.794  12.595
 6059CHOL    R477829  26.831  12.903  12.423
 6059CHOL    R577830  26.747  12.770  12.571
 6059CHOL    C177831  26.512  12.735  12.535
 6059CHOL    C277832  26.278  12.699  12.500
 6060CHOL   ROH77833  -5.868  16.564  15.373
 6060CHOL    R177834  -5.727  16.504  15.326
 6060CHOL    R277835  -5.559  16.644  15.244
 6060CHOL    R377836  -5.569  16.437  15.273
 6060CHOL    R477837  -5.436  16.592  15.203
 6060CHOL    R577838  -5.428  16.378  15.226
 6060CHOL    C177839  -5.217  16.288  15.155
 6060CHOL    C277840  -5.006  16.198  15.085
 6061CHOL   ROH77841   9.317  27.748  11.501
 6061CHOL    R177842   9.320  27.589  11.488
 6061CHOL    R277843   9.509  27.478  11.409
 6061CHOL    R377844   9.322  27.409  11.473
 6061CHOL    R477845   9.512  27.338  11.398
 6061CHOL    R577846   9.325  27.250  11.460
 6061CHOL    C177847   9.329  27.011  11.440
 6061CHOL    C277848   9.333  26.772  11.420
 6062CHOL   ROH77849  21.472   0.108  19.235
 6062CHOL    R177850  21.372   0.198  19.149
 6062CHOL    R277851  21.448   0.323  18.968
 6062CHOL    R377852  21.258   0.298  19.051
 6062CHOL    R477853  21.360   0.402  18.892
 6062CHOL    R577854  21.158   0.388  18.965
 6062CHOL    C177855  21.007   0.522  18.835
 6062CHOL    C277856  20.857   0.657  18.706
 6063CHOL   ROH77857  -4.508  17.821  17.102
 6063CHOL    R177858  -4.380  17.749  17.038
 6063CHOL    R277859  -4.211  17.662  17.174
 6063CHOL    R377860  -4.237  17.667  16.967
 6063CHOL    R477861  -4.100  17.599  17.118
 6063CHOL    R577862  -4.109  17.594  16.903
 6063CHOL    C177863  -3.917  17.486  16.807
 6063CHOL    C277864  -3.726  17.377  16.712
 6064CHOL   ROH77865  27.406   9.258  12.996
 6064CHOL    R177866  27.248   9.262  12.973
 6064CHOL    R277867  27.157   9.335  12.771
 6064CHOL    R377868  27.069   9.266  12.948
 6064CHOL    R477869  27.019   9.338  12.751
 6064CHOL    R577870  26.911   9.270  12.925
 6064CHOL    C177871  26.673   9.276  12.891
 6064CHOL    C277872  26.436   9.282  12.857
 6065CHOL   ROH77873  -3.527  21.825   9.467
 6065CHOL    R177874  -3.409  21.717   9.470
 6065CHOL    R277875  -3.226  21.743   9.612
 6065CHOL    R377876  -3.276  21.596   9.472
 6065CHOL    R477877  -3.122  21.649   9.614
 6065CHOL    R577878  -3.158  21.488   9.475
 6065CHOL    C177879  -2.981  21.326   9.479
 6065CHOL    C277880  -2.804  21.164   9.483
 6066CHOL   ROH77881  -4.553  20.285   7.254
 6066CHOL    R177882  -4.424  20.193   7.278
 6066CHOL    R277883  -4.432  20.011   7.424
 6066CHOL    R377884  -4.280  20.090   7.305
 6066CHOL    R477885  -4.320  19.931   7.445
 6066CHOL    R577886  -4.151  19.998   7.330
 6066CHOL    C177887  -3.958  19.860   7.366
 6066CHOL    C277888  -3.765  19.722   7.402
 6067CHOL   ROH77889  -1.077  18.682  21.014
 6067CHOL    R177890  -0.980  18.606  20.912
 6067CHOL    R277891  -0.774  18.696  20.852
 6067CHOL    R377892  -0.872  18.520  20.796
 6067CHOL    R477893  -0.689  18.630  20.762
 6067CHOL    R577894  -0.775  18.444  20.694
 6067CHOL    C177895  -0.630  18.330  20.540
 6067CHOL    C277896  -0.485  18.216  20.387
 6068CHOL   ROH77897  26.613  16.103  10.423
 6068CHOL    R177898  26.464  16.044  10.421
 6068CHOL    R277899  26.425  15.820  10.371
 6068CHOL    R377900  26.297  15.978  10.419
 6068CHOL    R477901  26.295  15.768  10.369
 6068CHOL    R577902  26.149  15.919  10.417
 6068CHOL    C177903  25.926  15.830  10.414
 6068CHOL    C277904  25.703  15.741  10.411
 6069CHOL   ROH77905   4.171   7.796  -6.865
 6069CHOL    R177906   4.221   7.815  -6.714
 6069CHOL    R277907   4.235   7.632  -6.569
 6069CHOL    R377908   4.277   7.835  -6.544
 6069CHOL    R477909   4.278   7.649  -6.437
 6069CHOL    R577910   4.328   7.854  -6.394
 6069CHOL    C177911   4.403   7.882  -6.167
 6069CHOL    C277912   4.478   7.910  -5.941
 6070CHOL   ROH77913  11.666   6.662  27.398
 6070CHOL    R177914  11.647   6.692  27.242
 6070CHOL    R277915  11.635   6.519  27.087
 6070CHOL    R377916  11.626   6.726  27.066
 6070CHOL    R477917  11.619   6.545  26.950
 6070CHOL    R577918  11.607   6.757  26.910
 6070CHOL    C177919  11.578   6.802  26.676
 6070CHOL    C277920  11.549   6.847  26.442
 6071CHOL   ROH77921  19.078  24.125  15.615
 6071CHOL    R177922  18.992  24.002  15.560
 6071CHOL    R277923  18.976  23.959  15.331
 6071CHOL    R377924  18.895  23.864  15.498
 6071CHOL    R477925  18.900  23.852  15.283
 6071CHOL    R577926  18.808  23.740  15.443
 6071CHOL    C177927  18.679  23.556  15.360
 6071CHOL    C277928  18.550  23.371  15.278
 6072CHOL   ROH77929  13.646  -6.998  13.944
 6072CHOL    R177930  13.612  -6.846  13.907
 6072CHOL    R277931  13.729  -6.734  13.739
 6072CHOL    R377932  13.573  -6.675  13.865
 6072CHOL    R477933  13.699  -6.601  13.707
 6072CHOL    R577934  13.539  -6.524  13.828
 6072CHOL    C177935  13.488  -6.296  13.772
 6072CHOL    C277936  13.436  -6.068  13.716
 6073CHOL   ROH77937   2.806  18.918  23.710
 6073CHOL    R177938   2.871  18.838  23.588
 6073CHOL    R277939   3.007  18.651  23.626
 6073CHOL    R377940   2.945  18.747  23.451
 6073CHOL    R477941   3.064  18.581  23.519
 6073CHOL    R577942   3.011  18.666  23.329
 6073CHOL    C177943   3.109  18.546  23.146
 6073CHOL    C277944   3.207  18.425  22.963
 6074CHOL   ROH77945   6.665   6.335  -7.237
 6074CHOL    R177946   6.691   6.367  -7.082
 6074CHOL    R277947   6.593   6.238  -6.915
 6074CHOL    R377948   6.720   6.404  -6.909
 6074CHOL    R477949   6.616   6.266  -6.779
 6074CHOL    R577950   6.746   6.436  -6.754
 6074CHOL    C177951   6.785   6.484  -6.522
 6074CHOL    C277952   6.824   6.533  -6.290
 6075CHOL   ROH77953  17.158  25.399  15.233
 6075CHOL    R177954  17.094  25.262  15.182
 6075CHOL    R277955  17.093  25.206  14.955
 6075CHOL    R377956  17.021  25.107  15.125
 6075CHOL    R477957  17.037  25.086  14.911
 6075CHOL    R577958  16.957  24.970  15.073
 6075CHOL    C177959  16.861  24.764  14.997
 6075CHOL    C277960  16.764  24.558  14.920
 6076CHOL   ROH77961  20.728  18.721  21.056
 6076CHOL    R177962  20.630  18.646  20.954
 6076CHOL    R277963  20.712  18.485  20.806
 6076CHOL    R377964  20.520  18.561  20.839
 6076CHOL    R477965  20.626  18.419  20.717
 6076CHOL    R577966  20.422  18.486  20.738
 6076CHOL    C177967  20.276  18.373  20.585
 6076CHOL    C277968  20.129  18.260  20.432
 6077CHOL   ROH77969  -2.863   1.505   0.609
 6077CHOL    R177970  -2.753   1.582   0.696
 6077CHOL    R277971  -2.556   1.475   0.761
 6077CHOL    R377972  -2.628   1.668   0.793
 6077CHOL    R477973  -2.460   1.542   0.837
 6077CHOL    R577974  -2.518   1.745   0.880
 6077CHOL    C177975  -2.352   1.860   1.009
 6077CHOL    C277976  -2.187   1.975   1.139
 6078CHOL   ROH77977  -1.969  23.257   8.706
 6078CHOL    R177978  -1.867  23.135   8.719
 6078CHOL    R277979  -1.673  23.154   8.848
 6078CHOL    R377980  -1.752  22.997   8.734
 6078CHOL    R477981  -1.584  23.047   8.859
 6078CHOL    R577982  -1.649  22.875   8.747
 6078CHOL    C177983  -1.496  22.692   8.767
 6078CHOL    C277984  -1.343  22.508   8.786
 6079CHOL   ROH77985   5.648   0.876  -4.902
 6079CHOL    R177986   5.687   0.960  -4.771
 6079CHOL    R277987   5.872   0.900  -4.642
 6079CHOL    R377988   5.731   1.054  -4.625
 6079CHOL    R477989   5.906   0.973  -4.527
 6079CHOL    R577990   5.770   1.137  -4.494
 6079CHOL    C177991   5.829   1.263  -4.298
 6079CHOL    C277992   5.888   1.389  -4.102
 6080CHOL   ROH77993  26.643  14.418  13.999
 6080CHOL    R177994  26.492  14.381  13.960
 6080CHOL    R277995  26.415  14.161  13.975
 6080CHOL    R377996  26.323  14.339  13.916
 6080CHOL    R477997  26.283  14.128  13.941
 6080CHOL    R577998  26.172  14.301  13.878
 6080CHOL    C177999  25.946  14.246  13.819
 6080CHOL    C278000  25.720  14.190  13.761
 6081CHOL   ROH78001  13.654  20.068  24.175
 6081CHOL    R178002  13.621  19.980  24.046
 6081CHOL    R278003  13.791  19.875  23.925
 6081CHOL    R378004  13.583  19.880  23.901
 6081CHOL    R478005  13.761  19.798  23.812
 6081CHOL    R578006  13.550  19.791  23.771
 6081CHOL    C178007  13.500  19.659  23.578
 6081CHOL    C278008  13.450  19.526  23.384
 6082CHOL   ROH78009  16.161  -4.363   1.377
 6082CHOL    R178010  16.105  -4.234   1.453
 6082CHOL    R278011  16.235  -4.042   1.475
 6082CHOL    R378012  16.041  -4.088   1.537
 6082CHOL    R478013  16.185  -3.928   1.541
 6082CHOL    R578014  15.984  -3.959   1.613
 6082CHOL    C178015  15.900  -3.765   1.726
 6082CHOL    C278016  15.815  -3.571   1.840
 6083CHOL   ROH78017  21.747  -1.791  16.175
 6083CHOL    R178018  21.641  -1.685  16.119
 6083CHOL    R278019  21.555  -1.704  15.903
 6083CHOL    R378020  21.521  -1.566  16.057
 6083CHOL    R478021  21.462  -1.611  15.854
 6083CHOL    R578022  21.414  -1.461  16.001
 6083CHOL    C178023  21.255  -1.302  15.917
 6083CHOL    C278024  21.095  -1.143  15.834
 6084CHOL   ROH78025  -6.498  14.855  15.338
 6084CHOL    R178026  -6.351  14.811  15.291
 6084CHOL    R278027  -6.167  14.947  15.333
 6084CHOL    R378028  -6.187  14.762  15.238
 6084CHOL    R478029  -6.038  14.909  15.292
 6084CHOL    R578030  -6.040  14.718  15.191
 6084CHOL    C178031  -5.820  14.652  15.121
 6084CHOL    C278032  -5.600  14.586  15.051
 6085CHOL   ROH78033  -1.060  -1.461   1.563
 6085CHOL    R178034  -0.965  -1.358   1.641
 6085CHOL    R278035  -0.811  -1.433   1.799
 6085CHOL    R378036  -0.858  -1.243   1.728
 6085CHOL    R478037  -0.728  -1.344   1.867
 6085CHOL    R578038  -0.763  -1.140   1.806
 6085CHOL    C178039  -0.620  -0.986   1.923
 6085CHOL    C278040  -0.478  -0.832   2.039
 6086CHOL   ROH78041  27.234   6.553  12.124
 6086CHOL    R178042  27.078   6.583  12.105
 6086CHOL    R278043  26.960   6.496  11.923
 6086CHOL    R378044  26.902   6.616  12.084
 6086CHOL    R478045  26.823   6.522  11.907
 6086CHOL    R578046  26.746   6.645  12.066
 6086CHOL    C178047  26.512   6.690  12.037
 6086CHOL    C278048  26.278   6.734  12.009
 6087CHOL   ROH78049  -4.469   7.318  -0.357
 6087CHOL    R178050  -4.342   7.340  -0.262
 6087CHOL    R278051  -4.203   7.161  -0.205
 6087CHOL    R378052  -4.200   7.364  -0.154
 6087CHOL    R478053  -4.093   7.180  -0.121
 6087CHOL    R578054  -4.073   7.385  -0.059
 6087CHOL    C178055  -3.884   7.418   0.084
 6087CHOL    C278056  -3.694   7.450   0.227
 6088CHOL   ROH78057   4.610  27.016  11.503
 6088CHOL    R178058   4.659  26.864  11.488
 6088CHOL    R278059   4.809  26.771  11.640
 6088CHOL    R378060   4.714  26.694  11.471
 6088CHOL    R478061   4.852  26.638  11.627
 6088CHOL    R578062   4.764  26.542  11.456
 6088CHOL    C178063   4.837  26.315  11.433
 6088CHOL    C278064   4.911  26.088  11.410
 6089CHOL   ROH78065   0.062   0.441  -1.451
 6089CHOL    R178066   0.148   0.526  -1.347
 6089CHOL    R278067   0.085   0.542  -1.123
 6089CHOL    R378068   0.245   0.623  -1.230
 6089CHOL    R478069   0.161   0.616  -1.032
 6089CHOL    R578070   0.331   0.708  -1.126
 6089CHOL    C178071   0.461   0.836  -0.969
 6089CHOL    C278072   0.590   0.964  -0.813
 6090CHOL   ROH78073  22.086  22.241   5.523
 6090CHOL    R178074  21.973  22.135   5.565
 6090CHOL    R278075  21.803  22.077   5.416
 6090CHOL    R378076  21.847  22.017   5.612
 6090CHOL    R478077  21.705  21.984   5.453
 6090CHOL    R578078  21.734  21.911   5.653
 6090CHOL    C178079  21.565  21.753   5.716
 6090CHOL    C278080  21.396  21.594   5.779
 6091CHOL   ROH78081   3.536  -5.611   3.925
 6091CHOL    R178082   3.590  -5.470   3.977
 6091CHOL    R278083   3.698  -5.451   4.183
 6091CHOL    R378084   3.651  -5.311   4.036
 6091CHOL    R478085   3.745  -5.327   4.229
 6091CHOL    R578086   3.704  -5.170   4.088
 6091CHOL    C178087   3.785  -4.958   4.166
 6091CHOL    C278088   3.866  -4.746   4.244
 6092CHOL   ROH78089  22.782  20.516  16.165
 6092CHOL    R178090  22.670  20.417  16.109
 6092CHOL    R278091  22.541  20.474  15.923
 6092CHOL    R378092  22.544  20.305  16.046
 6092CHOL    R478093  22.443  20.387  15.874
 6092CHOL    R578094  22.432  20.206  15.990
 6092CHOL    C178095  22.263  20.057  15.905
 6092CHOL    C278096  22.095  19.908  15.821
 6093CHOL   ROH78097  22.978  18.595   1.397
 6093CHOL    R178098  22.862  18.516   1.475
 6093CHOL    R278099  22.689  18.413   1.359
 6093CHOL    R378100  22.733  18.427   1.562
 6093CHOL    R478101  22.588  18.344   1.427
 6093CHOL    R578102  22.617  18.348   1.640
 6093CHOL    C178103  22.444  18.230   1.757
 6093CHOL    C278104  22.270  18.112   1.873
 6094CHOL   ROH78105  26.921   4.720  10.441
 6094CHOL    R178106  26.768   4.767  10.434
 6094CHOL    R278107  26.710   4.977  10.351
 6094CHOL    R378108  26.596   4.819  10.427
 6094CHOL    R478109  26.576   5.017  10.345
 6094CHOL    R578110  26.443   4.865  10.420
 6094CHOL    C178111  26.214   4.935  10.411
 6094CHOL    C278112  25.984   5.005  10.401
 6095CHOL   ROH78113  18.202  -4.629  15.924
 6095CHOL    R178114  18.126  -4.498  15.873
 6095CHOL    R278115  18.055  -4.478  15.652
 6095CHOL    R378116  18.040  -4.350  15.816
 6095CHOL    R478117  17.988  -4.363  15.607
 6095CHOL    R578118  17.964  -4.219  15.765
 6095CHOL    C178119  17.850  -4.022  15.689
 6095CHOL    C278120  17.736  -3.825  15.613
 6096CHOL   ROH78121  25.962   3.018   6.696
 6096CHOL    R178122  25.818   3.082   6.724
 6096CHOL    R278123  25.646   3.061   6.567
 6096CHOL    R378124  25.656   3.153   6.754
 6096CHOL    R478125  25.520   3.117   6.591
 6096CHOL    R578126  25.512   3.217   6.782
 6096CHOL    C178127  25.295   3.312   6.823
 6096CHOL    C278128  25.079   3.407   6.865
 6097CHOL   ROH78129  19.230  22.022  19.138
 6097CHOL    R178130  19.145  21.911  19.061
 6097CHOL    R278131  19.033  21.963  18.862
 6097CHOL    R378132  19.049  21.786  18.973
 6097CHOL    R478133  18.959  21.866  18.795
 6097CHOL    R578134  18.963  21.676  18.896
 6097CHOL    C178135  18.836  21.509  18.780
 6097CHOL    C278136  18.708  21.343  18.664
 6098CHOL   ROH78137  14.056  17.227  25.648
 6098CHOL    R178138  14.022  17.163  25.506
 6098CHOL    R278139  14.158  16.998  25.412
 6098CHOL    R378140  13.983  17.091  25.345
 6098CHOL    R478141  14.128  16.942  25.288
 6098CHOL    R578142  13.949  17.027  25.203
 6098CHOL    C178143  13.897  16.930  24.989
 6098CHOL    C278144  13.845  16.834  24.776
 6099CHOL   ROH78145  -0.954  24.015  12.559
 6099CHOL    R178146  -0.859  23.888  12.537
 6099CHOL    R278147  -0.855  23.713  12.691
 6099CHOL    R378148  -0.752  23.746  12.512
 6099CHOL    R478149  -0.772  23.602  12.671
 6099CHOL    R578150  -0.656  23.619  12.490
 6099CHOL    C178151  -0.514  23.430  12.457
 6099CHOL    C278152  -0.371  23.240  12.424
 6100CHOL   ROH78153   8.133   0.736  -5.277
 6100CHOL    R178154   8.145   0.818  -5.140
 6100CHOL    R278155   8.347   0.830  -5.025
 6100CHOL    R378156   8.158   0.909  -4.986
 6100CHOL    R478157   8.357   0.902  -4.905
 6100CHOL    R578158   8.169   0.991  -4.848
 6100CHOL    C178159   8.187   1.113  -4.643
 6100CHOL    C278160   8.205   1.236  -4.437
 6101CHOL   ROH78161   1.154   7.549  -5.484
 6101CHOL    R178162   1.233   7.569  -5.346
 6101CHOL    R278163   1.194   7.428  -5.165
 6101CHOL    R378164   1.322   7.591  -5.192
 6101CHOL    R478165   1.264   7.445  -5.044
 6101CHOL    R578166   1.402   7.611  -5.054
 6101CHOL    C178167   1.520   7.640  -4.848
 6101CHOL    C278168   1.639   7.670  -4.641
 6102CHOL   ROH78169  26.809   5.171  12.780
 6102CHOL    R178170  26.657   5.215  12.755
 6102CHOL    R278171  26.535   5.128  12.576
 6102CHOL    R378172  26.486   5.264  12.727
 6102CHOL    R478173  26.402   5.166  12.554
 6102CHOL    R578174  26.335   5.308  12.702
 6102CHOL    C178175  26.107   5.374  12.665
 6102CHOL    C278176  25.879   5.440  12.627
 6103CHOL   ROH78177  -1.272  23.765   8.345
 6103CHOL    R178178  -1.176  23.638   8.363
 6103CHOL    R278179  -1.015  23.632   8.531
 6103CHOL    R378180  -1.068  23.495   8.382
 6103CHOL    R478181  -0.931  23.521   8.547
 6103CHOL    R578182  -0.972  23.368   8.400
 6103CHOL    C178183  -0.828  23.178   8.426
 6103CHOL    C278184  -0.684  22.988   8.453
 6104CHOL   ROH78185  -6.070  13.484   2.739
 6104CHOL    R178186  -5.926  13.450   2.800
 6104CHOL    R278187  -5.876  13.496   3.023
 6104CHOL    R378188  -5.764  13.412   2.868
 6104CHOL    R478189  -5.750  13.467   3.076
 6104CHOL    R578190  -5.620  13.378   2.929
 6104CHOL    C178191  -5.404  13.327   3.020
 6104CHOL    C278192  -5.188  13.276   3.111
 6105CHOL   ROH78193   9.648  -6.246  17.428
 6105CHOL    R178194   9.652  -6.101  17.361
 6105CHOL    R278195   9.851  -6.012  17.279
 6105CHOL    R378196   9.656  -5.937  17.286
 6105CHOL    R478197   9.854  -5.884  17.220
 6105CHOL    R578198   9.660  -5.792  17.219
 6105CHOL    C178199   9.666  -5.574  17.118
 6105CHOL    C278200   9.672  -5.356  17.017
 6106CHOL   ROH78201   8.012  -7.156   5.284
 6106CHOL    R178202   8.029  -7.002   5.326
 6106CHOL    R278203   8.240  -6.905   5.341
 6106CHOL    R378204   8.048  -6.830   5.372
 6106CHOL    R478205   8.255  -6.770   5.377
 6106CHOL    R578206   8.064  -6.676   5.414
 6106CHOL    C178207   8.090  -6.446   5.476
 6106CHOL    C278208   8.115  -6.215   5.539
 6107CHOL   ROH78209  -2.652  20.955  16.431
 6107CHOL    R178210  -2.540  20.857  16.373
 6107CHOL    R278211  -2.341  20.941  16.286
 6107CHOL    R378212  -2.414  20.746  16.308
 6107CHOL    R478213  -2.242  20.855  16.235
 6107CHOL    R578214  -2.301  20.648  16.250
 6107CHOL    C178215  -2.133  20.501  16.163
 6107CHOL    C278216  -1.965  20.353  16.076
 6108CHOL   ROH78217  18.167   3.904  -4.631
 6108CHOL    R178218  18.091   3.956  -4.500
 6108CHOL    R278219  18.160   4.151  -4.392
 6108CHOL    R378220  18.007   4.016  -4.353
 6108CHOL    R478221  18.094   4.197  -4.277
 6108CHOL    R578222  17.931   4.068  -4.222
 6108CHOL    C178223  17.818   4.147  -4.026
 6108CHOL    C278224  17.704   4.225  -3.829
 6109CHOL   ROH78225  10.887  -6.993   4.323
 6109CHOL    R178226  10.881  -6.842   4.375
 6109CHOL    R278227  10.944  -6.665   4.236
 6109CHOL    R378228  10.874  -6.671   4.433
 6109CHOL    R478229  10.938  -6.532   4.281
 6109CHOL    R578230  10.868  -6.520   4.485
 6109CHOL    C178231  10.859  -6.293   4.562
 6109CHOL    C278232  10.850  -6.066   4.640
 6110CHOL   ROH78233  -0.739  14.811  -3.577
 6110CHOL    R178234  -0.645  14.770  -3.454
 6110CHOL    R278235  -0.732  14.748  -3.239
 6110CHOL    R378236  -0.540  14.724  -3.316
 6110CHOL    R478237  -0.650  14.712  -3.131
 6110CHOL    R578238  -0.446  14.683  -3.193
 6110CHOL    C178239  -0.305  14.621  -3.009
 6110CHOL    C278240  -0.165  14.559  -2.824
 6111CHOL   ROH78241  14.490  23.198  20.971
 6111CHOL    R178242  14.451  23.078  20.873
 6111CHOL    R278243  14.450  22.857  20.948
 6111CHOL    R378244  14.407  22.943  20.762
 6111CHOL    R478245  14.416  22.752  20.862
 6111CHOL    R578246  14.369  22.822  20.664
 6111CHOL    C178247  14.310  22.642  20.517
 6111CHOL    C278248  14.252  22.462  20.369
 6112CHOL   ROH78249   5.177  11.480  26.971
 6112CHOL    R178250   5.217  11.466  26.817
 6112CHOL    R278251   5.259  11.655  26.686
 6112CHOL    R378252   5.263  11.450  26.643
 6112CHOL    R478253   5.294  11.642  26.551
 6112CHOL    R578254   5.303  11.436  26.489
 6112CHOL    C178255   5.363  11.415  26.258
 6112CHOL    C278256   5.424  11.394  26.026
 6113CHOL   ROH78257   6.204  24.075  20.277
 6113CHOL    R178258   6.238  23.952  20.181
 6113CHOL    R278259   6.451  23.856  20.179
 6113CHOL    R378260   6.276  23.813  20.072
 6113CHOL    R478261   6.480  23.748  20.095
 6113CHOL    R578262   6.310  23.690  19.976
 6113CHOL    C178263   6.361  23.505  19.832
 6113CHOL    C278264   6.412  23.320  19.687
 6114CHOL   ROH78265  24.610  -0.083  10.660
 6114CHOL    R178266  24.477   0.006  10.656
 6114CHOL    R278267  24.489   0.238  10.637
 6114CHOL    R378268  24.328   0.106  10.651
 6114CHOL    R478269  24.373   0.316  10.633
 6114CHOL    R578270  24.195   0.195  10.647
 6114CHOL    C178271  23.996   0.329  10.641
 6114CHOL    C278272  23.797   0.463  10.635
 6115CHOL   ROH78273  19.272  -1.378  19.930
 6115CHOL    R178274  19.187  -1.277  19.839
 6115CHOL    R278275  19.112  -1.340  19.628
 6115CHOL    R378276  19.092  -1.163  19.738
 6115CHOL    R478277  19.038  -1.252  19.549
 6115CHOL    R578278  19.007  -1.063  19.647
 6115CHOL    C178279  18.880  -0.911  19.511
 6115CHOL    C278280  18.753  -0.760  19.375
 6116CHOL   ROH78281   5.883  -7.372  11.203
 6116CHOL    R178282   5.917  -7.216  11.192
 6116CHOL    R278283   6.009  -7.100  11.373
 6116CHOL    R378284   5.956  -7.041  11.180
 6116CHOL    R478285   6.039  -6.964  11.363
 6116CHOL    R578286   5.990  -6.885  11.169
 6116CHOL    C178287   6.042  -6.651  11.153
 6116CHOL    C278288   6.094  -6.417  11.136
 6117CHOL   ROH78289   2.335   8.025  -6.160
 6117CHOL    R178290   2.402   8.041  -6.016
 6117CHOL    R278291   2.386   7.872  -5.856
 6117CHOL    R378292   2.478   8.059  -5.853
 6117CHOL    R478293   2.445   7.886  -5.730
 6117CHOL    R578294   2.546   8.075  -5.709
 6117CHOL    C178295   2.647   8.099  -5.493
 6117CHOL    C278296   2.748   8.123  -5.276
 6118CHOL   ROH78297   3.224  -4.328  18.319
 6118CHOL    R178298   3.285  -4.200  18.244
 6118CHOL    R278299   3.513  -4.184  18.201
 6118CHOL    R378300   3.353  -4.057  18.159
 6118CHOL    R478301   3.566  -4.072  18.135
 6118CHOL    R578302   3.414  -3.929  18.084
 6118CHOL    C178303   3.504  -3.738  17.970
 6118CHOL    C278304   3.595  -3.547  17.857
 6119CHOL   ROH78305  19.151  -0.881  20.576
 6119CHOL    R178306  19.067  -0.783  20.481
 6119CHOL    R278307  19.107  -0.775  20.252
 6119CHOL    R378308  18.972  -0.673  20.375
 6119CHOL    R478309  19.033  -0.689  20.169
 6119CHOL    R578310  18.888  -0.575  20.280
 6119CHOL    C178311  18.762  -0.429  20.139
 6119CHOL    C278312  18.636  -0.282  19.997
 6120CHOL   ROH78313  24.409   4.080  18.417
 6120CHOL    R178314  24.279   4.128  18.337
 6120CHOL    R278315  24.227   4.354  18.316
 6120CHOL    R378316  24.133   4.181  18.246
 6120CHOL    R478317  24.114   4.396  18.246
 6120CHOL    R578318  24.003   4.229  18.166
 6120CHOL    C178319  23.808   4.301  18.046
 6120CHOL    C278320  23.613   4.372  17.925
 6121CHOL   ROH78321   7.503   9.435  -7.747
 6121CHOL    R178322   7.524   9.440  -7.588
 6121CHOL    R278323   7.399   9.304  -7.446
 6121CHOL    R378324   7.548   9.446  -7.410
 6121CHOL    R478325   7.417   9.309  -7.307
 6121CHOL    R578326   7.570   9.451  -7.251
 6121CHOL    C178327   7.601   9.459  -7.014
 6121CHOL    C278328   7.633   9.466  -6.776
 6122CHOL   ROH78329  13.894  -4.315   0.034
 6122CHOL    R178330  13.857  -4.189   0.125
 6122CHOL    R278331  13.953  -4.159   0.335
 6122CHOL    R378332  13.814  -4.046   0.226
 6122CHOL    R478333  13.920  -4.049   0.414
 6122CHOL    R578334  13.777  -3.920   0.317
 6122CHOL    C178335  13.721  -3.730   0.453
 6122CHOL    C278336  13.665  -3.541   0.589
 6123CHOL   ROH78337  -1.978  18.271  20.410
 6123CHOL    R178338  -1.873  18.197  20.314
 6123CHOL    R278339  -1.674  18.301  20.251
 6123CHOL    R378340  -1.756  18.114  20.206
 6123CHOL    R478341  -1.583  18.237  20.167
 6123CHOL    R578342  -1.651  18.041  20.110
 6123CHOL    C178343  -1.494  17.930  19.966
 6123CHOL    C278344  -1.337  17.819  19.822
 6124CHOL   ROH78345  -4.649   6.226   0.208
 6124CHOL    R178346  -4.518   6.255   0.296
 6124CHOL    R278347  -4.405   6.081   0.403
 6124CHOL    R378348  -4.372   6.287   0.395
 6124CHOL    R478349  -4.291   6.106   0.480
 6124CHOL    R578350  -4.241   6.315   0.483
 6124CHOL    C178351  -4.045   6.358   0.615
 6124CHOL    C278352  -3.849   6.401   0.747
 6125CHOL   ROH78353   8.393  -4.940  19.638
 6125CHOL    R178354   8.406  -4.806  19.551
 6125CHOL    R278355   8.512  -4.808  19.343
 6125CHOL    R378356   8.421  -4.656  19.453
 6125CHOL    R478357   8.524  -4.691  19.267
 6125CHOL    R578358   8.434  -4.522  19.366
 6125CHOL    C178359   8.454  -4.322  19.235
 6125CHOL    C278360   8.473  -4.122  19.105
 6126CHOL   ROH78361  17.199  -1.301  -1.819
 6126CHOL    R178362  17.135  -1.198  -1.714
 6126CHOL    R278363  16.948  -1.070  -1.770
 6126CHOL    R378364  17.063  -1.083  -1.597
 6126CHOL    R478365  16.892  -0.981  -1.679
 6126CHOL    R578366  17.000  -0.980  -1.492
 6126CHOL    C178367  16.904  -0.826  -1.335
 6126CHOL    C278368  16.808  -0.672  -1.178
 6127CHOL   ROH78369   6.976   7.701  27.386
 6127CHOL    R178370   7.002   7.721  27.229
 6127CHOL    R278371   7.218   7.714  27.141
 6127CHOL    R378372   7.031   7.744  27.053
 6127CHOL    R478373   7.240   7.732  27.004
 6127CHOL    R578374   7.057   7.764  26.896
 6127CHOL    C178375   7.095   7.794  26.662
 6127CHOL    C278376   7.134   7.824  26.427
 6128CHOL   ROH78377   3.812   2.922  -5.358
 6128CHOL    R178378   3.868   2.986  -5.222
 6128CHOL    R278379   4.086   2.946  -5.151
 6128CHOL    R378380   3.930   3.058  -5.070
 6128CHOL    R478381   4.135   3.002  -5.032
 6128CHOL    R578382   3.986   3.123  -4.934
 6128CHOL    C178383   4.070   3.219  -4.730
 6128CHOL    C278384   4.153   3.315  -4.527
 6129CHOL   ROH78385  27.432   9.670  12.854
 6129CHOL    R178386  27.273   9.671  12.832
 6129CHOL    R278387  27.177   9.793  12.658
 6129CHOL    R378388  27.095   9.671  12.807
 6129CHOL    R478389  27.038   9.793  12.639
 6129CHOL    R578390  26.937   9.672  12.785
 6129CHOL    C178391  26.699   9.673  12.753
 6129CHOL    C278392  26.461   9.674  12.720
 6130CHOL   ROH78393   7.117  -7.591  11.240
 6130CHOL    R178394   7.140  -7.433  11.229
 6130CHOL    R278395   7.345  -7.346  11.160
 6130CHOL    R378396   7.165  -7.255  11.217
 6130CHOL    R478397   7.365  -7.207  11.151
 6130CHOL    R578398   7.188  -7.097  11.206
 6130CHOL    C178399   7.222  -6.860  11.190
 6130CHOL    C278400   7.256  -6.623  11.173
 6131CHOL   ROH78401  -6.495  11.952  16.924
 6131CHOL    R178402  -6.349  11.935  16.860
 6131CHOL    R278403  -6.158  11.965  16.989
 6131CHOL    R378404  -6.185  11.916  16.788
 6131CHOL    R478405  -6.030  11.950  16.934
 6131CHOL    R578406  -6.039  11.900  16.724
 6131CHOL    C178407  -5.821  11.874  16.629
 6131CHOL    C278408  -5.602  11.849  16.533
 6132CHOL   ROH78409  19.325  24.443  14.416
 6132CHOL    R178410  19.238  24.317  14.370
 6132CHOL    R278411  19.255  24.232  14.153
 6132CHOL    R378412  19.140  24.175  14.318
 6132CHOL    R478413  19.179  24.122  14.113
 6132CHOL    R578414  19.053  24.049  14.272
 6132CHOL    C178415  18.922  23.860  14.202
 6132CHOL    C278416  18.792  23.671  14.133
 6133CHOL   ROH78417  12.256  -7.540  12.362
 6133CHOL    R178418  12.237  -7.383  12.340
 6133CHOL    R278419  12.298  -7.282  12.138
 6133CHOL    R378420  12.217  -7.206  12.315
 6133CHOL    R478421  12.282  -7.145  12.119
 6133CHOL    R578422  12.198  -7.049  12.293
 6133CHOL    C178423  12.170  -6.813  12.259
 6133CHOL    C278424  12.142  -6.577  12.226
 6134CHOL   ROH78425  12.345  25.402  18.581
 6134CHOL    R178426  12.321  25.266  18.501
 6134CHOL    R278427  12.500  25.130  18.438
 6134CHOL    R378428  12.293  25.112  18.411
 6134CHOL    R478429  12.478  25.011  18.368
 6134CHOL    R578430  12.269  24.975  18.332
 6134CHOL    C178431  12.233  24.771  18.212
 6134CHOL    C278432  12.196  24.566  18.092
 6135CHOL   ROH78433  -5.880   9.274  18.329
 6135CHOL    R178434  -5.738   9.282  18.255
 6135CHOL    R278435  -5.588   9.103  18.264
 6135CHOL    R378436  -5.579   9.290  18.172
 6135CHOL    R478437  -5.464   9.110  18.199
 6135CHOL    R578438  -5.437   9.298  18.098
 6135CHOL    C178439  -5.224   9.310  17.987
 6135CHOL    C278440  -5.012   9.321  17.876
 6136CHOL   ROH78441   5.857  27.364  11.472
 6136CHOL    R178442   5.892  27.209  11.458
 6136CHOL    R278443   6.001  27.095  11.630
 6136CHOL    R378444   5.932  27.034  11.442
 6136CHOL    R478445   6.032  26.959  11.618
 6136CHOL    R578446   5.967  26.878  11.429
 6136CHOL    C178447   6.021  26.645  11.408
 6136CHOL    C278448   6.074  26.412  11.387
 6137CHOL   ROH78449  17.098  21.880  21.163
 6137CHOL    R178450  17.034  21.772  21.064
 6137CHOL    R278451  17.166  21.605  20.968
 6137CHOL    R378452  16.963  21.650  20.953
 6137CHOL    R478453  17.111  21.510  20.881
 6137CHOL    R578454  16.900  21.542  20.853
 6137CHOL    C178455  16.804  21.379  20.705
 6137CHOL    C278456  16.709  21.217  20.556
 6138CHOL   ROH78457  24.725   4.764   1.439
 6138CHOL    R178458  24.593   4.810   1.516
 6138CHOL    R278459  24.418   4.914   1.401
 6138CHOL    R378460  24.443   4.863   1.602
 6138CHOL    R478461  24.302   4.955   1.469
 6138CHOL    R578462  24.311   4.909   1.679
 6138CHOL    C178463  24.112   4.979   1.794
 6138CHOL    C278464  23.914   5.048   1.909
 6139CHOL   ROH78465  15.686  15.071  26.055
 6139CHOL    R178466  15.637  15.022  25.911
 6139CHOL    R278467  15.602  15.174  25.738
 6139CHOL    R378468  15.582  14.967  25.749
 6139CHOL    R478469  15.559  15.131  25.611
 6139CHOL    R578470  15.533  14.917  25.605
 6139CHOL    C178471  15.459  14.844  25.388
 6139CHOL    C278472  15.385  14.770  25.172
 6140CHOL   ROH78473   5.472  18.155  -5.342
 6140CHOL    R178474   5.512  18.086  -5.204
 6140CHOL    R278475   5.546  18.213  -5.011
 6140CHOL    R378476   5.558  18.008  -5.048
 6140CHOL    R478477   5.581  18.152  -4.890
 6140CHOL    R578478   5.599  17.938  -4.910
 6140CHOL    C178479   5.659  17.835  -4.702
 6140CHOL    C278480   5.720  17.731  -4.494
 6141CHOL   ROH78481  23.601  18.639  17.433
 6141CHOL    R178482  23.480  18.557  17.368
 6141CHOL    R278483  23.515  18.410  17.191
 6141CHOL    R378484  23.343  18.465  17.296
 6141CHOL    R478485  23.409  18.338  17.134
 6141CHOL    R578486  23.222  18.382  17.231
 6141CHOL    C178487  23.040  18.259  17.134
 6141CHOL    C278488  22.858  18.136  17.037
 6142CHOL   ROH78489  23.583   8.415  -1.342
 6142CHOL    R178490  23.459   8.423  -1.242
 6142CHOL    R278491  23.301   8.594  -1.260
 6142CHOL    R378492  23.318   8.433  -1.129
 6142CHOL    R478493  23.192   8.602  -1.173
 6142CHOL    R578494  23.194   8.441  -1.029
 6142CHOL    C178495  23.007   8.454  -0.879
 6142CHOL    C278496  22.821   8.467  -0.729
 6143CHOL   ROH78497  25.887  17.803   9.927
 6143CHOL    R178498  25.743  17.734   9.931
 6143CHOL    R278499  25.561  17.831   9.821
 6143CHOL    R378500  25.580  17.656   9.935
 6143CHOL    R478501  25.434  17.770   9.824
 6143CHOL    R578502  25.436  17.587   9.938
 6143CHOL    C178503  25.220  17.484   9.944
 6143CHOL    C278504  25.003  17.381   9.950
 6144CHOL   ROH78505  18.007  19.484  22.689
 6144CHOL    R178506  17.933  19.402  22.573
 6144CHOL    R278507  17.939  19.476  22.352
 6144CHOL    R378508  17.850  19.310  22.442
 6144CHOL    R478509  17.875  19.404  22.250
 6144CHOL    R578510  17.776  19.228  22.326
 6144CHOL    C178511  17.665  19.106  22.152
 6144CHOL    C278512  17.554  18.983  21.978
 6145CHOL   ROH78513   9.073  10.774  -7.887
 6145CHOL    R178514   9.081  10.767  -7.727
 6145CHOL    R278515   9.269  10.847  -7.613
 6145CHOL    R378516   9.090  10.760  -7.548
 6145CHOL    R478517   9.276  10.841  -7.474
 6145CHOL    R578518   9.099  10.754  -7.388
 6145CHOL    C178519   9.111  10.744  -7.148
 6145CHOL    C278520   9.123  10.734  -6.909
 6146CHOL   ROH78521  11.598  -7.727   8.124
 6146CHOL    R178522  11.586  -7.568   8.137
 6146CHOL    R278523  11.646  -7.458   8.333
 6146CHOL    R378524  11.572  -7.389   8.151
 6146CHOL    R478525  11.636  -7.319   8.344
 6146CHOL    R578526  11.560  -7.230   8.164
 6146CHOL    C178527  11.542  -6.991   8.182
 6146CHOL    C278528  11.524  -6.753   8.201
 6147CHOL   ROH78529  22.654  20.889   3.989
 6147CHOL    R178530  22.538  20.792   4.040
 6147CHOL    R278531  22.541  20.564   3.989
 6147CHOL    R378532  22.407  20.682   4.097
 6147CHOL    R478533  22.440  20.479   4.034
 6147CHOL    R578534  22.291  20.584   4.148
 6147CHOL    C178535  22.116  20.438   4.224
 6147CHOL    C278536  21.942  20.292   4.300
 6148CHOL   ROH78537  -3.170   0.568  17.727
 6148CHOL    R178538  -3.053   0.653  17.658
 6148CHOL    R278539  -2.871   0.547  17.558
 6148CHOL    R378540  -2.922   0.748  17.580
 6148CHOL    R478541  -2.769   0.621  17.498
 6148CHOL    R578542  -2.805   0.832  17.510
 6148CHOL    C178543  -2.630   0.959  17.407
 6148CHOL    C278544  -2.455   1.086  17.303
 6149CHOL   ROH78545  15.136  -2.934  -1.160
 6149CHOL    R178546  15.090  -2.818  -1.060
 6149CHOL    R278547  15.206  -2.617  -1.047
 6149CHOL    R378548  15.037  -2.688  -0.947
 6149CHOL    R478549  15.166  -2.516  -0.959
 6149CHOL    R578550  14.991  -2.572  -0.847
 6149CHOL    C178551  14.921  -2.399  -0.696
 6149CHOL    C278552  14.852  -2.225  -0.546
 6150CHOL   ROH78553  -1.261  23.156   5.521
 6150CHOL    R178554  -1.164  23.035   5.560
 6150CHOL    R278555  -0.934  23.068   5.584
 6150CHOL    R378556  -1.055  22.899   5.604
 6150CHOL    R478557  -0.849  22.962   5.618
 6150CHOL    R578558  -0.957  22.778   5.643
 6150CHOL    C178559  -0.812  22.597   5.702
 6150CHOL    C278560  -0.666  22.415   5.761
 6151CHOL   ROH78561  23.294  -1.737  11.315
 6151CHOL    R178562  23.174  -1.632  11.301
 6151CHOL    R278563  23.208  -1.405  11.345
 6151CHOL    R378564  23.040  -1.513  11.285
 6151CHOL    R478565  23.104  -1.313  11.333
 6151CHOL    R578566  22.921  -1.408  11.270
 6151CHOL    C178567  22.741  -1.249  11.249
 6151CHOL    C278568  22.562  -1.091  11.228
 6152CHOL   ROH78569  22.581   2.323   0.089
 6152CHOL    R178570  22.469   2.392   0.180
 6152CHOL    R278571  22.474   2.621   0.222
 6152CHOL    R378572  22.343   2.470   0.282
 6152CHOL    R478573  22.376   2.682   0.302
 6152CHOL    R578574  22.231   2.539   0.373
 6152CHOL    C178575  22.063   2.643   0.509
 6152CHOL    C278576  21.895   2.746   0.646
 6153CHOL   ROH78577  17.683  21.642  -1.099
 6153CHOL    R178578  17.609  21.535  -1.005
 6153CHOL    R278579  17.725  21.353  -0.917
 6153CHOL    R378580  17.526  21.416  -0.899
 6153CHOL    R478581  17.660  21.259  -0.835
 6153CHOL    R578582  17.453  21.309  -0.805
 6153CHOL    C178583  17.342  21.149  -0.665
 6153CHOL    C278584  17.231  20.989  -0.524
 6154CHOL   ROH78585  16.456  24.095  18.611
 6154CHOL    R178586  16.396  23.968  18.535
 6154CHOL    R278587  16.353  23.975  18.305
 6154CHOL    R378588  16.327  23.825  18.448
 6154CHOL    R478589  16.300  23.864  18.238
 6154CHOL    R578590  16.267  23.698  18.372
 6154CHOL    C178591  16.176  23.508  18.257
 6154CHOL    C278592  16.086  23.318  18.143
 6155CHOL   ROH78593  14.514  17.201  25.543
 6155CHOL    R178594  14.476  17.137  25.402
 6155CHOL    R278595  14.567  16.933  25.334
 6155CHOL    R378596  14.433  17.064  25.242
 6155CHOL    R478597  14.534  16.876  25.211
 6155CHOL    R578598  14.395  17.000  25.101
 6155CHOL    C178599  14.338  16.903  24.889
 6155CHOL    C278600  14.281  16.806  24.677
 6156CHOL   ROH78601  26.428   9.789  16.687
 6156CHOL    R178602  26.280   9.789  16.626
 6156CHOL    R278603  26.240   9.707  16.411
 6156CHOL    R378604  26.114   9.789  16.556
 6156CHOL    R478605  26.111   9.707  16.357
 6156CHOL    R578606  25.966   9.788  16.495
 6156CHOL    C178607  25.745   9.788  16.403
 6156CHOL    C278608  25.523   9.788  16.311
 6157CHOL   ROH78609   2.473   9.662  26.216
 6157CHOL    R178610   2.535   9.661  26.068
 6157CHOL    R278611   2.727   9.538  26.020
 6157CHOL    R378612   2.605   9.660  25.903
 6157CHOL    R478613   2.781   9.537  25.891
 6157CHOL    R578614   2.667   9.659  25.755
 6157CHOL    C178615   2.759   9.658  25.534
 6157CHOL    C278616   2.852   9.656  25.312
 6158CHOL   ROH78617   8.256   0.395  24.895
 6158CHOL    R178618   8.270   0.477  24.758
 6158CHOL    R278619   8.383   0.681  24.751
 6158CHOL    R378620   8.286   0.569  24.604
 6158CHOL    R478621   8.395   0.752  24.632
 6158CHOL    R578622   8.300   0.651  24.467
 6158CHOL    C178623   8.321   0.773  24.262
 6158CHOL    C278624   8.342   0.896  24.057
 6159CHOL   ROH78625  25.463  18.283  12.447
 6159CHOL    R178626  25.323  18.208  12.424
 6159CHOL    R278627  25.307  17.976  12.439
 6159CHOL    R378628  25.166  18.125  12.397
 6159CHOL    R478629  25.185  17.911  12.418
 6159CHOL    R578630  25.027  18.050  12.374
 6159CHOL    C178631  24.817  17.938  12.339
 6159CHOL    C278632  24.607  17.826  12.304
 6160CHOL   ROH78633  20.107   2.416  -2.518
 6160CHOL    R178634  20.012   2.483  -2.408
 6160CHOL    R278635  20.088   2.658  -2.274
 6160CHOL    R378636  19.905   2.559  -2.285
 6160CHOL    R478637  20.005   2.717  -2.178
 6160CHOL    R578638  19.810   2.626  -2.175
 6160CHOL    C178639  19.667   2.727  -2.010
 6160CHOL    C278640  19.525   2.828  -1.846
 6161CHOL   ROH78641  12.128  -2.037  22.812
 6161CHOL    R178642  12.104  -1.927  22.698
 6161CHOL    R278643  12.283  -1.826  22.589
 6161CHOL    R378644  12.077  -1.803  22.571
 6161CHOL    R478645  12.262  -1.729  22.490
 6161CHOL    R578646  12.053  -1.693  22.457
 6161CHOL    C178647  12.016  -1.528  22.287
 6161CHOL    C278648  11.980  -1.363  22.116
 6162CHOL   ROH78649   7.335  23.046  21.785
 6162CHOL    R178650   7.361  22.931  21.677
 6162CHOL    R278651   7.491  22.971  21.487
 6162CHOL    R378652   7.389  22.802  21.555
 6162CHOL    R478653   7.513  22.871  21.393
 6162CHOL    R578654   7.415  22.687  21.446
 6162CHOL    C178655   7.453  22.515  21.284
 6162CHOL    C278656   7.492  22.342  21.122
 6163CHOL   ROH78657  10.744  13.751  -7.492
 6163CHOL    R178658  10.735  13.716  -7.336
 6163CHOL    R278659  10.875  13.555  -7.241
 6163CHOL    R378660  10.725  13.676  -7.161
 6163CHOL    R478661  10.867  13.525  -7.105
 6163CHOL    R578662  10.716  13.641  -7.005
 6163CHOL    C178663  10.703  13.588  -6.771
 6163CHOL    C278664  10.689  13.535  -6.537
 6164CHOL   ROH78665  22.722   2.220  19.586
 6164CHOL    R178666  22.609   2.286  19.494
 6164CHOL    R278667  22.631   2.289  19.261
 6164CHOL    R378668  22.482   2.360  19.390
 6164CHOL    R478669  22.532   2.347  19.181
 6164CHOL    R578670  22.370   2.426  19.298
 6164CHOL    C178671  22.200   2.526  19.159
 6164CHOL    C278672  22.031   2.625  19.021
 6165CHOL   ROH78673   4.931  -4.816   1.220
 6165CHOL    R178674   4.971  -4.682   1.297
 6165CHOL    R278675   5.192  -4.637   1.354
 6165CHOL    R378676   5.015  -4.531   1.385
 6165CHOL    R478677   5.227  -4.519   1.421
 6165CHOL    R578678   5.055  -4.397   1.462
 6165CHOL    C178679   5.115  -4.195   1.578
 6165CHOL    C278680   5.174  -3.994   1.694
 6166CHOL   ROH78681   0.813   1.681  22.832
 6166CHOL    R178682   0.898   1.751  22.716
 6166CHOL    R278683   1.115   1.827  22.756
 6166CHOL    R378684   0.994   1.831  22.586
 6166CHOL    R478685   1.189   1.889  22.655
 6166CHOL    R578686   1.079   1.901  22.471
 6166CHOL    C178687   1.207   2.007  22.297
 6166CHOL    C278688   1.334   2.112  22.123
 6167CHOL   ROH78689  -6.866   4.299  12.250
 6167CHOL    R178690  -6.716   4.350  12.228
 6167CHOL    R278691  -6.548   4.202  12.163
 6167CHOL    R378692  -6.547   4.407  12.203
 6167CHOL    R478693  -6.416   4.246  12.143
 6167CHOL    R578694  -6.397   4.458  12.181
 6167CHOL    C178695  -6.172   4.534  12.148
 6167CHOL    C278696  -5.947   4.610  12.115
 6168CHOL   ROH78697  23.640  -1.045  12.612
 6168CHOL    R178698  23.518  -0.946  12.583
 6168CHOL    R278699  23.356  -0.999  12.424
 6168CHOL    R378700  23.380  -0.835  12.551
 6168CHOL    R478701  23.249  -0.912  12.399
 6168CHOL    R578702  23.258  -0.736  12.522
 6168CHOL    C178703  23.074  -0.588  12.479
 6168CHOL    C278704  22.890  -0.439  12.436
 6169CHOL   ROH78705  -0.270  24.597  11.879
 6169CHOL    R178706  -0.181  24.465  11.864
 6169CHOL    R278707   0.049  24.479  11.827
 6169CHOL    R378708  -0.081  24.316  11.848
 6169CHOL    R478709   0.127  24.363  11.814
 6169CHOL    R578710   0.008  24.184  11.834
 6169CHOL    C178711   0.141  23.986  11.812
 6169CHOL    C278712   0.275  23.788  11.790
 6170CHOL   ROH78713  24.576  16.810   2.421
 6170CHOL    R178714  24.444  16.750   2.489
 6170CHOL    R278715  24.445  16.537   2.585
 6170CHOL    R378716  24.296  16.682   2.565
 6170CHOL    R478717  24.330  16.484   2.644
 6170CHOL    R578718  24.164  16.622   2.633
 6170CHOL    C178719  23.967  16.531   2.735
 6170CHOL    C278720  23.769  16.441   2.837
 6171CHOL   ROH78721   2.854   0.837  -3.659
 6171CHOL    R178722   2.920   0.921  -3.540
 6171CHOL    R278723   2.813   0.941  -3.334
 6171CHOL    R378724   2.994   1.017  -3.406
 6171CHOL    R478725   2.871   1.015  -3.230
 6171CHOL    R578726   3.059   1.101  -3.288
 6171CHOL    C178727   3.158   1.228  -3.109
 6171CHOL    C278728   3.257   1.354  -2.931
 6172CHOL   ROH78729  15.274  -2.251  21.690
 6172CHOL    R178730  15.228  -2.141  21.583
 6172CHOL    R278731  15.277  -1.915  21.615
 6172CHOL    R378732  15.176  -2.017  21.463
 6172CHOL    R478733  15.237  -1.819  21.522
 6172CHOL    R578734  15.130  -1.907  21.356
 6172CHOL    C178735  15.062  -1.742  21.196
 6172CHOL    C278736  14.993  -1.577  21.036
 6173CHOL   ROH78737   4.788  21.892  -2.387
 6173CHOL    R178738   4.830  21.781  -2.279
 6173CHOL    R278739   4.922  21.842  -2.074
 6173CHOL    R378740   4.876  21.657  -2.158
 6173CHOL    R478741   4.958  21.746  -1.979
 6173CHOL    R578742   4.918  21.546  -2.050
 6173CHOL    C178743   4.980  21.380  -1.888
 6173CHOL    C278744   5.043  21.214  -1.726
 6174CHOL   ROH78745  23.910   0.894  16.245
 6174CHOL    R178746  23.784   0.977  16.191
 6174CHOL    R278747  23.795   1.097  15.992
 6174CHOL    R378748  23.642   1.070  16.131
 6174CHOL    R478749  23.685   1.169  15.945
 6174CHOL    R578750  23.516   1.153  16.077
 6174CHOL    C178751  23.327   1.277  15.997
 6174CHOL    C278752  23.138   1.401  15.917
 6175CHOL   ROH78753   1.008   9.102  -5.532
 6175CHOL    R178754   1.091   9.106  -5.395
 6175CHOL    R278755   1.058   8.945  -5.230
 6175CHOL    R378756   1.185   9.110  -5.242
 6175CHOL    R478757   1.130   8.948  -5.110
 6175CHOL    R578758   1.268   9.114  -5.105
 6175CHOL    C178759   1.393   9.120  -4.900
 6175CHOL    C278760   1.518   9.126  -4.695
 6176CHOL   ROH78761  26.454   7.648   3.745
 6176CHOL    R178762  26.305   7.668   3.799
 6176CHOL    R278763  26.201   7.877   3.790
 6176CHOL    R378764  26.137   7.691   3.860
 6176CHOL    R478765  26.070   7.894   3.838
 6176CHOL    R578766  25.987   7.711   3.913
 6176CHOL    C178767  25.764   7.741   3.994
 6176CHOL    C278768  25.540   7.771   4.075
 6177CHOL   ROH78769   9.926  -0.943  -4.195
 6177CHOL    R178770   9.922  -0.846  -4.068
 6177CHOL    R278771  10.096  -0.847  -3.912
 6177CHOL    R378772   9.918  -0.737  -3.924
 6177CHOL    R478773  10.092  -0.762  -3.800
 6177CHOL    R578774   9.914  -0.641  -3.797
 6177CHOL    C178775   9.909  -0.495  -3.606
 6177CHOL    C278776   9.903  -0.350  -3.415
 6178CHOL   ROH78777   0.834   6.139  24.840
 6178CHOL    R178778   0.917   6.178  24.709
 6178CHOL    R278779   1.054   6.023  24.603
 6178CHOL    R378780   1.011   6.223  24.562
 6178CHOL    R478781   1.127   6.057  24.488
 6178CHOL    R578782   1.094   6.262  24.431
 6178CHOL    C178783   1.219   6.321  24.235
 6178CHOL    C278784   1.344   6.380  24.038
 6179CHOL   ROH78785  12.690  -5.972  17.525
 6179CHOL    R178786  12.662  -5.830  17.457
 6179CHOL    R278787  12.817  -5.656  17.474
 6179CHOL    R378788  12.630  -5.670  17.381
 6179CHOL    R478789  12.792  -5.532  17.415
 6179CHOL    R578790  12.602  -5.528  17.313
 6179CHOL    C178791  12.560  -5.315  17.211
 6179CHOL    C278792  12.518  -5.102  17.109
 6180CHOL   ROH78793   2.036  25.108  15.189
 6180CHOL    R178794   2.108  24.973  15.141
 6180CHOL    R278795   2.326  24.924  15.207
 6180CHOL    R378796   2.188  24.821  15.088
 6180CHOL    R478797   2.389  24.806  15.165
 6180CHOL    R578798   2.260  24.687  15.040
 6180CHOL    C178799   2.368  24.484  14.968
 6180CHOL    C278800   2.475  24.282  14.897
 6181CHOL   ROH78801   1.167   0.977  -2.704
 6181CHOL    R178802   1.246   1.058  -2.591
 6181CHOL    R278803   1.193   1.033  -2.366
 6181CHOL    R378804   1.335   1.150  -2.464
 6181CHOL    R478805   1.262   1.104  -2.267
 6181CHOL    R578806   1.415   1.231  -2.352
 6181CHOL    C178807   1.533   1.353  -2.182
 6181CHOL    C278808   1.652   1.475  -2.013
 6182CHOL   ROH78809   0.242   9.936  -5.047
 6182CHOL    R178810   0.331   9.933  -4.914
 6182CHOL    R278811   0.250  10.023  -4.714
 6182CHOL    R378812   0.430   9.931  -4.764
 6182CHOL    R478813   0.327  10.020  -4.598
 6182CHOL    R578814   0.519   9.928  -4.631
 6182CHOL    C178815   0.652   9.924  -4.431
 6182CHOL    C278816   0.785   9.920  -4.232
 6183CHOL   ROH78817   2.479  24.462  17.288
 6183CHOL    R178818   2.547  24.332  17.224
 6183CHOL    R278819   2.756  24.344  17.122
 6183CHOL    R378820   2.624  24.186  17.152
 6183CHOL    R478821   2.816  24.231  17.066
 6183CHOL    R578822   2.692  24.056  17.088
 6183CHOL    C178823   2.794  23.861  16.993
 6183CHOL    C278824   2.896  23.666  16.897
 6184CHOL   ROH78825  -2.727   5.629  21.805
 6184CHOL    R178826  -2.619   5.672  21.695
 6184CHOL    R278827  -2.466   5.843  21.738
 6184CHOL    R378828  -2.497   5.721  21.572
 6184CHOL    R478829  -2.372   5.881  21.642
 6184CHOL    R578830  -2.389   5.765  21.462
 6184CHOL    C178831  -2.227   5.830  21.297
 6184CHOL    C278832  -2.065   5.895  21.133
 6185CHOL   ROH78833  -0.690  17.825  21.944
 6185CHOL    R178834  -0.596  17.756  21.834
 6185CHOL    R278835  -0.365  17.744  21.864
 6185CHOL    R378836  -0.491  17.679  21.710
 6185CHOL    R478837  -0.283  17.684  21.768
 6185CHOL    R578838  -0.397  17.610  21.601
 6185CHOL    C178839  -0.256  17.507  21.436
 6185CHOL    C278840  -0.116  17.404  21.271
 6186CHOL   ROH78841  22.022  -1.255  16.624
 6186CHOL    R178842  21.913  -1.154  16.565
 6186CHOL    R278843  21.901  -0.933  16.640
 6186CHOL    R378844  21.790  -1.039  16.499
 6186CHOL    R478845  21.806  -0.844  16.589
 6186CHOL    R578846  21.681  -0.938  16.440
 6186CHOL    C178847  21.518  -0.786  16.352
 6186CHOL    C278848  21.355  -0.634  16.263
 6187CHOL   ROH78849   8.570   7.626  27.573
 6187CHOL    R178850   8.584   7.646  27.415
 6187CHOL    R278851   8.793   7.657  27.313
 6187CHOL    R378852   8.599   7.668  27.237
 6187CHOL    R478853   8.805   7.674  27.174
 6187CHOL    R578854   8.613   7.687  27.079
 6187CHOL    C178855   8.633   7.717  26.841
 6187CHOL    C278856   8.653   7.747  26.604
 6188CHOL   ROH78857   1.992  25.991   9.627
 6188CHOL    R178858   2.068  25.850   9.632
 6188CHOL    R278859   2.235  25.798   9.478
 6188CHOL    R378860   2.153  25.692   9.638
 6188CHOL    R478861   2.301  25.675   9.482
 6188CHOL    R578862   2.229  25.551   9.643
 6188CHOL    C178863   2.343  25.340   9.650
 6188CHOL    C278864   2.457  25.129   9.657
 6189CHOL   ROH78865  12.757  -4.513  -0.084
 6189CHOL    R178866  12.731  -4.383   0.006
 6189CHOL    R278867  12.791  -4.379   0.231
 6189CHOL    R378868  12.702  -4.237   0.106
 6189CHOL    R478869  12.768  -4.265   0.309
 6189CHOL    R578870  12.675  -4.107   0.196
 6189CHOL    C178871  12.636  -3.912   0.330
 6189CHOL    C278872  12.597  -3.717   0.465
 6190CHOL   ROH78873  26.906   9.967   4.702
 6190CHOL    R178874  26.752   9.968   4.747
 6190CHOL    R278875  26.617   9.781   4.714
 6190CHOL    R378876  26.580   9.968   4.797
 6190CHOL    R478877  26.483   9.781   4.753
 6190CHOL    R578878  26.426   9.969   4.842
 6190CHOL    C178879  26.196   9.970   4.909
 6190CHOL    C278880  25.965   9.971   4.976
 6191CHOL   ROH78881   4.253  16.803  -5.586
 6191CHOL    R178882   4.304  16.741  -5.447
 6191CHOL    R278883   4.317  16.873  -5.255
 6191CHOL    R378884   4.360  16.672  -5.291
 6191CHOL    R478885   4.361  16.819  -5.134
 6191CHOL    R578886   4.411  16.610  -5.152
 6191CHOL    C178887   4.487  16.517  -4.944
 6191CHOL    C278888   4.563  16.425  -4.736
 6192CHOL   ROH78889   7.839  19.728  -4.925
 6192CHOL    R178890   7.855  19.639  -4.793
 6192CHOL    R278891   8.036  19.494  -4.767
 6192CHOL    R378892   7.872  19.538  -4.645
 6192CHOL    R478893   8.050  19.416  -4.652
 6192CHOL    R578894   7.888  19.449  -4.514
 6192CHOL    C178895   7.912  19.314  -4.316
 6192CHOL    C278896   7.935  19.180  -4.118
 6193CHOL   ROH78897  18.734  22.720   1.213
 6193CHOL    R178898  18.652  22.609   1.294
 6193CHOL    R278899  18.600  22.403   1.196
 6193CHOL    R378900  18.559  22.484   1.384
 6193CHOL    R478901  18.528  22.306   1.267
 6193CHOL    R578902  18.476  22.373   1.465
 6193CHOL    C178903  18.353  22.206   1.586
 6193CHOL    C278904  18.229  22.040   1.707
 6194CHOL   ROH78905  -3.524  11.418  -1.759
 6194CHOL    R178906  -3.407  11.410  -1.650
 6194CHOL    R278907  -3.403  11.554  -1.467
 6194CHOL    R378908  -3.275  11.401  -1.528
 6194CHOL    R478909  -3.300  11.547  -1.372
 6194CHOL    R578910  -3.157  11.393  -1.420
 6194CHOL    C178911  -2.982  11.381  -1.257
 6194CHOL    C278912  -2.806  11.369  -1.094
 6195CHOL   ROH78913  19.548  24.733  12.769
 6195CHOL    R178914  19.461  24.601  12.746
 6195CHOL    R278915  19.528  24.439  12.592
 6195CHOL    R378916  19.363  24.451  12.720
 6195CHOL    R478917  19.452  24.323  12.572
 6195CHOL    R578918  19.276  24.319  12.697
 6195CHOL    C178919  19.146  24.120  12.662
 6195CHOL    C278920  19.016  23.922  12.628
 6196CHOL   ROH78921  13.795  -7.464   9.330
 6196CHOL    R178922  13.758  -7.308   9.335
 6196CHOL    R278923  13.824  -7.176   9.516
 6196CHOL    R378924  13.716  -7.134   9.342
 6196CHOL    R478925  13.792  -7.040   9.520
 6196CHOL    R578926  13.680  -6.978   9.347
 6196CHOL    C178927  13.624  -6.745   9.355
 6196CHOL    C278928  13.569  -6.511   9.363
 6197CHOL   ROH78929  20.469  -2.549   2.865
 6197CHOL    R178930  20.375  -2.436   2.929
 6197CHOL    R278931  20.187  -2.358   2.814
 6197CHOL    R378932  20.269  -2.310   3.000
 6197CHOL    R478933  20.105  -2.259   2.870
 6197CHOL    R578934  20.174  -2.197   3.064
 6197CHOL    C178935  20.033  -2.028   3.160
 6197CHOL    C278936  19.892  -1.859   3.255
 6198CHOL   ROH78937   2.892  22.950  -0.148
 6198CHOL    R178938   2.954  22.832  -0.060
 6198CHOL    R278939   3.035  22.873   0.155
 6198CHOL    R378940   3.023  22.699   0.040
 6198CHOL    R478941   3.089  22.770   0.233
 6198CHOL    R578942   3.085  22.581   0.128
 6198CHOL    C178943   3.178  22.404   0.261
 6198CHOL    C278944   3.270  22.227   0.394
 6199CHOL   ROH78945  10.313  27.694  11.977
 6199CHOL    R178946  10.308  27.535  11.959
 6199CHOL    R278947  10.499  27.415  11.899
 6199CHOL    R378948  10.302  27.356  11.939
 6199CHOL    R478949  10.494  27.276  11.883
 6199CHOL    R578950  10.297  27.197  11.921
 6199CHOL    C178951  10.290  26.959  11.895
 6199CHOL    C278952  10.283  26.721  11.868
 6200CHOL   ROH78953  -5.151  18.903   6.092
 6200CHOL    R178954  -5.015  18.827   6.131
 6200CHOL    R278955  -4.980  18.748   6.347
 6200CHOL    R378956  -4.863  18.743   6.174
 6200CHOL    R478957  -4.861  18.682   6.381
 6200CHOL    R578958  -4.727  18.667   6.212
 6200CHOL    C178959  -4.523  18.554   6.270
 6200CHOL    C278960  -4.320  18.440   6.328
 6201CHOL   ROH78961  -2.959   4.520  -1.266
 6201CHOL    R178962  -2.845   4.569  -1.165
 6201CHOL    R278963  -2.856   4.516  -0.938
 6201CHOL    R378964  -2.718   4.624  -1.050
 6201CHOL    R478965  -2.757   4.559  -0.849
 6201CHOL    R578966  -2.604   4.674  -0.949
 6201CHOL    C178967  -2.434   4.747  -0.797
 6201CHOL    C278968  -2.263   4.821  -0.645
 6202CHOL   ROH78969  24.555   4.172   1.534
 6202CHOL    R178970  24.425   4.225   1.610
 6202CHOL    R278971  24.266   4.355   1.499
 6202CHOL    R378972  24.279   4.286   1.696
 6202CHOL    R478973  24.152   4.401   1.566
 6202CHOL    R578974  24.149   4.339   1.772
 6202CHOL    C178975  23.953   4.419   1.886
 6202CHOL    C278976  23.758   4.499   2.000
 6203CHOL   ROH78977  12.660   1.246  25.285
 6203CHOL    R178978  12.636   1.327  25.149
 6203CHOL    R278979  12.730   1.538  25.117
 6203CHOL    R378980  12.608   1.418  24.996
 6203CHOL    R478981  12.708   1.609  24.998
 6203CHOL    R578982  12.584   1.499  24.860
 6203CHOL    C178983  12.548   1.620  24.657
 6203CHOL    C278984  12.511   1.741  24.453
 6204CHOL   ROH78985  27.304  10.442  13.590
 6204CHOL    R178986  27.147  10.437  13.562
 6204CHOL    R278987  27.044  10.596  13.426
 6204CHOL    R378988  26.969  10.431  13.530
 6204CHOL    R478989  26.906  10.592  13.401
 6204CHOL    R578990  26.812  10.425  13.501
 6204CHOL    C178991  26.576  10.418  13.459
 6204CHOL    C278992  26.340  10.410  13.417
 6205CHOL   ROH78993   5.316  12.956  -7.102
 6205CHOL    R178994   5.357  12.931  -6.949
 6205CHOL    R278995   5.198  12.864  -6.792
 6205CHOL    R378996   5.402  12.903  -6.778
 6205CHOL    R478997   5.233  12.842  -6.659
 6205CHOL    R578998   5.443  12.878  -6.625
 6205CHOL    C178999   5.504  12.841  -6.396
 6205CHOL    C279000   5.565  12.803  -6.167
 6206CHOL   ROH79001  27.213   6.296  11.868
 6206CHOL    R179002  27.057   6.328  11.851
 6206CHOL    R279003  26.936   6.242  11.671
 6206CHOL    R379004  26.882   6.364  11.832
 6206CHOL    R479005  26.800   6.270  11.656
 6206CHOL    R579006  26.726   6.396  11.815
 6206CHOL    C179007  26.492   6.443  11.790
 6206CHOL    C279008  26.258   6.491  11.765
 6207CHOL   ROH79009  27.462   9.409  12.603
 6207CHOL    R179010  27.303   9.412  12.583
 6207CHOL    R279011  27.206   9.541  12.415
 6207CHOL    R379012  27.125   9.415  12.560
 6207CHOL    R479013  27.067   9.543  12.397
 6207CHOL    R579014  26.966   9.418  12.540
 6207CHOL    C179015  26.728   9.422  12.510
 6207CHOL    C279016  26.490   9.427  12.480
 6208CHOL   ROH79017   6.213  12.459  27.119
 6208CHOL    R179018   6.247  12.440  26.964
 6208CHOL    R279019   6.381  12.263  26.891
 6208CHOL    R379020   6.286  12.419  26.789
 6208CHOL    R479021   6.411  12.247  26.755
 6208CHOL    R579022   6.321  12.400  26.634
 6208CHOL    C179023   6.372  12.372  26.401
 6208CHOL    C279024   6.424  12.344  26.168
 6209CHOL   ROH79025  15.712  11.880  -6.842
 6209CHOL    R179026  15.660  11.864  -6.692
 6209CHOL    R279027  15.531  11.679  -6.629
 6209CHOL    R379028  15.601  11.845  -6.523
 6209CHOL    R479029  15.485  11.665  -6.498
 6209CHOL    R579030  15.549  11.829  -6.373
 6209CHOL    C179031  15.470  11.804  -6.147
 6209CHOL    C279032  15.392  11.779  -5.922
 6210CHOL   ROH79033  23.119  -1.946   8.986
 6210CHOL    R179034  23.000  -1.839   8.996
 6210CHOL    R279035  22.860  -1.798   8.813
 6210CHOL    R379036  22.866  -1.720   9.007
 6210CHOL    R479037  22.756  -1.705   8.822
 6210CHOL    R579038  22.747  -1.613   9.017
 6210CHOL    C179039  22.568  -1.453   9.031
 6210CHOL    C279040  22.390  -1.293   9.046
 6211CHOL   ROH79041   3.833  21.184  22.443
 6211CHOL    R179042   3.884  21.082  22.331
 6211CHOL    R279043   3.987  20.881  22.389
 6211CHOL    R379044   3.941  20.968  22.204
 6211CHOL    R479045   4.032  20.792  22.291
 6211CHOL    R579046   3.993  20.866  22.092
 6211CHOL    C179047   4.069  20.713  21.924
 6211CHOL    C279048   4.146  20.561  21.755
 6212CHOL   ROH79049  -5.976  16.514  15.101
 6212CHOL    R179050  -5.834  16.455  15.058
 6212CHOL    R279051  -5.651  16.595  15.024
 6212CHOL    R379052  -5.674  16.388  15.010
 6212CHOL    R479053  -5.526  16.543  14.986
 6212CHOL    R579054  -5.532  16.329  14.967
 6212CHOL    C179055  -5.318  16.240  14.902
 6212CHOL    C279056  -5.105  16.151  14.837
 6213CHOL   ROH79057  21.524  23.470   8.589
 6213CHOL    R179058  21.422  23.347   8.600
 6213CHOL    R279059  21.292  23.282   8.418
 6213CHOL    R379060  21.308  23.209   8.613
 6213CHOL    R479061  21.203  23.174   8.428
 6213CHOL    R579062  21.206  23.085   8.624
 6213CHOL    C179063  21.054  22.901   8.642
 6213CHOL    C279064  20.902  22.716   8.659
 6214CHOL   ROH79065  23.021  -1.802  12.494
 6214CHOL    R179066  22.905  -1.696  12.467
 6214CHOL    R279067  22.929  -1.529  12.305
 6214CHOL    R379068  22.773  -1.576  12.437
 6214CHOL    R479069  22.827  -1.436  12.282
 6214CHOL    R579070  22.657  -1.470  12.409
 6214CHOL    C179071  22.482  -1.311  12.369
 6214CHOL    C279072  22.308  -1.151  12.328
 6215CHOL   ROH79073  -7.377  11.704   5.873
 6215CHOL    R179074  -7.222  11.689   5.910
 6215CHOL    R279075  -7.148  11.721   6.129
 6215CHOL    R379076  -7.048  11.672   5.952
 6215CHOL    R479077  -7.012  11.708   6.162
 6215CHOL    R579078  -6.893  11.657   5.990
 6215CHOL    C179079  -6.661  11.634   6.045
 6215CHOL    C279080  -6.428  11.612   6.101
 6216CHOL   ROH79081  18.166  -0.412  21.823
 6216CHOL    R179082  18.090  -0.318  21.718
 6216CHOL    R279083  18.208  -0.202  21.553
 6216CHOL    R379084  18.005  -0.213  21.600
 6216CHOL    R479085  18.142  -0.120  21.461
 6216CHOL    R579086  17.929  -0.119  21.495
 6216CHOL    C179087  17.815   0.022  21.337
 6216CHOL    C279088  17.701   0.162  21.179
 6217CHOL   ROH79089  -6.822   9.235   3.711
 6217CHOL    R179090  -6.672   9.240   3.765
 6217CHOL    R279091  -6.594   9.082   3.919
 6217CHOL    R379092  -6.502   9.246   3.826
 6217CHOL    R479093  -6.463   9.087   3.966
 6217CHOL    R579094  -6.352   9.250   3.881
 6217CHOL    C179095  -6.126   9.258   3.962
 6217CHOL    C279096  -5.901   9.265   4.043
 6218CHOL   ROH79097  -0.264  -1.682   0.954
 6218CHOL    R179098  -0.177  -1.578   1.040
 6218CHOL    R279099   0.011  -1.648   1.158
 6218CHOL    R379100  -0.080  -1.462   1.136
 6218CHOL    R479101   0.087  -1.558   1.233
 6218CHOL    R579102   0.007  -1.358   1.221
 6218CHOL    C179103   0.137  -1.202   1.350
 6218CHOL    C279104   0.267  -1.047   1.478
 6219CHOL   ROH79105  26.441  11.633   3.517
 6219CHOL    R179106  26.292  11.621   3.575
 6219CHOL    R279107  26.163  11.430   3.534
 6219CHOL    R379108  26.125  11.607   3.639
 6219CHOL    R479109  26.033  11.420   3.585
 6219CHOL    R579110  25.976  11.595   3.697
 6219CHOL    C179111  25.753  11.576   3.783
 6219CHOL    C279112  25.530  11.558   3.870
 6220CHOL   ROH79113   1.503  -5.341  13.699
 6220CHOL    R179114   1.578  -5.203  13.668
 6220CHOL    R279115   1.719  -5.183  13.483
 6220CHOL    R379116   1.662  -5.048  13.633
 6220CHOL    R479117   1.785  -5.062  13.456
 6220CHOL    R579118   1.738  -4.910  13.601
 6220CHOL    C179119   1.850  -4.704  13.555
 6220CHOL    C279120   1.963  -4.497  13.508
 6221CHOL   ROH79121   2.061  -0.728  -1.905
 6221CHOL    R179122   2.132  -0.631  -1.800
 6221CHOL    R279123   2.350  -0.671  -1.726
 6221CHOL    R379124   2.212  -0.521  -1.681
 6221CHOL    R479125   2.412  -0.586  -1.634
 6221CHOL    R579126   2.283  -0.424  -1.575
 6221CHOL    C179127   2.389  -0.278  -1.417
 6221CHOL    C279128   2.495  -0.132  -1.259
 6222CHOL   ROH79129   9.140  -7.763  11.384
 6222CHOL    R179130   9.146  -7.604  11.372
 6222CHOL    R279131   9.174  -7.470  11.561
 6222CHOL    R379132   9.154  -7.424  11.358
 6222CHOL    R479133   9.180  -7.330  11.550
 6222CHOL    R579134   9.160  -7.265  11.346
 6222CHOL    C179135   9.170  -7.026  11.328
 6222CHOL    C279136   9.179  -6.787  11.310
 6223CHOL   ROH79137  14.023  -7.093  13.110
 6223CHOL    R179138  13.985  -6.941  13.080
 6223CHOL    R279139  14.010  -6.850  12.867
 6223CHOL    R379140  13.942  -6.769  13.047
 6223CHOL    R479141  13.977  -6.717  12.841
 6223CHOL    R579142  13.904  -6.616  13.017
 6223CHOL    C179143  13.848  -6.388  12.972
 6223CHOL    C279144  13.791  -6.159  12.928
 6224CHOL   ROH79145   0.188  12.665  24.666
 6224CHOL    R179146   0.278  12.637  24.537
 6224CHOL    R279147   0.501  12.571  24.558
 6224CHOL    R379148   0.379  12.605  24.391
 6224CHOL    R479149   0.579  12.546  24.444
 6224CHOL    R579150   0.469  12.576  24.262
 6224CHOL    C179151   0.604  12.534  24.068
 6224CHOL    C279152   0.739  12.492  23.874
 6225CHOL   ROH79153   8.140  23.458  21.509
 6225CHOL    R179154   8.159  23.340  21.402
 6225CHOL    R279155   8.202  23.387  21.178
 6225CHOL    R379156   8.180  23.208  21.282
 6225CHOL    R479157   8.219  23.284  21.085
 6225CHOL    R579158   8.199  23.090  21.175
 6225CHOL    C179159   8.227  22.913  21.015
 6225CHOL    C279160   8.256  22.737  20.855
 6226CHOL   ROH79161  21.530   1.487  -0.490
 6226CHOL    R179162  21.426   1.562  -0.395
 6226CHOL    R279163  21.440   1.792  -0.358
 6226CHOL    R379164  21.308   1.646  -0.287
 6226CHOL    R479165  21.348   1.857  -0.275
 6226CHOL    R579166  21.204   1.720  -0.192
 6226CHOL    C179167  21.047   1.833  -0.049
 6226CHOL    C279168  20.890   1.945   0.094
 6227CHOL   ROH79169  11.382   8.722  -7.837
 6227CHOL    R179170  11.372   8.734  -7.678
 6227CHOL    R279171  11.218   8.879  -7.578
 6227CHOL    R379172  11.360   8.748  -7.499
 6227CHOL    R479173  11.210   8.890  -7.439
 6227CHOL    R579174  11.350   8.760  -7.340
 6227CHOL    C179175  11.335   8.778  -7.101
 6227CHOL    C279176  11.319   8.796  -6.862
 6228CHOL   ROH79177  23.883  20.795   7.896
 6228CHOL    R179178  23.755  20.702   7.917
 6228CHOL    R279179  23.768  20.471   7.890
 6228CHOL    R379180  23.610  20.597   7.941
 6228CHOL    R479181  23.656  20.389   7.908
 6228CHOL    R579182  23.482  20.504   7.962
 6228CHOL    C179183  23.290  20.364   7.994
 6228CHOL    C279184  23.097  20.225   8.026
 6229CHOL   ROH79185  15.294   8.647  -7.013
 6229CHOL    R179186  15.238   8.661  -6.864
 6229CHOL    R279187  15.013   8.625  -6.816
 6229CHOL    R379188  15.176   8.677  -6.696
 6229CHOL    R479189  14.964   8.637  -6.685
 6229CHOL    R579190  15.120   8.691  -6.546
 6229CHOL    C179191  15.036   8.711  -6.323
 6229CHOL    C279192  14.953   8.732  -6.099
 6230CHOL   ROH79193  22.824  20.081  16.809
 6230CHOL    R179194  22.711  19.985  16.748
 6230CHOL    R279195  22.700  19.944  16.519
 6230CHOL    R379196  22.585  19.877  16.680
 6230CHOL    R479197  22.601  19.860  16.466
 6230CHOL    R579198  22.472  19.781  16.619
 6230CHOL    C179199  22.303  19.637  16.528
 6230CHOL    C279200  22.134  19.493  16.437
 6231CHOL   ROH79201  -7.241   5.321   7.955
 6231CHOL    R179202  -7.089   5.370   7.970
 6231CHOL    R279203  -6.942   5.261   8.115
 6231CHOL    R379204  -6.919   5.424   7.987
 6231CHOL    R479205  -6.810   5.304   8.128
 6231CHOL    R579206  -6.767   5.473   8.001
 6231CHOL    C179207  -6.539   5.546   8.024
 6231CHOL    C279208  -6.312   5.619   8.046
 6232CHOL   ROH79209  15.684  25.847   4.346
 6232CHOL    R179210  15.635  25.704   4.397
 6232CHOL    R279211  15.649  25.516   4.260
 6232CHOL    R379212  15.579  25.542   4.455
 6232CHOL    R479213  15.606  25.390   4.305
 6232CHOL    R579214  15.530  25.399   4.507
 6232CHOL    C179215  15.456  25.184   4.584
 6232CHOL    C279216  15.382  24.969   4.661
 6233CHOL   ROH79217  19.300  23.472   2.998
 6233CHOL    R179218  19.215  23.355   3.066
 6233CHOL    R279219  19.058  23.233   2.943
 6233CHOL    R379220  19.119  23.222   3.142
 6233CHOL    R479221  18.984  23.131   3.002
 6233CHOL    R579222  19.034  23.105   3.210
 6233CHOL    C179223  18.907  22.929   3.312
 6233CHOL    C279224  18.780  22.753   3.414
 6234CHOL   ROH79225  21.492  15.733  -2.359
 6234CHOL    R179226  21.389  15.682  -2.248
 6234CHOL    R279227  21.259  15.491  -2.282
 6234CHOL    R379228  21.273  15.625  -2.122
 6234CHOL    R479229  21.169  15.447  -2.185
 6234CHOL    R579230  21.170  15.574  -2.011
 6234CHOL    C179231  21.015  15.498  -1.844
 6234CHOL    C279232  20.861  15.421  -1.677
 6235CHOL   ROH79233   8.127  15.400  26.850
 6235CHOL    R179234   8.144  15.354  26.698
 6235CHOL    R279235   8.275  15.169  26.642
 6235CHOL    R379236   8.164  15.303  26.526
 6235CHOL    R479237   8.290  15.129  26.509
 6235CHOL    R579238   8.182  15.257  26.374
 6235CHOL    C179239   8.208  15.188  26.146
 6235CHOL    C279240   8.234  15.120  25.917
 6236CHOL   ROH79241  24.066  20.771  10.815
 6236CHOL    R179242  23.938  20.676  10.804
 6236CHOL    R279243  23.754  20.737  10.673
 6236CHOL    R379244  23.793  20.569  10.792
 6236CHOL    R479245  23.642  20.654  10.664
 6236CHOL    R579246  23.665  20.475  10.781
 6236CHOL    C179247  23.473  20.332  10.765
 6236CHOL    C279248  23.280  20.190  10.748
 6237CHOL   ROH79249  25.294   6.744   1.515
 6237CHOL    R179250  25.155   6.770   1.591
 6237CHOL    R279251  24.961   6.820   1.471
 6237CHOL    R379252  25.000   6.800   1.675
 6237CHOL    R479253  24.840   6.843   1.537
 6237CHOL    R579254  24.861   6.826   1.751
 6237CHOL    C179255  24.653   6.865   1.864
 6237CHOL    C279256  24.445   6.905   1.978
 6238CHOL   ROH79257  14.735  19.919  -4.094
 6238CHOL    R179258  14.693  19.832  -3.966
 6238CHOL    R279259  14.645  19.605  -3.986
 6238CHOL    R379260  14.646  19.735  -3.822
 6238CHOL    R479261  14.609  19.529  -3.874
 6238CHOL    R579262  14.605  19.648  -3.694
 6238CHOL    C179263  14.542  19.518  -3.503
 6238CHOL    C279264  14.479  19.388  -3.311
 6239CHOL   ROH79265  -1.738  22.794  14.530
 6239CHOL    R179266  -1.633  22.682  14.485
 6239CHOL    R279267  -1.562  22.517  14.634
 6239CHOL    R379268  -1.514  22.557  14.435
 6239CHOL    R479269  -1.470  22.419  14.595
 6239CHOL    R579270  -1.409  22.445  14.390
 6239CHOL    C179271  -1.250  22.277  14.323
 6239CHOL    C279272  -1.092  22.110  14.256
 6240CHOL   ROH79273   0.977  -1.235  -0.620
 6240CHOL    R179274   1.054  -1.135  -0.522
 6240CHOL    R279275   1.287  -1.124  -0.521
 6240CHOL    R379276   1.141  -1.022  -0.412
 6240CHOL    R479277   1.355  -1.036  -0.435
 6240CHOL    R579278   1.219  -0.922  -0.314
 6240CHOL    C179279   1.334  -0.772  -0.166
 6240CHOL    C279280   1.450  -0.622  -0.019
 6241CHOL   ROH79281  22.765  19.320  18.004
 6241CHOL    R179282  22.651  19.232  17.934
 6241CHOL    R279283  22.707  19.055  17.792
 6241CHOL    R379284  22.523  19.133  17.855
 6241CHOL    R479285  22.607  18.978  17.731
 6241CHOL    R579286  22.410  19.044  17.786
 6241CHOL    C179287  22.239  18.912  17.681
 6241CHOL    C279288  22.068  18.780  17.576
 6242CHOL   ROH79289  22.190  22.747  11.918
 6242CHOL    R179290  22.079  22.634  11.894
 6242CHOL    R279291  22.122  22.452  11.756
 6242CHOL    R379292  21.955  22.507  11.868
 6242CHOL    R479293  22.025  22.353  11.735
 6242CHOL    R579294  21.844  22.394  11.844
 6242CHOL    C179295  21.678  22.225  11.808
 6242CHOL    C279296  21.512  22.055  11.773
 6243CHOL   ROH79297  11.010  26.581   3.445
 6243CHOL    R179298  10.993  26.433   3.502
 6243CHOL    R279299  10.995  26.248   3.359
 6243CHOL    R379300  10.974  26.265   3.566
 6243CHOL    R479301  10.980  26.118   3.409
 6243CHOL    R579302  10.957  26.117   3.624
 6243CHOL    C179303  10.932  25.894   3.709
 6243CHOL    C279304  10.906  25.672   3.795
 6244CHOL   ROH79305  -4.880  11.522  -0.076
 6244CHOL    R179306  -4.749  11.513   0.015
 6244CHOL    R279307  -4.691  11.314   0.123
 6244CHOL    R379308  -4.601  11.502   0.117
 6244CHOL    R479309  -4.576  11.306   0.203
 6244CHOL    R579310  -4.470  11.493   0.208
 6244CHOL    C179311  -4.272  11.479   0.344
 6244CHOL    C279312  -4.075  11.465   0.481
 6245CHOL   ROH79313  17.151   9.428  -6.316
 6245CHOL    R179314  17.084   9.435  -6.171
 6245CHOL    R279315  16.858   9.485  -6.145
 6245CHOL    R379316  17.009   9.442  -6.007
 6245CHOL    R479317  16.800   9.491  -6.018
 6245CHOL    R579318  16.942   9.449  -5.862
 6245CHOL    C179319  16.842   9.459  -5.644
 6245CHOL    C279320  16.742   9.469  -5.426
 6246CHOL   ROH79321  26.064   8.958   2.508
 6246CHOL    R179322  25.919   8.967   2.576
 6246CHOL    R279323  25.772   9.140   2.522
 6246CHOL    R379324  25.757   8.977   2.652
 6246CHOL    R479325  25.646   9.148   2.581
 6246CHOL    R579326  25.612   8.986   2.720
 6246CHOL    C179327  25.395   8.999   2.822
 6246CHOL    C279328  25.178   9.013   2.924
 6247CHOL   ROH79329   0.479  -0.982  20.460
 6247CHOL    R179330   0.564  -0.886  20.364
 6247CHOL    R279331   0.774  -0.808  20.428
 6247CHOL    R379332   0.659  -0.778  20.256
 6247CHOL    R479333   0.848  -0.724  20.344
 6247CHOL    R579334   0.744  -0.682  20.161
 6247CHOL    C179335   0.871  -0.538  20.017
 6247CHOL    C279336   0.998  -0.394  19.873
 6248CHOL   ROH79337   5.847  22.666  21.763
 6248CHOL    R179338   5.882  22.553  21.655
 6248CHOL    R279339   6.051  22.584  21.498
 6248CHOL    R379340   5.920  22.425  21.535
 6248CHOL    R479341   6.081  22.485  21.404
 6248CHOL    R579342   5.955  22.312  21.427
 6248CHOL    C179343   6.007  22.142  21.266
 6248CHOL    C279344   6.059  21.972  21.104
 6249CHOL   ROH79345  -2.504  13.571  -2.450
 6249CHOL    R179346  -2.397  13.543  -2.334
 6249CHOL    R279347  -2.465  13.486  -2.119
 6249CHOL    R379348  -2.276  13.512  -2.205
 6249CHOL    R479349  -2.371  13.462  -2.018
 6249CHOL    R579350  -2.169  13.484  -2.089
 6249CHOL    C179351  -2.008  13.442  -1.916
 6249CHOL    C279352  -1.847  13.400  -1.742
 6250CHOL   ROH79353  20.233  24.480  10.218
 6250CHOL    R179354  20.146  24.346  10.219
 6250CHOL    R279355  20.186  24.175  10.066
 6250CHOL    R379356  20.048  24.195  10.221
 6250CHOL    R479357  20.110  24.058  10.067
 6250CHOL    R579358  19.961  24.061  10.222
 6250CHOL    C179359  19.830  23.859  10.225
 6250CHOL    C279360  19.700  23.658  10.227
 6251CHOL   ROH79361  11.897   0.064  -4.737
 6251CHOL    R179362  11.878   0.153  -4.605
 6251CHOL    R279363  12.030   0.321  -4.552
 6251CHOL    R379364  11.857   0.253  -4.457
 6251CHOL    R479365  12.014   0.399  -4.437
 6251CHOL    R579366  11.838   0.342  -4.325
 6251CHOL    C179367  11.810   0.475  -4.128
 6251CHOL    C279368  11.782   0.609  -3.930
 6252CHOL   ROH79369   8.082  -6.204   2.660
 6252CHOL    R179370   8.098  -6.059   2.726
 6252CHOL    R279371   8.309  -5.970   2.770
 6252CHOL    R379372   8.116  -5.897   2.801
 6252CHOL    R479373   8.323  -5.844   2.828
 6252CHOL    R579374   8.132  -5.752   2.867
 6252CHOL    C179375   8.157  -5.535   2.967
 6252CHOL    C279376   8.181  -5.318   3.067
 6253CHOL   ROH79377   4.676  -1.171  -3.003
 6253CHOL    R179378   4.723  -1.071  -2.888
 6253CHOL    R279379   4.769  -1.148  -2.673
 6253CHOL    R379380   4.776  -0.957  -2.758
 6253CHOL    R479381   4.811  -1.060  -2.572
 6253CHOL    R579382   4.823  -0.857  -2.643
 6253CHOL    C179383   4.894  -0.706  -2.470
 6253CHOL    C279384   4.965  -0.556  -2.297
 6254CHOL   ROH79385  -2.072   2.601  -1.103
 6254CHOL    R179386  -1.969   2.669  -1.001
 6254CHOL    R279387  -1.942   2.586  -0.785
 6254CHOL    R379388  -1.853   2.745  -0.886
 6254CHOL    R479389  -1.852   2.646  -0.695
 6254CHOL    R579390  -1.751   2.813  -0.785
 6254CHOL    C179391  -1.596   2.915  -0.632
 6254CHOL    C279392  -1.442   3.017  -0.479
 6255CHOL   ROH79393   7.460  24.576  19.973
 6255CHOL    R179394   7.482  24.446  19.882
 6255CHOL    R279395   7.689  24.340  19.874
 6255CHOL    R379396   7.507  24.300  19.780
 6255CHOL    R479397   7.709  24.226  19.794
 6255CHOL    R579398   7.529  24.170  19.690
 6255CHOL    C179399   7.562  23.975  19.553
 6255CHOL    C279400   7.595  23.780  19.417
 6256CHOL   ROH79401  -2.293  22.640  13.442
 6256CHOL    R179402  -2.182  22.530  13.408
 6256CHOL    R279403  -1.965  22.550  13.491
 6256CHOL    R379404  -2.057  22.406  13.370
 6256CHOL    R479405  -1.867  22.453  13.461
 6256CHOL    R579406  -1.946  22.296  13.336
 6256CHOL    C179407  -1.779  22.132  13.285
 6256CHOL    C279408  -1.612  21.967  13.234
 6257CHOL   ROH79409  21.692  16.344  -1.870
 6257CHOL    R179410  21.587  16.288  -1.763
 6257CHOL    R279411  21.358  16.298  -1.803
 6257CHOL    R379412  21.470  16.224  -1.642
 6257CHOL    R479413  21.266  16.249  -1.709
 6257CHOL    R579414  21.365  16.168  -1.535
 6257CHOL    C179415  21.208  16.084  -1.374
 6257CHOL    C279416  21.051  15.999  -1.213
 6258CHOL   ROH79417  17.780  18.381  23.560
 6258CHOL    R179418  17.707  18.307  23.438
 6258CHOL    R279419  17.718  18.394  23.222
 6258CHOL    R379420  17.626  18.224  23.301
 6258CHOL    R479421  17.655  18.329  23.115
 6258CHOL    R579422  17.553  18.151  23.178
 6258CHOL    C179423  17.444  18.040  22.995
 6258CHOL    C279424  17.335  17.929  22.812
 6259CHOL   ROH79425  -5.910   8.521  18.167
 6259CHOL    R179426  -5.768   8.533  18.095
 6259CHOL    R279427  -5.658   8.737  18.078
 6259CHOL    R379428  -5.608   8.545  18.013
 6259CHOL    R479429  -5.533   8.747  18.015
 6259CHOL    R579430  -5.466   8.557  17.941
 6259CHOL    C179431  -5.253   8.574  17.832
 6259CHOL    C279432  -5.040   8.592  17.723
 6260CHOL   ROH79433  -6.689  16.274   7.581
 6260CHOL    R179434  -6.541  16.219   7.607
 6260CHOL    R279435  -6.355  16.359   7.582
 6260CHOL    R379436  -6.374  16.158   7.637
 6260CHOL    R479437  -6.226  16.311   7.605
 6260CHOL    R579438  -6.226  16.104   7.663
 6260CHOL    C179439  -6.004  16.022   7.702
 6260CHOL    C279440  -5.782  15.940   7.742
 6261CHOL   ROH79441  27.176   6.479  12.461
 6261CHOL    R179442  27.020   6.510  12.440
 6261CHOL    R279443  26.916   6.462  12.237
 6261CHOL    R379444  26.846   6.545  12.415
 6261CHOL    R479445  26.780   6.489  12.218
 6261CHOL    R579446  26.690   6.576  12.394
 6261CHOL    C179447  26.457   6.622  12.362
 6261CHOL    C279448  26.223   6.668  12.330
 6262CHOL   ROH79449  -6.335  12.615  17.063
 6262CHOL    R179450  -6.191  12.589  16.998
 6262CHOL    R279451  -6.057  12.412  17.069
 6262CHOL    R379452  -6.029  12.561  16.925
 6262CHOL    R479453  -5.931  12.390  17.012
 6262CHOL    R579454  -5.886  12.535  16.859
 6262CHOL    C179455  -5.670  12.497  16.762
 6262CHOL    C279456  -5.454  12.458  16.664
 6263CHOL   ROH79457  -7.716   8.536   7.093
 6263CHOL    R179458  -7.559   8.545   7.123
 6263CHOL    R279459  -7.479   8.649   7.315
 6263CHOL    R379460  -7.382   8.554   7.156
 6263CHOL    R479461  -7.342   8.656   7.342
 6263CHOL    R579462  -7.226   8.563   7.186
 6263CHOL    C179463  -6.990   8.576   7.231
 6263CHOL    C279464  -6.755   8.589   7.275
 6264CHOL   ROH79465  10.039  -5.329  19.141
 6264CHOL    R179466  10.038  -5.192  19.058
 6264CHOL    R279467  10.124  -5.183  18.841
 6264CHOL    R379468  10.037  -5.039  18.964
 6264CHOL    R479469  10.123  -5.064  18.768
 6264CHOL    R579470  10.036  -4.902  18.881
 6264CHOL    C179471  10.035  -4.697  18.755
 6264CHOL    C279472  10.034  -4.492  18.630
 6265CHOL   ROH79473   4.691   5.113  26.298
 6265CHOL    R179474   4.729   5.159  26.150
 6265CHOL    R279475   4.769   5.383  26.100
 6265CHOL    R379476   4.772   5.210  25.982
 6265CHOL    R479477   4.803   5.423  25.970
 6265CHOL    R579478   4.810   5.256  25.834
 6265CHOL    C179479   4.868   5.325  25.611
 6265CHOL    C279480   4.925   5.393  25.389
 6266CHOL   ROH79481  23.229  -1.849   9.321
 6266CHOL    R179482  23.109  -1.743   9.328
 6266CHOL    R279483  22.982  -1.693   9.139
 6266CHOL    R379484  22.974  -1.625   9.336
 6266CHOL    R479485  22.877  -1.601   9.146
 6266CHOL    R579486  22.854  -1.519   9.344
 6266CHOL    C179487  22.674  -1.361   9.354
 6266CHOL    C279488  22.494  -1.202   9.365
 6267CHOL   ROH79489  19.394   7.017  -4.819
 6267CHOL    R179490  19.311   7.044  -4.685
 6267CHOL    R279491  19.248   7.260  -4.623
 6267CHOL    R379492  19.218   7.074  -4.534
 6267CHOL    R479493  19.176   7.283  -4.506
 6267CHOL    R579494  19.135   7.100  -4.399
 6267CHOL    C179495  19.011   7.141  -4.198
 6267CHOL    C279496  18.886   7.181  -3.997
 6268CHOL   ROH79497   7.486  27.547   7.722
 6268CHOL    R179498   7.505  27.389   7.740
 6268CHOL    R279499   7.668  27.273   7.621
 6268CHOL    R379500   7.525  27.211   7.761
 6268CHOL    R479501   7.684  27.135   7.637
 6268CHOL    R579502   7.544  27.054   7.780
 6268CHOL    C179503   7.572  26.817   7.807
 6268CHOL    C279504   7.600  26.580   7.835
 6269CHOL   ROH79505   2.577  -0.927  22.087
 6269CHOL    R179506   2.643  -0.827  21.981
 6269CHOL    R279507   2.793  -0.662  22.049
 6269CHOL    R379508   2.718  -0.715  21.862
 6269CHOL    R479509   2.851  -0.575  21.957
 6269CHOL    R579510   2.784  -0.615  21.756
 6269CHOL    C179511   2.883  -0.465  21.597
 6269CHOL    C279512   2.983  -0.315  21.438
 6270CHOL   ROH79513   6.171  18.707  25.109
 6270CHOL    R179514   6.203  18.626  24.975
 6270CHOL    R279515   6.392  18.673  24.848
 6270CHOL    R379516   6.238  18.535  24.824
 6270CHOL    R479517   6.420  18.602  24.730
 6270CHOL    R579518   6.270  18.453  24.690
 6270CHOL    C179519   6.318  18.332  24.488
 6270CHOL    C279520   6.365  18.210  24.287
 6271CHOL   ROH79521   9.095  -2.542  22.625
 6271CHOL    R179522   9.098  -2.428  22.513
 6271CHOL    R279523   9.104  -2.202  22.571
 6271CHOL    R379524   9.101  -2.300  22.386
 6271CHOL    R479525   9.107  -2.103  22.473
 6271CHOL    R579526   9.104  -2.186  22.274
 6271CHOL    C179527   9.109  -2.015  22.106
 6271CHOL    C279528   9.114  -1.844  21.937
 6272CHOL   ROH79529   7.139  26.453   3.493
 6272CHOL    R179530   7.164  26.306   3.550
 6272CHOL    R279531   7.353  26.184   3.489
 6272CHOL    R379532   7.192  26.140   3.615
 6272CHOL    R479533   7.375  26.055   3.539
 6272CHOL    R579534   7.218  25.993   3.672
 6272CHOL    C179535   7.255  25.772   3.759
 6272CHOL    C279536   7.293  25.551   3.845
 6273CHOL   ROH79537  12.454  27.067  14.350
 6273CHOL    R179538  12.431  26.913  14.313
 6273CHOL    R279539  12.563  26.808  14.152
 6273CHOL    R379540  12.404  26.740  14.270
 6273CHOL    R479541  12.542  26.673  14.119
 6273CHOL    R579542  12.381  26.586  14.233
 6273CHOL    C179543  12.346  26.356  14.177
 6273CHOL    C279544  12.311  26.125  14.121
 6274CHOL   ROH79545  19.469  15.226  23.908
 6274CHOL    R179546  19.379  15.179  23.784
 6274CHOL    R279547  19.459  15.191  23.566
 6274CHOL    R379548  19.277  15.127  23.646
 6274CHOL    R479549  19.380  15.150  23.458
 6274CHOL    R579550  19.186  15.080  23.522
 6274CHOL    C179551  19.051  15.010  23.337
 6274CHOL    C279552  18.915  14.940  23.151
 6275CHOL   ROH79553  25.398   8.510  18.550
 6275CHOL    R179554  25.260   8.526  18.470
 6275CHOL    R279555  25.255   8.518  18.237
 6275CHOL    R379556  25.105   8.544  18.381
 6275CHOL    R479557  25.134   8.532  18.168
 6275CHOL    R579558  24.967   8.561  18.301
 6275CHOL    C179559  24.761   8.585  18.181
 6275CHOL    C279560  24.554   8.609  18.062
 6276CHOL   ROH79561  16.715  16.398  25.131
 6276CHOL    R179562  16.653  16.339  24.995
 6276CHOL    R279563  16.610  16.479  24.813
 6276CHOL    R379564  16.584  16.274  24.843
 6276CHOL    R479565  16.556  16.427  24.695
 6276CHOL    R579566  16.522  16.215  24.707
 6276CHOL    C179567  16.430  16.127  24.504
 6276CHOL    C279568  16.338  16.039  24.301
 6277CHOL   ROH79569  12.740  -7.059  14.409
 6277CHOL    R179570  12.714  -6.907  14.369
 6277CHOL    R279571  12.821  -6.811  14.185
 6277CHOL    R379572  12.684  -6.735  14.323
 6277CHOL    R479573  12.798  -6.678  14.149
 6277CHOL    R579574  12.658  -6.582  14.282
 6277CHOL    C179575  12.619  -6.354  14.222
 6277CHOL    C279576  12.579  -6.125  14.161
 6278CHOL   ROH79577   0.154  24.938  10.670
 6278CHOL    R179578   0.240  24.803  10.670
 6278CHOL    R279579   0.433  24.783  10.541
 6278CHOL    R379580   0.337  24.651  10.671
 6278CHOL    R479581   0.509  24.665  10.542
 6278CHOL    R579582   0.423  24.516  10.671
 6278CHOL    C179583   0.551  24.313  10.671
 6278CHOL    C279584   0.680  24.111  10.672
 6279CHOL   ROH79585  16.102  -4.567  18.209
 6279CHOL    R179586  16.048  -4.435  18.136
 6279CHOL    R279587  16.193  -4.261  18.081
 6279CHOL    R379588  15.987  -4.288  18.053
 6279CHOL    R479589  16.145  -4.146  18.017
 6279CHOL    R579590  15.934  -4.156  17.980
 6279CHOL    C179591  15.853  -3.959  17.869
 6279CHOL    C279592  15.772  -3.761  17.759
 6280CHOL   ROH79593  -5.731   5.263   2.520
 6280CHOL    R179594  -5.590   5.301   2.585
 6280CHOL    R279595  -5.578   5.400   2.796
 6280CHOL    R379596  -5.431   5.343   2.659
 6280CHOL    R479597  -5.454   5.433   2.853
 6280CHOL    R579598  -5.290   5.380   2.724
 6280CHOL    C179599  -5.078   5.437   2.822
 6280CHOL    C279600  -4.867   5.493   2.920
 6281CHOL   ROH79601   4.420  11.938  -6.974
 6281CHOL    R179602   4.469  11.922  -6.823
 6281CHOL    R279603   4.574  12.098  -6.711
 6281CHOL    R379604   4.525  11.903  -6.652
 6281CHOL    R479605   4.617  12.083  -6.578
 6281CHOL    R579606   4.574  11.887  -6.501
 6281CHOL    C179607   4.648  11.863  -6.274
 6281CHOL    C279608   4.722  11.838  -6.047
 6282CHOL   ROH79609  -4.877  11.271  19.873
 6282CHOL    R179610  -4.746  11.259  19.781
 6282CHOL    R279611  -4.541  11.341  19.854
 6282CHOL    R379612  -4.600  11.246  19.678
 6282CHOL    R479613  -4.426  11.330  19.774
 6282CHOL    R579614  -4.469  11.234  19.586
 6282CHOL    C179615  -4.273  11.216  19.448
 6282CHOL    C279616  -4.077  11.198  19.310
 6283CHOL   ROH79617  -0.536   1.284  -1.596
 6283CHOL    R179618  -0.445   1.362  -1.490
 6283CHOL    R279619  -0.298   1.246  -1.351
 6283CHOL    R379620  -0.342   1.449  -1.371
 6283CHOL    R479621  -0.218   1.314  -1.258
 6283CHOL    R579622  -0.250   1.527  -1.265
 6283CHOL    C179623  -0.113   1.644  -1.107
 6283CHOL    C279624   0.024   1.760  -0.948
 6284CHOL   ROH79625  19.120  22.475   1.277
 6284CHOL    R179626  19.035  22.365   1.357
 6284CHOL    R279627  19.022  22.145   1.280
 6284CHOL    R379628  18.939  22.242   1.446
 6284CHOL    R479629  18.947  22.049   1.350
 6284CHOL    R579630  18.854  22.132   1.526
 6284CHOL    C179631  18.727  21.967   1.646
 6284CHOL    C279632  18.600  21.803   1.765
 6285CHOL   ROH79633  24.064  20.747   9.050
 6285CHOL    R179634  23.934  20.654   9.061
 6285CHOL    R279635  23.950  20.422   9.045
 6285CHOL    R379636  23.788  20.550   9.074
 6285CHOL    R479637  23.837  20.341   9.055
 6285CHOL    R579638  23.658  20.457   9.085
 6285CHOL    C179639  23.463  20.319   9.102
 6285CHOL    C279640  23.268  20.180   9.119
 6286CHOL   ROH79641  14.736  22.250  -2.188
 6286CHOL    R179642  14.692  22.141  -2.080
 6286CHOL    R279643  14.761  21.918  -2.099
 6286CHOL    R379644  14.644  22.017  -1.958
 6286CHOL    R479645  14.723  21.823  -2.005
 6286CHOL    R579646  14.600  21.908  -1.850
 6286CHOL    C179647  14.535  21.744  -1.687
 6286CHOL    C279648  14.469  21.580  -1.525
 6287CHOL   ROH79649  27.105   5.922   7.802
 6287CHOL    R179650  26.949   5.954   7.820
 6287CHOL    R279651  26.828   6.060   7.652
 6287CHOL    R379652  26.774   5.989   7.841
 6287CHOL    R479653  26.692   6.088   7.668
 6287CHOL    R579654  26.618   6.021   7.859
 6287CHOL    C179655  26.385   6.069   7.887
 6287CHOL    C279656  26.151   6.116   7.915
 6288CHOL   ROH79657  24.601  17.911  16.249
 6288CHOL    R179658  24.469  17.838  16.195
 6288CHOL    R279659  24.456  17.763  15.974
 6288CHOL    R379660  24.322  17.756  16.133
 6288CHOL    R479661  24.341  17.699  15.927
 6288CHOL    R579662  24.190  17.683  16.079
 6288CHOL    C179663  23.993  17.574  15.997
 6288CHOL    C279664  23.795  17.464  15.916
 6289CHOL   ROH79665  11.178  -7.300  14.234
 6289CHOL    R179666  11.164  -7.145  14.198
 6289CHOL    R279667  11.287  -7.050  14.024
 6289CHOL    R379668  11.148  -6.970  14.158
 6289CHOL    R479669  11.275  -6.914  13.993
 6289CHOL    R579670  11.134  -6.814  14.123
 6289CHOL    C179671  11.114  -6.581  14.069
 6289CHOL    C279672  11.093  -6.348  14.015
 6290CHOL   ROH79673  24.542   5.388   0.801
 6290CHOL    R179674  24.411   5.428   0.883
 6290CHOL    R279675  24.288   5.618   0.828
 6290CHOL    R379676  24.263   5.473   0.976
 6290CHOL    R479677  24.173   5.653   0.900
 6290CHOL    R579678  24.132   5.513   1.058
 6290CHOL    C179679  23.935   5.573   1.182
 6290CHOL    C279680  23.738   5.633   1.306
 6291CHOL   ROH79681  -1.646  14.198  -3.041
 6291CHOL    R179682  -1.545  14.163  -2.922
 6291CHOL    R279683  -1.622  14.143  -2.702
 6291CHOL    R379684  -1.432  14.124  -2.787
 6291CHOL    R479685  -1.534  14.113  -2.598
 6291CHOL    R579686  -1.332  14.089  -2.668
 6291CHOL    C179687  -1.181  14.037  -2.489
 6291CHOL    C279688  -1.030  13.985  -2.310
 6292CHOL   ROH79689  22.947  -0.701   4.119
 6292CHOL    R179690  22.830  -0.605   4.170
 6292CHOL    R279691  22.858  -0.374   4.176
 6292CHOL    R379692  22.697  -0.497   4.227
 6292CHOL    R479693  22.755  -0.290   4.220
 6292CHOL    R579694  22.580  -0.401   4.277
 6292CHOL    C179695  22.404  -0.257   4.354
 6292CHOL    C279696  22.228  -0.113   4.430
 6293CHOL   ROH79697   4.349  -4.307  19.136
 6293CHOL    R179698   4.400  -4.181  19.052
 6293CHOL    R279699   4.444  -3.977  19.157
 6293CHOL    R379700   4.457  -4.038  18.957
 6293CHOL    R479701   4.488  -3.866  19.083
 6293CHOL    R579702   4.508  -3.912  18.873
 6293CHOL    C179703   4.584  -3.722  18.747
 6293CHOL    C279704   4.660  -3.533  18.621
 6294CHOL   ROH79705  11.797   2.186  -6.007
 6294CHOL    R179706  11.780   2.256  -5.864
 6294CHOL    R279707  11.946   2.398  -5.780
 6294CHOL    R379708  11.762   2.335  -5.704
 6294CHOL    R479709  11.931   2.459  -5.655
 6294CHOL    R579710  11.745   2.406  -5.561
 6294CHOL    C179711  11.720   2.511  -5.347
 6294CHOL    C279712  11.695   2.616  -5.133
 6295CHOL   ROH79713   0.405  18.636  -2.554
 6295CHOL    R179714   0.490  18.561  -2.441
 6295CHOL    R279715   0.720  18.593  -2.423
 6295CHOL    R379716   0.585  18.477  -2.314
 6295CHOL    R479717   0.794  18.527  -2.324
 6295CHOL    R579718   0.670  18.402  -2.200
 6295CHOL    C179719   0.797  18.290  -2.031
 6295CHOL    C279720   0.924  18.177  -1.861
 6296CHOL   ROH79721  -4.088   4.353  19.653
 6296CHOL    R179722  -3.967   4.405  19.562
 6296CHOL    R279723  -3.745   4.358  19.621
 6296CHOL    R379724  -3.830   4.463  19.461
 6296CHOL    R479725  -3.639   4.404  19.541
 6296CHOL    R579726  -3.709   4.515  19.370
 6296CHOL    C179727  -3.526   4.592  19.234
 6296CHOL    C279728  -3.344   4.670  19.098
 6297CHOL   ROH79729  -6.735  16.489   8.568
 6297CHOL    R179730  -6.586  16.431   8.581
 6297CHOL    R279731  -6.401  16.572   8.567
 6297CHOL    R379732  -6.419  16.366   8.596
 6297CHOL    R479733  -6.271  16.522   8.578
 6297CHOL    R579734  -6.270  16.308   8.609
 6297CHOL    C179735  -6.048  16.222   8.628
 6297CHOL    C279736  -5.825  16.135   8.647
 6298CHOL   ROH79737   0.239  22.568  18.231
 6298CHOL    R179738   0.325  22.454  18.158
 6298CHOL    R279739   0.528  22.382  18.248
 6298CHOL    R379740   0.422  22.327  18.076
 6298CHOL    R479741   0.603  22.282  18.184
 6298CHOL    R579742   0.508  22.213  18.003
 6298CHOL    C179743   0.637  22.043  17.894
 6298CHOL    C279744   0.766  21.872  17.785
 6299CHOL   ROH79745  11.458  18.734  25.413
 6299CHOL    R179746  11.439  18.658  25.273
 6299CHOL    R279747  11.622  18.571  25.159
 6299CHOL    R379748  11.418  18.573  25.116
 6299CHOL    R479749  11.606  18.504  25.037
 6299CHOL    R579750  11.399  18.497  24.976
 6299CHOL    C179751  11.371  18.384  24.767
 6299CHOL    C279752  11.342  18.270  24.557
 6300CHOL   ROH79753  10.584  21.204  23.819
 6300CHOL    R179754  10.577  21.103  23.695
 6300CHOL    R279755  10.676  21.157  23.491
 6300CHOL    R379756  10.570  20.989  23.556
 6300CHOL    R479757  10.670  21.069  23.382
 6300CHOL    R579758  10.564  20.889  23.432
 6300CHOL    C179759  10.554  20.737  23.246
 6300CHOL    C279760  10.544  20.586  23.060
 6301CHOL   ROH79761  25.615  17.372   6.159
 6301CHOL    R179762  25.474  17.304   6.191
 6301CHOL    R279763  25.384  17.141   6.050
 6301CHOL    R379764  25.314  17.228   6.226
 6301CHOL    R479765  25.261  17.082   6.078
 6301CHOL    R579766  25.173  17.160   6.258
 6301CHOL    C179767  24.961  17.058   6.306
 6301CHOL    C279768  24.749  16.956   6.353
 6302CHOL   ROH79769  -0.705  20.345  -0.109
 6302CHOL    R179770  -0.610  20.250  -0.022
 6302CHOL    R279771  -0.382  20.235  -0.067
 6302CHOL    R379772  -0.503  20.144   0.076
 6302CHOL    R479773  -0.299  20.152   0.010
 6302CHOL    R579774  -0.408  20.049   0.164
 6302CHOL    C179775  -0.266  19.907   0.294
 6302CHOL    C279776  -0.124  19.765   0.425
 6303CHOL   ROH79777  25.258  14.878  17.556
 6303CHOL    R179778  25.118  14.836  17.490
 6303CHOL    R279779  24.986  14.994  17.380
 6303CHOL    R379780  24.961  14.789  17.416
 6303CHOL    R479781  24.864  14.957  17.323
 6303CHOL    R579782  24.821  14.747  17.351
 6303CHOL    C179783  24.612  14.685  17.252
 6303CHOL    C279784  24.402  14.622  17.153
 6304CHOL   ROH79785  26.828  15.495  10.839
 6304CHOL    R179786  26.676  15.444  10.830
 6304CHOL    R279787  26.614  15.277  10.680
 6304CHOL    R379788  26.506  15.387  10.821
 6304CHOL    R479789  26.482  15.232  10.673
 6304CHOL    R579790  26.354  15.337  10.812
 6304CHOL    C179791  26.127  15.260  10.799
 6304CHOL    C279792  25.900  15.184  10.786
 6305CHOL   ROH79793  22.767  -0.843  15.831
 6305CHOL    R179794  22.650  -0.746  15.782
 6305CHOL    R279795  22.648  -0.520  15.840
 6305CHOL    R379796  22.518  -0.636  15.726
 6305CHOL    R479797  22.546  -0.435  15.797
 6305CHOL    R579798  22.401  -0.539  15.677
 6305CHOL    C179799  22.225  -0.393  15.602
 6305CHOL    C279800  22.050  -0.247  15.528
 6306CHOL   ROH79801  -1.784  14.818  -2.724
 6306CHOL    R179802  -1.682  14.777  -2.608
 6306CHOL    R279803  -1.760  14.686  -2.407
 6306CHOL    R379804  -1.568  14.730  -2.476
 6306CHOL    R479805  -1.671  14.650  -2.305
 6306CHOL    R579806  -1.467  14.689  -2.360
 6306CHOL    C179807  -1.314  14.627  -2.185
 6306CHOL    C279808  -1.162  14.565  -2.011
 6307CHOL   ROH79809  14.395  27.245  10.869
 6307CHOL    R179810  14.354  27.091  10.861
 6307CHOL    R279811  14.379  26.950  11.046
 6307CHOL    R379812  14.308  26.917  10.853
 6307CHOL    R479813  14.343  26.815  11.039
 6307CHOL    R579814  14.266  26.763  10.845
 6307CHOL    C179815  14.205  26.531  10.833
 6307CHOL    C279816  14.143  26.299  10.822
 6308CHOL   ROH79817  -6.192  17.450   7.493
 6308CHOL    R179818  -6.048  17.386   7.518
 6308CHOL    R279819  -5.855  17.516   7.510
 6308CHOL    R379820  -5.885  17.313   7.547
 6308CHOL    R479821  -5.729  17.460   7.532
 6308CHOL    R579822  -5.741  17.249   7.572
 6308CHOL    C179823  -5.525  17.153   7.611
 6308CHOL    C279824  -5.308  17.056   7.649
 6309CHOL   ROH79825  25.002   2.036   4.722
 6309CHOL    R179826  24.866   2.108   4.766
 6309CHOL    R279827  24.865   2.332   4.831
 6309CHOL    R379828  24.713   2.190   4.815
 6309CHOL    R479829  24.746   2.396   4.869
 6309CHOL    R579830  24.578   2.263   4.859
 6309CHOL    C179831  24.374   2.371   4.924
 6309CHOL    C279832  24.170   2.480   4.990
 6310CHOL   ROH79833  10.691  15.894  26.705
 6310CHOL    R179834  10.681  15.839  26.555
 6310CHOL    R279835  10.723  15.615  26.506
 6310CHOL    R379836  10.670  15.778  26.386
 6310CHOL    R479837  10.714  15.568  26.374
 6310CHOL    R579838  10.659  15.724  26.236
 6310CHOL    C179839  10.644  15.642  26.011
 6310CHOL    C279840  10.629  15.560  25.786
 6311CHOL   ROH79841  -1.126   8.740  -4.037
 6311CHOL    R179842  -1.028   8.748  -3.911
 6311CHOL    R279843  -1.070   8.894  -3.734
 6311CHOL    R379844  -0.917   8.756  -3.769
 6311CHOL    R479845  -0.984   8.900  -3.624
 6311CHOL    R579846  -0.818   8.764  -3.644
 6311CHOL    C179847  -0.671   8.775  -3.455
 6311CHOL    C279848  -0.523   8.786  -3.266
 6312CHOL   ROH79849  -5.685  10.761  18.696
 6312CHOL    R179850  -5.548  10.754  18.614
 6312CHOL    R279851  -5.403  10.572  18.637
 6312CHOL    R379852  -5.393  10.747  18.522
 6312CHOL    R479853  -5.283  10.567  18.565
 6312CHOL    R579854  -5.256  10.740  18.441
 6312CHOL    C179855  -5.049  10.730  18.318
 6312CHOL    C279856  -4.843  10.720  18.195
 6313CHOL   ROH79857  16.480  26.494   9.309
 6313CHOL    R179858  16.417  26.347   9.315
 6313CHOL    R279859  16.476  26.185   9.159
 6313CHOL    R379860  16.346  26.182   9.322
 6313CHOL    R479861  16.421  26.056   9.164
 6313CHOL    R579862  16.283  26.035   9.329
 6313CHOL    C179863  16.188  25.815   9.338
 6313CHOL    C279864  16.094  25.594   9.347
 6314CHOL   ROH79865  20.425  23.542   4.875
 6314CHOL    R179866  20.329  23.422   4.921
 6314CHOL    R279867  20.396  23.273   5.087
 6314CHOL    R379868  20.222  23.288   4.973
 6314CHOL    R479869  20.312  23.168   5.128
 6314CHOL    R579870  20.126  23.168   5.019
 6314CHOL    C179871  19.982  22.988   5.088
 6314CHOL    C279872  19.839  22.809   5.157
 6315CHOL   ROH79873  27.281  13.395   7.851
 6315CHOL    R179874  27.125  13.366   7.869
 6315CHOL    R279875  26.998  13.281   7.693
 6315CHOL    R379876  26.949  13.333   7.889
 6315CHOL    R479877  26.861  13.255   7.709
 6315CHOL    R579878  26.793  13.304   7.908
 6315CHOL    C179879  26.559  13.260   7.935
 6315CHOL    C279880  26.325  13.216   7.962
 6316CHOL   ROH79881  -3.392  18.195  18.667
 6316CHOL    R179882  -3.274  18.120  18.590
 6316CHOL    R279883  -3.076  18.230  18.536
 6316CHOL    R379884  -3.141  18.035  18.502
 6316CHOL    R479885  -2.973  18.164  18.469
 6316CHOL    R579886  -3.024  17.959  18.425
 6316CHOL    C179887  -2.847  17.846  18.309
 6316CHOL    C279888  -2.670  17.733  18.193
 6317CHOL   ROH79889   2.059  20.787  -2.042
 6317CHOL    R179890   2.129  20.689  -1.936
 6317CHOL    R279891   2.342  20.603  -1.976
 6317CHOL    R379892   2.208  20.580  -1.818
 6317CHOL    R479893   2.403  20.517  -1.884
 6317CHOL    R579894   2.278  20.482  -1.712
 6317CHOL    C179895   2.383  20.336  -1.554
 6317CHOL    C279896   2.488  20.189  -1.395
 6318CHOL   ROH79897  20.349  -1.967  18.058
 6318CHOL    R179898  20.254  -1.861  17.984
 6318CHOL    R279899  20.338  -1.656  17.910
 6318CHOL    R379900  20.148  -1.742  17.901
 6318CHOL    R479901  20.256  -1.564  17.846
 6318CHOL    R579902  20.054  -1.636  17.827
 6318CHOL    C179903  19.912  -1.477  17.716
 6318CHOL    C279904  19.770  -1.318  17.605
 6319CHOL   ROH79905  17.333  -5.635   5.730
 6319CHOL    R179906  17.267  -5.495   5.769
 6319CHOL    R279907  17.397  -5.318   5.846
 6319CHOL    R379908  17.192  -5.337   5.813
 6319CHOL    R479909  17.339  -5.195   5.880
 6319CHOL    R579910  17.126  -5.197   5.852
 6319CHOL    C179911  17.026  -4.987   5.911
 6319CHOL    C279912  16.926  -4.777   5.969
 6320CHOL   ROH79913  -1.070   7.905  23.900
 6320CHOL    R179914  -0.971   7.927  23.776
 6320CHOL    R279915  -0.752   8.001  23.809
 6320CHOL    R379916  -0.859   7.951  23.637
 6320CHOL    R479917  -0.665   8.020  23.701
 6320CHOL    R579918  -0.760   7.973  23.513
 6320CHOL    C179919  -0.611   8.006  23.328
 6320CHOL    C279920  -0.462   8.038  23.142
 6321CHOL   ROH79921  23.867   0.270  15.250
 6321CHOL    R179922  23.743   0.360  15.206
 6321CHOL    R279923  23.724   0.440  14.987
 6321CHOL    R379924  23.602   0.462  15.156
 6321CHOL    R479925  23.615   0.519  14.948
 6321CHOL    R579926  23.478   0.553  15.112
 6321CHOL    C179927  23.291   0.688  15.045
 6321CHOL    C279928  23.105   0.824  14.979
 6322CHOL   ROH79929   3.228   7.678  26.402
 6322CHOL    R179930   3.285   7.699  26.254
 6322CHOL    R279931   3.506   7.647  26.202
 6322CHOL    R379932   3.349   7.723  26.087
 6322CHOL    R479933   3.556   7.666  26.072
 6322CHOL    R579934   3.405   7.744  25.939
 6322CHOL    C179935   3.491   7.776  25.717
 6322CHOL    C279936   3.576   7.807  25.495
 6323CHOL   ROH79937  -8.020   9.406   9.389
 6323CHOL    R179938  -7.860   9.411   9.393
 6323CHOL    R279939  -7.748   9.598   9.474
 6323CHOL    R379940  -7.680   9.416   9.398
 6323CHOL    R479941  -7.608   9.602   9.478
 6323CHOL    R579942  -7.521   9.420   9.402
 6323CHOL    C179943  -7.281   9.427   9.408
 6323CHOL    C279944  -7.041   9.434   9.414
 6324CHOL   ROH79945   8.278  19.718  -4.978
 6324CHOL    R179946   8.290  19.628  -4.846
 6324CHOL    R279947   8.494  19.534  -4.784
 6324CHOL    R379948   8.304  19.527  -4.698
 6324CHOL    R479949   8.504  19.455  -4.668
 6324CHOL    R579950   8.316  19.438  -4.566
 6324CHOL    C179951   8.334  19.303  -4.368
 6324CHOL    C279952   8.352  19.168  -4.170
 6325CHOL   ROH79953  12.406  26.162  17.068
 6325CHOL    R179954  12.382  26.017  17.004
 6325CHOL    R279955  12.557  25.900  16.903
 6325CHOL    R379956  12.355  25.855  16.932
 6325CHOL    R479957  12.535  25.774  16.847
 6325CHOL    R579958  12.331  25.710  16.868
 6325CHOL    C179959  12.294  25.493  16.771
 6325CHOL    C279960  12.258  25.276  16.675
 6326CHOL   ROH79961  -4.703   2.712  17.333
 6326CHOL    R179962  -4.573   2.780  17.269
 6326CHOL    R279963  -4.389   2.651  17.207
 6326CHOL    R379964  -4.426   2.856  17.198
 6326CHOL    R479965  -4.275   2.710  17.152
 6326CHOL    R579966  -4.296   2.924  17.135
 6326CHOL    C179967  -4.101   3.026  17.039
 6326CHOL    C279968  -3.905   3.128  16.944
 6327CHOL   ROH79969   8.324  27.742  11.023
 6327CHOL    R179970   8.334  27.582  11.015
 6327CHOL    R279971   8.525  27.478  10.932
 6327CHOL    R379972   8.345  27.403  11.005
 6327CHOL    R479973   8.534  27.338  10.925
 6327CHOL    R579974   8.355  27.244  10.996
 6327CHOL    C179975   8.369  27.004  10.984
 6327CHOL    C279976   8.384  26.765  10.971
 6328CHOL   ROH79977  11.587  -1.787  23.157
 6328CHOL    R179978  11.566  -1.679  23.041
 6328CHOL    R279979  11.678  -1.697  22.838
 6328CHOL    R379980  11.542  -1.557  22.911
 6328CHOL    R479981  11.660  -1.602  22.736
 6328CHOL    R579982  11.521  -1.448  22.795
 6328CHOL    C179983  11.489  -1.286  22.621
 6328CHOL    C279984  11.457  -1.124  22.447
 6329CHOL   ROH79985  14.457  26.786   6.186
 6329CHOL    R179986  14.416  26.636   6.223
 6329CHOL    R279987  14.541  26.455   6.146
 6329CHOL    R379988  14.370  26.467   6.265
 6329CHOL    R479989  14.505  26.323   6.179
 6329CHOL    R579990  14.329  26.317   6.302
 6329CHOL    C179991  14.268  26.091   6.358
 6329CHOL    C279992  14.206  25.866   6.413
 6330CHOL   ROH79993   2.039  26.026  10.062
 6330CHOL    R179994   2.113  25.884  10.063
 6330CHOL    R279995   2.272  25.831   9.901
 6330CHOL    R379996   2.197  25.725  10.065
 6330CHOL    R479997   2.337  25.707   9.902
 6330CHOL    R579998   2.271  25.583  10.066
 6330CHOL    C179999   2.383  25.371  10.068
 6330CHOL    C280000   2.495  25.159  10.070
 6331CHOL   ROH80001  -5.569  17.881   5.739
 6331CHOL    R180002  -5.429  17.815   5.781
 6331CHOL    R280003  -5.255  17.947   5.862
 6331CHOL    R380004  -5.272  17.742   5.828
 6331CHOL    R480005  -5.132  17.889   5.899
 6331CHOL    R580006  -5.132  17.676   5.870
 6331CHOL    C180007  -4.922  17.578   5.932
 6331CHOL    C280008  -4.712  17.479   5.995
 6332CHOL   ROH80009  17.762  25.761  12.433
 6332CHOL    R180010  17.694  25.617  12.419
 6332CHOL    R280011  17.759  25.439  12.556
 6332CHOL    R380012  17.617  25.455  12.403
 6332CHOL    R480013  17.699  25.313  12.543
 6332CHOL    R580014  17.549  25.310  12.389
 6332CHOL    C180015  17.447  25.094  12.368
 6332CHOL    C280016  17.345  24.878  12.347
 6333CHOL   ROH80017  -2.589  18.791   0.612
 6333CHOL    R180018  -2.476  18.713   0.694
 6333CHOL    R280019  -2.433  18.763   0.918
 6333CHOL    R380020  -2.349  18.624   0.786
 6333CHOL    R480021  -2.335  18.695   0.989
 6333CHOL    R580022  -2.237  18.546   0.869
 6333CHOL    C180023  -2.067  18.428   0.992
 6333CHOL    C280024  -1.898  18.311   1.115
 6334CHOL   ROH80025  -0.694  20.120  -0.356
 6334CHOL    R180026  -0.599  20.028  -0.266
 6334CHOL    R280027  -0.367  20.049  -0.275
 6334CHOL    R380028  -0.492  19.924  -0.165
 6334CHOL    R480029  -0.284  19.968  -0.197
 6334CHOL    R580030  -0.397  19.832  -0.075
 6334CHOL    C180031  -0.255  19.694   0.061
 6334CHOL    C280032  -0.113  19.556   0.196
 6335CHOL   ROH80033  12.542   4.813  -6.937
 6335CHOL    R180034  12.522   4.860  -6.785
 6335CHOL    R280035  12.540   5.085  -6.727
 6335CHOL    R380036  12.498   4.914  -6.615
 6335CHOL    R480037  12.522   5.127  -6.594
 6335CHOL    R580038  12.478   4.961  -6.464
 6335CHOL    C180039  12.447   5.032  -6.236
 6335CHOL    C280040  12.417   5.103  -6.009
 6336CHOL   ROH80041  21.781  23.317   9.998
 6336CHOL    R180042  21.677  23.196   9.997
 6336CHOL    R280043  21.678  23.038   9.825
 6336CHOL    R380044  21.559  23.059   9.995
 6336CHOL    R480045  21.587  22.932   9.824
 6336CHOL    R580046  21.455  22.938   9.994
 6336CHOL    C180047  21.299  22.756   9.992
 6336CHOL    C280048  21.142  22.574   9.990
 6337CHOL   ROH80049  21.220   8.260  -3.740
 6337CHOL    R180050  21.118   8.275  -3.617
 6337CHOL    R280051  20.998   8.472  -3.586
 6337CHOL    R380052  21.004   8.293  -3.480
 6337CHOL    R480053  20.909   8.486  -3.478
 6337CHOL    R580054  20.902   8.308  -3.357
 6337CHOL    C180055  20.750   8.331  -3.173
 6337CHOL    C280056  20.598   8.354  -2.989
 6338CHOL   ROH80057  12.319   8.010  27.508
 6338CHOL    R180058  12.292   8.028  27.351
 6338CHOL    R280059  12.296   7.845  27.207
 6338CHOL    R380060  12.262   8.049  27.175
 6338CHOL    R480061  12.272   7.861  27.070
 6338CHOL    R580062  12.235   8.067  27.018
 6338CHOL    C180063  12.195   8.094  26.784
 6338CHOL    C280064  12.154   8.122  26.549
 6339CHOL   ROH80065  13.731  -2.667  -2.029
 6339CHOL    R180066  13.694  -2.554  -1.922
 6339CHOL    R280067  13.809  -2.351  -1.917
 6339CHOL    R380068  13.652  -2.426  -1.802
 6339CHOL    R480069  13.777  -2.252  -1.824
 6339CHOL    R580070  13.615  -2.313  -1.695
 6339CHOL    C180071  13.559  -2.143  -1.535
 6339CHOL    C280072  13.504  -1.973  -1.375
 6340CHOL   ROH80073  -2.565  -1.356   3.894
 6340CHOL    R180074  -2.452  -1.255   3.945
 6340CHOL    R280075  -2.240  -1.333   4.005
 6340CHOL    R380076  -2.324  -1.141   4.002
 6340CHOL    R480077  -2.141  -1.244   4.049
 6340CHOL    R580078  -2.211  -1.040   4.052
 6340CHOL    C180079  -2.041  -0.889   4.129
 6340CHOL    C280080  -1.871  -0.738   4.205
 6341CHOL   ROH80081  -5.293   2.301   4.459
 6341CHOL    R180082  -5.156   2.371   4.503
 6341CHOL    R280083  -5.051   2.314   4.704
 6341CHOL    R380084  -5.001   2.449   4.552
 6341CHOL    R480085  -4.931   2.375   4.742
 6341CHOL    R580086  -4.864   2.519   4.596
 6341CHOL    C180087  -4.658   2.623   4.662
 6341CHOL    C280088  -4.452   2.727   4.728
 6342CHOL   ROH80089   5.919  26.365   3.878
 6342CHOL    R180090   5.952  26.218   3.933
 6342CHOL    R280091   6.149  26.110   3.874
 6342CHOL    R380092   5.988  26.054   3.995
 6342CHOL    R480093   6.178  25.981   3.922
 6342CHOL    R580094   6.021  25.907   4.050
 6342CHOL    C180095   6.070  25.687   4.133
 6342CHOL    C280096   6.119  25.467   4.215
 6343CHOL   ROH80097  -5.269  17.939   4.898
 6343CHOL    R180098  -5.132  17.873   4.946
 6343CHOL    R280099  -4.971  17.998   5.060
 6343CHOL    R380100  -4.977  17.798   5.000
 6343CHOL    R480101  -4.851  17.940   5.102
 6343CHOL    R580102  -4.840  17.732   5.048
 6343CHOL    C180103  -4.633  17.633   5.120
 6343CHOL    C280104  -4.427  17.533   5.192
 6344CHOL   ROH80105  16.468  -3.169  20.048
 6344CHOL    R180106  16.410  -3.053  19.954
 6344CHOL    R280107  16.433  -3.063  19.722
 6344CHOL    R380108  16.346  -2.922  19.849
 6344CHOL    R480109  16.382  -2.961  19.640
 6344CHOL    R580110  16.288  -2.806  19.755
 6344CHOL    C180111  16.202  -2.631  19.615
 6344CHOL    C280112  16.115  -2.457  19.475
 6345CHOL   ROH80113  -2.477   0.439  18.641
 6345CHOL    R180114  -2.367   0.524  18.562
 6345CHOL    R280115  -2.157   0.434  18.515
 6345CHOL    R380116  -2.243   0.620  18.473
 6345CHOL    R480117  -2.060   0.509  18.446
 6345CHOL    R580118  -2.133   0.705  18.395
 6345CHOL    C180119  -1.967   0.833  18.276
 6345CHOL    C280120  -1.802   0.960  18.158
 6346CHOL   ROH80121  -1.338  -2.359  16.440
 6346CHOL    R180122  -1.238  -2.250  16.380
 6346CHOL    R280123  -1.027  -2.311  16.301
 6346CHOL    R380124  -1.124  -2.127  16.313
 6346CHOL    R480125  -0.939  -2.215  16.249
 6346CHOL    R580126  -1.024  -2.018  16.253
 6346CHOL    C180127  -0.873  -1.854  16.164
 6346CHOL    C280128  -0.723  -1.690  16.074
 6347CHOL   ROH80129   9.695   8.578  27.741
 6347CHOL    R180130   9.700   8.592  27.582
 6347CHOL    R280131   9.888   8.522  27.461
 6347CHOL    R380132   9.706   8.607  27.402
 6347CHOL    R480133   9.892   8.535  27.322
 6347CHOL    R580134   9.712   8.621  27.243
 6347CHOL    C180135   9.719   8.642  27.004
 6347CHOL    C280136   9.727   8.662  26.765
 6348CHOL   ROH80137  -3.368  -1.409   6.276
 6348CHOL    R180138  -3.248  -1.309   6.310
 6348CHOL    R280139  -3.159  -1.296   6.525
 6348CHOL    R380140  -3.113  -1.195   6.348
 6348CHOL    R480141  -3.054  -1.208   6.555
 6348CHOL    R580142  -2.994  -1.095   6.382
 6348CHOL    C180143  -2.814  -0.944   6.432
 6348CHOL    C280144  -2.634  -0.794   6.483
 6349CHOL   ROH80145  11.828  -2.900  21.993
 6349CHOL    R180146  11.806  -2.784  21.885
 6349CHOL    R280147  11.927  -2.783  21.685
 6349CHOL    R380148  11.782  -2.654  21.762
 6349CHOL    R480149  11.908  -2.682  21.590
 6349CHOL    R580150  11.760  -2.539  21.654
 6349CHOL    C180151  11.728  -2.365  21.491
 6349CHOL    C280152  11.696  -2.191  21.329
 6350CHOL   ROH80153  -5.318   3.554  16.874
 6350CHOL    R180154  -5.182   3.615  16.816
 6350CHOL    R280155  -5.015   3.476  16.730
 6350CHOL    R380156  -5.028   3.684  16.752
 6350CHOL    R480157  -4.896   3.530  16.679
 6350CHOL    R580158  -4.892   3.744  16.694
 6350CHOL    C180159  -4.688   3.836  16.608
 6350CHOL    C280160  -4.483   3.927  16.521
 6351CHOL   ROH80161   3.777  -3.353  -0.255
 6351CHOL    R180162   3.833  -3.237  -0.160
 6351CHOL    R280163   3.813  -3.251   0.071
 6351CHOL    R380164   3.897  -3.106  -0.054
 6351CHOL    R480165   3.863  -3.149   0.154
 6351CHOL    R580166   3.954  -2.990   0.040
 6351CHOL    C180167   4.038  -2.816   0.182
 6351CHOL    C280168   4.123  -2.642   0.324
 6352CHOL   ROH80169  17.230  26.138   8.984
 6352CHOL    R180170  17.162  25.994   8.992
 6352CHOL    R280171  17.258  25.809   8.887
 6352CHOL    R380172  17.084  25.831   9.001
 6352CHOL    R480173  17.198  25.683   8.894
 6352CHOL    R580174  17.016  25.687   9.009
 6352CHOL    C180175  16.913  25.471   9.021
 6352CHOL    C280176  16.811  25.254   9.033
 6353CHOL   ROH80177   9.563  -7.230  14.812
 6353CHOL    R180178   9.565  -7.076  14.770
 6353CHOL    R280179   9.756  -6.945  14.799
 6353CHOL    R380180   9.566  -6.902  14.723
 6353CHOL    R480181   9.757  -6.810  14.762
 6353CHOL    R580182   9.568  -6.747  14.680
 6353CHOL    C180183   9.570  -6.516  14.617
 6353CHOL    C280184   9.573  -6.284  14.554
 6354CHOL   ROH80185  13.755  21.316  -3.347
 6354CHOL    R180186  13.724  21.217  -3.225
 6354CHOL    R280187  13.687  20.990  -3.262
 6354CHOL    R380188  13.690  21.105  -3.089
 6354CHOL    R480189  13.660  20.903  -3.156
 6354CHOL    R580190  13.659  21.006  -2.967
 6354CHOL    C180191  13.613  20.857  -2.785
 6354CHOL    C280192  13.567  20.708  -2.602
 6355CHOL   ROH80193   8.818   7.369  -7.667
 6355CHOL    R180194   8.828   7.393  -7.509
 6355CHOL    R280195   9.034   7.420  -7.404
 6355CHOL    R380196   8.838   7.421  -7.332
 6355CHOL    R480197   9.043   7.441  -7.266
 6355CHOL    R580198   8.848   7.446  -7.174
 6355CHOL    C180199   8.862   7.482  -6.937
 6355CHOL    C280200   8.877   7.519  -6.701
 6356CHOL   ROH80201  15.782   2.538  -5.233
 6356CHOL    R180202  15.729   2.601  -5.096
 6356CHOL    R280203  15.580   2.780  -5.095
 6356CHOL    R380204  15.669   2.671  -4.941
 6356CHOL    R480205  15.534   2.835  -4.975
 6356CHOL    R580206  15.617   2.734  -4.803
 6356CHOL    C180207  15.537   2.828  -4.597
 6356CHOL    C280208  15.458   2.922  -4.391
 6357CHOL   ROH80209  -1.400  18.120  -1.339
 6357CHOL    R180210  -1.299  18.048  -1.238
 6357CHOL    R280211  -1.121  18.165  -1.143
 6357CHOL    R380212  -1.185  17.967  -1.124
 6357CHOL    R480213  -1.032  18.102  -1.055
 6357CHOL    R580214  -1.084  17.895  -1.024
 6357CHOL    C180215  -0.932  17.787  -0.872
 6357CHOL    C280216  -0.781  17.679  -0.721
 6358CHOL   ROH80217  -0.147  24.199  14.056
 6358CHOL    R180218  -0.062  24.070  14.013
 6358CHOL    R280219   0.158  24.091  13.937
 6358CHOL    R380220   0.034  23.926  13.965
 6358CHOL    R480221   0.232  23.979  13.900
 6358CHOL    R580222   0.119  23.797  13.923
 6358CHOL    C180223   0.247  23.604  13.858
 6358CHOL    C280224   0.374  23.411  13.794
 6359CHOL   ROH80225  13.956  25.082   1.370
 6359CHOL    R180226  13.920  24.944   1.443
 6359CHOL    R280227  14.057  24.757   1.420
 6359CHOL    R380228  13.880  24.790   1.526
 6359CHOL    R480229  14.025  24.636   1.484
 6359CHOL    R580230  13.844  24.652   1.599
 6359CHOL    C180231  13.790  24.446   1.709
 6359CHOL    C280232  13.736  24.239   1.819
 6360CHOL   ROH80233   6.915  27.542  11.695
 6360CHOL    R180234   6.939  27.385  11.680
 6360CHOL    R280235   7.045  27.263  11.848
 6360CHOL    R380236   6.966  27.207  11.663
 6360CHOL    R480237   7.066  27.125  11.835
 6360CHOL    R580238   6.989  27.050  11.648
 6360CHOL    C180239   7.025  26.814  11.625
 6360CHOL    C280240   7.061  26.578  11.603
 6361CHOL   ROH80241   9.397  18.942  25.422
 6361CHOL    R180242   9.401  18.861  25.284
 6361CHOL    R280243   9.548  18.922  25.114
 6361CHOL    R380244   9.405  18.771  25.129
 6361CHOL    R480245   9.552  18.851  24.993
 6361CHOL    R580246   9.409  18.690  24.990
 6361CHOL    C180247   9.415  18.569  24.783
 6361CHOL    C280248   9.421  18.448  24.576
 6362CHOL   ROH80249  17.023  15.176  -5.614
 6362CHOL    R180250  16.959  15.128  -5.475
 6362CHOL    R280251  16.934  14.901  -5.428
 6362CHOL    R380252  16.888  15.073  -5.320
 6362CHOL    R480253  16.878  14.859  -5.306
 6362CHOL    R580254  16.824  15.025  -5.181
 6362CHOL    C180255  16.728  14.953  -4.973
 6362CHOL    C280256  16.633  14.880  -4.765
 6363CHOL   ROH80257  17.102   0.385  -3.324
 6363CHOL    R180258  17.036   0.473  -3.208
 6363CHOL    R280259  16.918   0.668  -3.256
 6363CHOL    R380260  16.963   0.572  -3.076
 6363CHOL    R480261  16.861   0.745  -3.154
 6363CHOL    R580262  16.897   0.660  -2.960
 6363CHOL    C180263  16.799   0.791  -2.785
 6363CHOL    C280264  16.700   0.923  -2.611
 6364CHOL   ROH80265  20.582  21.856  17.674
 6364CHOL    R180266  20.485  21.747  17.608
 6364CHOL    R280267  20.552  21.524  17.589
 6364CHOL    R380268  20.377  21.624  17.534
 6364CHOL    R480269  20.467  21.429  17.531
 6364CHOL    R580270  20.280  21.515  17.468
 6364CHOL    C180271  20.135  21.351  17.370
 6364CHOL    C280272  19.990  21.188  17.271
 6365CHOL   ROH80273  27.408   8.328  12.633
 6365CHOL    R180274  27.250   8.340  12.613
 6365CHOL    R280275  27.140   8.220  12.446
 6365CHOL    R380276  27.071   8.353  12.592
 6365CHOL    R480277  27.001   8.230  12.429
 6365CHOL    R580278  26.913   8.365  12.572
 6365CHOL    C180279  26.675   8.383  12.543
 6365CHOL    C280280  26.438   8.401  12.513
 6366CHOL   ROH80281   2.774  23.027  19.874
 6366CHOL    R180282   2.835  22.910  19.784
 6366CHOL    R280283   3.052  22.925  19.698
 6366CHOL    R380284   2.904  22.778  19.682
 6366CHOL    R480285   3.105  22.822  19.619
 6366CHOL    R580286   2.965  22.660  19.592
 6366CHOL    C180287   3.057  22.485  19.457
 6366CHOL    C280288   3.148  22.309  19.321
 6367CHOL   ROH80289   7.298  -6.703   4.149
 6367CHOL    R180290   7.321  -6.554   4.202
 6367CHOL    R280291   7.471  -6.411   4.096
 6367CHOL    R380292   7.347  -6.386   4.262
 6367CHOL    R480293   7.492  -6.280   4.142
 6367CHOL    R580294   7.370  -6.237   4.315
 6367CHOL    C180295   7.405  -6.013   4.395
 6367CHOL    C280296   7.440  -5.790   4.474
 6368CHOL   ROH80297  -5.463  18.594   6.641
 6368CHOL    R180298  -5.324  18.522   6.675
 6368CHOL    R280299  -5.314  18.353   6.836
 6368CHOL    R380300  -5.169  18.440   6.713
 6368CHOL    R480301  -5.192  18.289   6.865
 6368CHOL    R580302  -5.030  18.368   6.748
 6368CHOL    C180303  -4.822  18.259   6.799
 6368CHOL    C280304  -4.614  18.150   6.850
 6369CHOL   ROH80305  16.007  -3.065  -0.566
 6369CHOL    R180306  15.955  -2.948  -0.470
 6369CHOL    R280307  16.057  -2.738  -0.470
 6369CHOL    R380308  15.896  -2.816  -0.363
 6369CHOL    R480309  16.012  -2.636  -0.387
 6369CHOL    R580310  15.843  -2.699  -0.267
 6369CHOL    C180311  15.765  -2.523  -0.124
 6369CHOL    C280312  15.687  -2.348   0.019
 6370CHOL   ROH80313  27.027   6.077  12.883
 6370CHOL    R180314  26.873   6.112  12.858
 6370CHOL    R280315  26.770   6.062  12.655
 6370CHOL    R380316  26.700   6.152  12.830
 6370CHOL    R480317  26.635   6.093  12.633
 6370CHOL    R580318  26.546   6.188  12.804
 6370CHOL    C180319  26.314   6.241  12.767
 6370CHOL    C280320  26.083   6.294  12.729
 6371CHOL   ROH80321  10.622  -7.687  12.195
 6371CHOL    R180322  10.616  -7.528  12.176
 6371CHOL    R280323  10.747  -7.421  12.016
 6371CHOL    R380324  10.609  -7.350  12.155
 6371CHOL    R480325  10.742  -7.283  11.999
 6371CHOL    R580326  10.603  -7.191  12.136
 6371CHOL    C180327  10.594  -6.953  12.108
 6371CHOL    C280328  10.585  -6.715  12.079
 6372CHOL   ROH80329  -2.978   9.781  -2.389
 6372CHOL    R180330  -2.862   9.783  -2.278
 6372CHOL    R280331  -2.846   9.958  -2.125
 6372CHOL    R380332  -2.732   9.785  -2.154
 6372CHOL    R480333  -2.744   9.960  -2.028
 6372CHOL    R580334  -2.617   9.787  -2.043
 6372CHOL    C180335  -2.443   9.790  -1.878
 6372CHOL    C280336  -2.269   9.793  -1.712
 6373CHOL   ROH80337  -0.119  -0.291  -0.653
 6373CHOL    R180338  -0.033  -0.198  -0.555
 6373CHOL    R280339  -0.064  -0.207  -0.324
 6373CHOL    R380340   0.063  -0.094  -0.444
 6373CHOL    R480341   0.010  -0.126  -0.238
 6373CHOL    R580342   0.148  -0.001  -0.346
 6373CHOL    C180343   0.277   0.138  -0.199
 6373CHOL    C280344   0.405   0.277  -0.051
 6374CHOL   ROH80345   9.624  16.434  26.554
 6374CHOL    R180346   9.622  16.380  26.403
 6374CHOL    R280347   9.665  16.156  26.356
 6374CHOL    R380348   9.619  16.319  26.234
 6374CHOL    R480349   9.663  16.109  26.224
 6374CHOL    R580350   9.617  16.265  26.084
 6374CHOL    C180351   9.614  16.185  25.858
 6374CHOL    C280352   9.610  16.104  25.632
 6375CHOL   ROH80353  16.304   0.254  -3.637
 6375CHOL    R180354  16.247   0.345  -3.518
 6375CHOL    R280355  16.151   0.553  -3.562
 6375CHOL    R380356  16.183   0.447  -3.384
 6375CHOL    R480357  16.101   0.632  -3.458
 6375CHOL    R580358  16.126   0.538  -3.265
 6375CHOL    C180359  16.041   0.674  -3.087
 6375CHOL    C280360  15.956   0.811  -2.909
 6376CHOL   ROH80361   6.022  11.781  -7.421
 6376CHOL    R180362   6.055  11.767  -7.265
 6376CHOL    R280363   6.143  11.946  -7.144
 6376CHOL    R380364   6.093  11.751  -7.090
 6376CHOL    R480365   6.172  11.934  -7.008
 6376CHOL    R580366   6.126  11.736  -6.934
 6376CHOL    C180367   6.177  11.715  -6.700
 6376CHOL    C280368   6.227  11.694  -6.466
 6377CHOL   ROH80369  -7.164  14.708  12.650
 6377CHOL    R180370  -7.012  14.664  12.626
 6377CHOL    R280371  -6.837  14.816  12.652
 6377CHOL    R380372  -6.841  14.613  12.599
 6377CHOL    R480373  -6.704  14.777  12.631
 6377CHOL    R580374  -6.689  14.569  12.575
 6377CHOL    C180375  -6.462  14.502  12.540
 6377CHOL    C280376  -6.234  14.436  12.504
 6378CHOL   ROH80377   1.875  24.811   4.172
 6378CHOL    R180378   1.951  24.680   4.224
 6378CHOL    R280379   2.184  24.672   4.232
 6378CHOL    R380380   2.037  24.533   4.281
 6378CHOL    R480381   2.251  24.557   4.277
 6378CHOL    R580382   2.113  24.402   4.333
 6378CHOL    C180383   2.227  24.205   4.410
 6378CHOL    C280384   2.341  24.008   4.488
 6379CHOL   ROH80385  10.719  19.542  25.023
 6379CHOL    R180386  10.708  19.457  24.888
 6379CHOL    R280387  10.839  19.508  24.702
 6379CHOL    R380388  10.696  19.360  24.736
 6379CHOL    R480389  10.829  19.434  24.584
 6379CHOL    R580390  10.684  19.275  24.601
 6379CHOL    C180391  10.668  19.147  24.399
 6379CHOL    C280392  10.651  19.019  24.197
 6380CHOL   ROH80393  15.768   4.169  -5.864
 6380CHOL    R180394  15.714   4.216  -5.721
 6380CHOL    R280395  15.566   4.395  -5.702
 6380CHOL    R380396  15.652   4.269  -5.560
 6380CHOL    R480397  15.518   4.437  -5.577
 6380CHOL    R580398  15.598   4.316  -5.418
 6380CHOL    C180399  15.516   4.387  -5.203
 6380CHOL    C280400  15.435   4.458  -4.989
 6381CHOL   ROH80401  25.497   9.715  18.548
 6381CHOL    R180402  25.358   9.721  18.469
 6381CHOL    R280403  25.345   9.654  18.246
 6381CHOL    R380404  25.202   9.727  18.380
 6381CHOL    R480405  25.223   9.659  18.176
 6381CHOL    R580406  25.063   9.733  18.300
 6381CHOL    C180407  24.855   9.742  18.182
 6381CHOL    C280408  24.646   9.750  18.063
 6382CHOL   ROH80409  -3.994  20.549  13.755
 6382CHOL    R180410  -3.869  20.455  13.721
 6382CHOL    R280411  -3.669  20.473  13.838
 6382CHOL    R380412  -3.729  20.349  13.682
 6382CHOL    R480413  -3.560  20.391  13.808
 6382CHOL    R580414  -3.605  20.255  13.647
 6382CHOL    C180415  -3.418  20.113  13.596
 6382CHOL    C280416  -3.231  19.972  13.544
 6383CHOL   ROH80417  -3.514   4.104  -0.401
 6383CHOL    R180418  -3.396   4.156  -0.305
 6383CHOL    R280419  -3.408   4.126  -0.074
 6383CHOL    R380420  -3.264   4.213  -0.198
 6383CHOL    R480421  -3.305   4.171   0.009
 6383CHOL    R580422  -3.146   4.265  -0.102
 6383CHOL    C180423  -2.970   4.342   0.041
 6383CHOL    C280424  -2.794   4.420   0.184
 6384CHOL   ROH80425  -7.943   9.419  11.438
 6384CHOL    R180426  -7.784   9.426  11.422
 6384CHOL    R280427  -7.661   9.600  11.516
 6384CHOL    R380428  -7.605   9.433  11.404
 6384CHOL    R480429  -7.522   9.606  11.502
 6384CHOL    R580430  -7.446   9.439  11.388
 6384CHOL    C180431  -7.207   9.449  11.365
 6384CHOL    C280432  -6.969   9.459  11.341
 6385CHOL   ROH80433  17.360   0.537  -3.289
 6385CHOL    R180434  17.292   0.623  -3.173
 6385CHOL    R280435  17.168   0.815  -3.222
 6385CHOL    R380436  17.214   0.720  -3.042
 6385CHOL    R480437  17.108   0.890  -3.121
 6385CHOL    R580438  17.146   0.806  -2.926
 6385CHOL    C180439  17.043   0.935  -2.752
 6385CHOL    C280440  16.941   1.064  -2.578
 6386CHOL   ROH80441  22.526  21.725  14.163
 6386CHOL    R180442  22.414  21.618  14.123
 6386CHOL    R280443  22.416  21.403  14.214
 6386CHOL    R380444  22.289  21.497  14.077
 6386CHOL    R480445  22.318  21.309  14.179
 6386CHOL    R580446  22.177  21.389  14.037
 6386CHOL    C180447  22.010  21.228  13.977
 6386CHOL    C280448  21.843  21.067  13.916
 6387CHOL   ROH80449   0.512  24.455   5.566
 6387CHOL    R180450   0.597  24.325   5.604
 6387CHOL    R280451   0.829  24.337   5.631
 6387CHOL    R380452   0.693  24.179   5.647
 6387CHOL    R480453   0.903  24.223   5.665
 6387CHOL    R580454   0.778  24.049   5.685
 6387CHOL    C180455   0.906  23.854   5.743
 6387CHOL    C280456   1.034  23.659   5.800
 6388CHOL   ROH80457  -0.392  19.384  21.103
 6388CHOL    R180458  -0.300  19.303  21.000
 6388CHOL    R280459  -0.069  19.332  20.997
 6388CHOL    R380460  -0.197  19.211  20.885
 6388CHOL    R480461   0.011  19.261  20.907
 6388CHOL    R580462  -0.105  19.130  20.782
 6388CHOL    C180463   0.033  19.007  20.629
 6388CHOL    C280464   0.171  18.885  20.475
 6389CHOL   ROH80465  24.402  19.313  14.402
 6389CHOL    R180466  24.272  19.228  14.362
 6389CHOL    R280467  24.172  19.254  14.153
 6389CHOL    R380468  24.126  19.133  14.317
 6389CHOL    R480469  24.058  19.180  14.118
 6389CHOL    R580470  23.997  19.049  14.278
 6389CHOL    C180471  23.802  18.922  14.218
 6389CHOL    C280472  23.607  18.795  14.158
 6390CHOL   ROH80473  19.302  17.391  -3.266
 6390CHOL    R180474  19.219  17.325  -3.146
 6390CHOL    R280475  19.000  17.252  -3.179
 6390CHOL    R380476  19.125  17.251  -3.012
 6390CHOL    R480477  18.927  17.194  -3.074
 6390CHOL    R580478  19.041  17.185  -2.892
 6390CHOL    C180479  18.916  17.087  -2.712
 6390CHOL    C280480  18.791  16.988  -2.533
 6391CHOL   ROH80481   5.213  24.946  18.545
 6391CHOL    R180482   5.254  24.811  18.469
 6391CHOL    R280483   5.477  24.767  18.415
 6391CHOL    R380484   5.300  24.659  18.385
 6391CHOL    R480485   5.513  24.649  18.349
 6391CHOL    R580486   5.342  24.524  18.309
 6391CHOL    C180487   5.403  24.322  18.196
 6391CHOL    C280488   5.465  24.120  18.082
 6392CHOL   ROH80489  16.304  25.937   5.298
 6392CHOL    R180490  16.248  25.793   5.340
 6392CHOL    R280491  16.349  25.598   5.263
 6392CHOL    R380492  16.186  25.631   5.388
 6392CHOL    R480493  16.301  25.472   5.300
 6392CHOL    R580494  16.130  25.488   5.430
 6392CHOL    C180495  16.046  25.272   5.494
 6392CHOL    C280496  15.963  25.056   5.558
 6393CHOL   ROH80497  -4.572   7.281  20.116
 6393CHOL    R180498  -4.444   7.302  20.023
 6393CHOL    R280499  -4.271   7.446  20.088
 6393CHOL    R380500  -4.299   7.327  19.919
 6393CHOL    R480501  -4.159   7.464  20.007
 6393CHOL    R580502  -4.171   7.348  19.826
 6393CHOL    C180503  -3.978   7.380  19.687
 6393CHOL    C280504  -3.785   7.412  19.548
 6394CHOL   ROH80505  -5.822  10.442  18.476
 6394CHOL    R180506  -5.682  10.440  18.398
 6394CHOL    R280507  -5.533  10.262  18.424
 6394CHOL    R380508  -5.525  10.437  18.310
 6394CHOL    R480509  -5.411  10.260  18.356
 6394CHOL    R580510  -5.386  10.434  18.233
 6394CHOL    C180511  -5.176  10.431  18.116
 6394CHOL    C280512  -4.966  10.427  17.999
 6395CHOL   ROH80513  24.723  15.278  18.359
 6395CHOL    R180514  24.588  15.233  18.286
 6395CHOL    R280515  24.593  15.086  18.105
 6395CHOL    R380516  24.436  15.182  18.203
 6395CHOL    R480517  24.475  15.046  18.041
 6395CHOL    R580518  24.302  15.137  18.130
 6395CHOL    C180519  24.099  15.070  18.020
 6395CHOL    C280520  23.897  15.003  17.910
 6396CHOL   ROH80521  15.223   7.112  -6.829
 6396CHOL    R180522  15.167   7.139  -6.681
 6396CHOL    R280523  14.940   7.174  -6.644
 6396CHOL    R380524  15.105   7.168  -6.515
 6396CHOL    R480525  14.891   7.198  -6.514
 6396CHOL    R580526  15.049   7.195  -6.368
 6396CHOL    C180527  14.965   7.235  -6.146
 6396CHOL    C280528  14.882   7.275  -5.924
 6397CHOL   ROH80529  19.798   2.994  -3.112
 6397CHOL    R180530  19.706   3.057  -2.997
 6397CHOL    R280531  19.762   3.258  -2.895
 6397CHOL    R380532  19.602   3.127  -2.868
 6397CHOL    R480533  19.681   3.313  -2.795
 6397CHOL    R580534  19.509   3.190  -2.753
 6397CHOL    C180535  19.371   3.283  -2.581
 6397CHOL    C280536  19.233   3.377  -2.409
 6398CHOL   ROH80537   5.057  10.535  27.019
 6398CHOL    R180538   5.098  10.523  26.865
 6398CHOL    R280539   5.137  10.314  26.767
 6398CHOL    R380540   5.143  10.508  26.691
 6398CHOL    R480541   5.172  10.303  26.633
 6398CHOL    R580542   5.184  10.496  26.537
 6398CHOL    C180543   5.245  10.477  26.306
 6398CHOL    C280544   5.306  10.459  26.074
 6399CHOL   ROH80545  22.416  -1.930  14.287
 6399CHOL    R180546  22.301  -1.825  14.248
 6399CHOL    R280547  22.229  -1.802  14.028
 6399CHOL    R380548  22.172  -1.708  14.205
 6399CHOL    R480549  22.129  -1.710  13.994
 6399CHOL    R580550  22.058  -1.603  14.166
 6399CHOL    C180551  21.885  -1.446  14.109
 6399CHOL    C280552  21.713  -1.289  14.051
 6400CHOL   ROH80553  27.489  11.870   7.954
 6400CHOL    R180554  27.330  11.858   7.969
 6400CHOL    R280555  27.192  12.042   7.934
 6400CHOL    R380556  27.152  11.844   7.987
 6400CHOL    R480557  27.053  12.031   7.947
 6400CHOL    R580558  26.993  11.832   8.002
 6400CHOL    C180559  26.755  11.813   8.025
 6400CHOL    C280560  26.517  11.795   8.048
 6401CHOL   ROH80561  24.983   0.492  10.540
 6401CHOL    R180562  24.847   0.576  10.537
 6401CHOL    R280563  24.850   0.809  10.534
 6401CHOL    R380564  24.694   0.671  10.535
 6401CHOL    R480565  24.731   0.883  10.531
 6401CHOL    R580566  24.558   0.755  10.532
 6401CHOL    C180567  24.354   0.881  10.528
 6401CHOL    C280568  24.150   1.007  10.524
 6402CHOL   ROH80569  27.495  12.001  11.301
 6402CHOL    R180570  27.336  11.986  11.288
 6402CHOL    R280571  27.219  12.096  11.119
 6402CHOL    R380572  27.158  11.969  11.273
 6402CHOL    R480573  27.080  12.083  11.108
 6402CHOL    R580574  26.999  11.954  11.260
 6402CHOL    C180575  26.761  11.932  11.241
 6402CHOL    C280576  26.523  11.910  11.222
 6403CHOL   ROH80577  18.662  -5.051  13.759
 6403CHOL    R180578  18.583  -4.916  13.726
 6403CHOL    R280579  18.656  -4.773  13.557
 6403CHOL    R380580  18.494  -4.764  13.688
 6403CHOL    R480581  18.586  -4.655  13.527
 6403CHOL    R580582  18.414  -4.629  13.654
 6403CHOL    C180583  18.296  -4.427  13.604
 6403CHOL    C280584  18.177  -4.225  13.554
 6404CHOL   ROH80585   4.112  16.032  25.795
 6404CHOL    R180586   4.166  15.981  25.653
 6404CHOL    R280587   4.393  15.987  25.602
 6404CHOL    R380588   4.226  15.924  25.493
 6404CHOL    R480589   4.440  15.942  25.477
 6404CHOL    R580590   4.280  15.873  25.352
 6404CHOL    C180591   4.361  15.797  25.139
 6404CHOL    C280592   4.441  15.720  24.926
 6405CHOL   ROH80593  -5.201  19.592   8.591
 6405CHOL    R180594  -5.066  19.506   8.602
 6405CHOL    R280595  -5.037  19.352   8.774
 6405CHOL    R380596  -4.915  19.410   8.615
 6405CHOL    R480597  -4.919  19.277   8.784
 6405CHOL    R580598  -4.781  19.324   8.626
 6405CHOL    C180599  -4.579  19.195   8.643
 6405CHOL    C280600  -4.377  19.067   8.660
 6406CHOL   ROH80601  11.509  -7.770   8.717
 6406CHOL    R180602  11.499  -7.610   8.724
 6406CHOL    R280603  11.582  -7.493   8.908
 6406CHOL    R380604  11.487  -7.431   8.733
 6406CHOL    R480605  11.573  -7.354   8.915
 6406CHOL    R580606  11.477  -7.271   8.740
 6406CHOL    C180607  11.462  -7.032   8.751
 6406CHOL    C280608  11.446  -6.793   8.762
 6407CHOL   ROH80609  -7.422   5.838  11.334
 6407CHOL    R180610  -7.267   5.876  11.320
 6407CHOL    R280611  -7.102   5.749  11.424
 6407CHOL    R380612  -7.093   5.919  11.303
 6407CHOL    R480613  -6.967   5.783  11.411
 6407CHOL    R580614  -6.939   5.958  11.289
 6407CHOL    C180615  -6.706   6.015  11.267
 6407CHOL    C280616  -6.474   6.072  11.246
 6408CHOL   ROH80617  11.723  -6.850  15.655
 6408CHOL    R180618  11.706  -6.698  15.608
 6408CHOL    R280619  11.753  -6.521  15.753
 6408CHOL    R380620  11.686  -6.527  15.555
 6408CHOL    R480621  11.738  -6.388  15.712
 6408CHOL    R580622  11.669  -6.375  15.508
 6408CHOL    C180623  11.642  -6.147  15.437
 6408CHOL    C280624  11.616  -5.919  15.367
 6409CHOL   ROH80625  11.289  -2.660  22.347
 6409CHOL    R180626  11.271  -2.545  22.237
 6409CHOL    R280627  11.271  -2.320  22.297
 6409CHOL    R380628  11.250  -2.416  22.113
 6409CHOL    R480629  11.255  -2.219  22.201
 6409CHOL    R580630  11.232  -2.301  22.003
 6409CHOL    C180631  11.205  -2.129  21.838
 6409CHOL    C280632  11.177  -1.957  21.673
 6410CHOL   ROH80633  18.651   0.742  -2.584
 6410CHOL    R180634  18.569   0.824  -2.473
 6410CHOL    R280635  18.433   1.004  -2.533
 6410CHOL    R380636  18.477   0.915  -2.349
 6410CHOL    R480637  18.361   1.075  -2.437
 6410CHOL    R580638  18.394   0.997  -2.238
 6410CHOL    C180639  18.271   1.119  -2.073
 6410CHOL    C280640  18.148   1.242  -1.907
 6411CHOL   ROH80641  20.440  -1.160   0.845
 6411CHOL    R180642  20.345  -1.062   0.928
 6411CHOL    R280643  20.162  -0.958   0.827
 6411CHOL    R380644  20.238  -0.951   1.021
 6411CHOL    R480645  20.078  -0.873   0.899
 6411CHOL    R580646  20.142  -0.853   1.104
 6411CHOL    C180647  20.000  -0.706   1.228
 6411CHOL    C280648  19.857  -0.558   1.353
 6412CHOL   ROH80649  24.747  14.595  18.703
 6412CHOL    R180650  24.612  14.555  18.626
 6412CHOL    R280651  24.543  14.332  18.615
 6412CHOL    R380652  24.461  14.509  18.540
 6412CHOL    R480653  24.425  14.297  18.548
 6412CHOL    R580654  24.326  14.468  18.463
 6412CHOL    C180655  24.125  14.408  18.349
 6412CHOL    C280656  23.923  14.347  18.234
 6413CHOL   ROH80657  17.918   6.825  -5.608
 6413CHOL    R180658  17.847   6.853  -5.467
 6413CHOL    R280659  17.840   7.068  -5.378
 6413CHOL    R380660  17.767   6.885  -5.309
 6413CHOL    R480661  17.778   7.093  -5.255
 6413CHOL    R580662  17.697   6.913  -5.168
 6413CHOL    C180663  17.590   6.955  -4.958
 6413CHOL    C280664  17.484   6.997  -4.747
 6414CHOL   ROH80665  10.336  27.809   9.718
 6414CHOL    R180666  10.332  27.649   9.719
 6414CHOL    R280667  10.502  27.524   9.620
 6414CHOL    R380668  10.327  27.469   9.721
 6414CHOL    R480669  10.498  27.384   9.622
 6414CHOL    R580670  10.323  27.309   9.722
 6414CHOL    C180671  10.316  27.069   9.724
 6414CHOL    C280672  10.310  26.829   9.726
 6415CHOL   ROH80673  20.677   1.028  -1.019
 6415CHOL    R180674  20.578   1.106  -0.920
 6415CHOL    R280675  20.358   1.151  -0.981
 6415CHOL    R380676  20.468   1.194  -0.809
 6415CHOL    R480677  20.272   1.220  -0.895
 6415CHOL    R580678  20.369   1.271  -0.710
 6415CHOL    C180679  20.221   1.388  -0.561
 6415CHOL    C280680  20.073   1.505  -0.412
 6416CHOL   ROH80681   2.146  -5.374  14.823
 6416CHOL    R180682   2.215  -5.236  14.780
 6416CHOL    R280683   2.416  -5.234  14.663
 6416CHOL    R380684   2.292  -5.081  14.732
 6416CHOL    R480685   2.476  -5.113  14.625
 6416CHOL    R580686   2.361  -4.943  14.689
 6416CHOL    C180687   2.464  -4.736  14.625
 6416CHOL    C280688   2.567  -4.529  14.560
 6417CHOL   ROH80689   8.136  16.449  -6.632
 6417CHOL    R180690   8.150  16.391  -6.484
 6417CHOL    R280691   8.235  16.522  -6.311
 6417CHOL    R380692   8.166  16.325  -6.317
 6417CHOL    R480693   8.247  16.471  -6.181
 6417CHOL    R580694   8.180  16.267  -6.169
 6417CHOL    C180695   8.202  16.179  -5.946
 6417CHOL    C280696   8.223  16.091  -5.724
 6418CHOL   ROH80697  15.171  23.994  19.611
 6418CHOL    R180698  15.125  23.868  19.523
 6418CHOL    R280699  15.215  23.656  19.561
 6418CHOL    R380700  15.073  23.727  19.425
 6418CHOL    R480701  15.175  23.546  19.484
 6418CHOL    R580702  15.028  23.601  19.337
 6418CHOL    C180703  14.959  23.412  19.205
 6418CHOL    C280704  14.890  23.224  19.074
 6419CHOL   ROH80705  -4.403   0.087  14.064
 6419CHOL    R180706  -4.274   0.174  14.025
 6419CHOL    R280707  -4.240   0.386  14.115
 6419CHOL    R380708  -4.129   0.271  13.981
 6419CHOL    R480709  -4.128   0.462  14.081
 6419CHOL    R580710  -4.000   0.357  13.942
 6419CHOL    C180711  -3.807   0.487  13.883
 6419CHOL    C280712  -3.614   0.617  13.825
 6420CHOL   ROH80713  -5.355   8.548  19.173
 6420CHOL    R180714  -5.219   8.559  19.089
 6420CHOL    R280715  -5.078   8.375  19.066
 6420CHOL    R380716  -5.067   8.571  18.994
 6420CHOL    R480717  -4.959   8.385  18.992
 6420CHOL    R580718  -4.931   8.582  18.910
 6420CHOL    C180719  -4.727   8.598  18.784
 6420CHOL    C280720  -4.524   8.615  18.658
 6421CHOL   ROH80721  12.578  13.786  27.143
 6421CHOL    R180722  12.554  13.749  26.989
 6421CHOL    R280723  12.732  13.746  26.838
 6421CHOL    R380724  12.528  13.707  26.816
 6421CHOL    R480725  12.711  13.714  26.703
 6421CHOL    R580726  12.504  13.670  26.663
 6421CHOL    C180727  12.469  13.614  26.432
 6421CHOL    C280728  12.434  13.558  26.201
 6422CHOL   ROH80729  15.423  19.733  -3.975
 6422CHOL    R180730  15.374  19.648  -3.848
 6422CHOL    R280731  15.334  19.419  -3.866
 6422CHOL    R380732  15.319  19.552  -3.706
 6422CHOL    R480733  15.291  19.345  -3.755
 6422CHOL    R580734  15.270  19.467  -3.580
 6422CHOL    C180735  15.197  19.340  -3.390
 6422CHOL    C280736  15.124  19.213  -3.200
 6423CHOL   ROH80737  25.665  11.759   1.839
 6423CHOL    R180738  25.524  11.743   1.913
 6423CHOL    R280739  25.381  11.567   1.862
 6423CHOL    R380740  25.365  11.726   1.996
 6423CHOL    R480741  25.257  11.553   1.926
 6423CHOL    R580742  25.224  11.710   2.070
 6423CHOL    C180743  25.013  11.686   2.181
 6423CHOL    C280744  24.802  11.663   2.292
 6424CHOL   ROH80745  20.300  23.226  15.529
 6424CHOL    R180746  20.204  23.110  15.475
 6424CHOL    R280747  20.202  22.899  15.576
 6424CHOL    R380748  20.096  22.979  15.415
 6424CHOL    R480749  20.119  22.797  15.529
 6424CHOL    R580750  20.000  22.862  15.361
 6424CHOL    C180751  19.857  22.688  15.280
 6424CHOL    C280752  19.713  22.514  15.200
 6425CHOL   ROH80753  -7.704  11.093   7.173
 6425CHOL    R180754  -7.547  11.082   7.202
 6425CHOL    R280755  -7.468  10.969   7.390
 6425CHOL    R380756  -7.370  11.070   7.235
 6425CHOL    R480757  -7.330  10.960   7.416
 6425CHOL    R580758  -7.213  11.059   7.264
 6425CHOL    C180759  -6.978  11.042   7.308
 6425CHOL    C280760  -6.743  11.025   7.352
 6426CHOL   ROH80761  21.503   1.771  -0.736
 6426CHOL    R180762  21.399   1.843  -0.639
 6426CHOL    R280763  21.390   2.076  -0.624
 6426CHOL    R380764  21.281   1.925  -0.529
 6426CHOL    R480765  21.299   2.139  -0.539
 6426CHOL    R580766  21.177   1.998  -0.432
 6426CHOL    C180767  21.021   2.106  -0.286
 6426CHOL    C280768  20.864   2.215  -0.140
 6427CHOL   ROH80769  -2.510  11.289  22.733
 6427CHOL    R180770  -2.397  11.278  22.620
 6427CHOL    R280771  -2.216  11.134  22.645
 6427CHOL    R380772  -2.271  11.266  22.493
 6427CHOL    R480773  -2.117  11.124  22.546
 6427CHOL    R580774  -2.158  11.255  22.379
 6427CHOL    C180775  -1.989  11.239  22.210
 6427CHOL    C280776  -1.820  11.222  22.040
 6428CHOL   ROH80777  -1.511  15.125  -2.846
 6428CHOL    R180778  -1.412  15.081  -2.729
 6428CHOL    R280779  -1.494  14.991  -2.530
 6428CHOL    R380780  -1.300  15.031  -2.597
 6428CHOL    R480781  -1.407  14.953  -2.427
 6428CHOL    R580782  -1.200  14.987  -2.479
 6428CHOL    C180783  -1.051  14.921  -2.304
 6428CHOL    C280784  -0.902  14.855  -2.128
 6429CHOL   ROH80785  27.515  11.598  11.464
 6429CHOL    R180786  27.356  11.586  11.451
 6429CHOL    R280787  27.239  11.709  11.290
 6429CHOL    R380788  27.177  11.572  11.435
 6429CHOL    R480789  27.100  11.698  11.279
 6429CHOL    R580790  27.018  11.560  11.422
 6429CHOL    C180791  26.779  11.542  11.402
 6429CHOL    C280792  26.541  11.524  11.382
 6430CHOL   ROH80793  12.810  19.713  24.600
 6430CHOL    R180794  12.784  19.628  24.467
 6430CHOL    R280795  12.953  19.595  24.310
 6430CHOL    R380796  12.754  19.533  24.317
 6430CHOL    R480797  12.930  19.521  24.194
 6430CHOL    R580798  12.728  19.449  24.184
 6430CHOL    C180799  12.688  19.322  23.984
 6430CHOL    C280800  12.648  19.195  23.785
 6431CHOL   ROH80801   4.621   0.683  24.311
 6431CHOL    R180802   4.665   0.766  24.182
 6431CHOL    R280803   4.769   0.660  24.001
 6431CHOL    R380804   4.716   0.859  24.036
 6431CHOL    R480805   4.808   0.733  23.888
 6431CHOL    R580806   4.760   0.942  23.906
 6431CHOL    C180807   4.827   1.066  23.712
 6431CHOL    C280808   4.893   1.191  23.518
 6432CHOL   ROH80809  21.539   8.683  23.393
 6432CHOL    R180810  21.432   8.692  23.275
 6432CHOL    R280811  21.493   8.766  23.062
 6432CHOL    R380812  21.311   8.702  23.142
 6432CHOL    R480813  21.399   8.774  22.959
 6432CHOL    R580814  21.203   8.710  23.024
 6432CHOL    C180815  21.042   8.724  22.846
 6432CHOL    C280816  20.881   8.737  22.669
 6433CHOL   ROH80817   8.581  25.694   1.490
 6433CHOL    R180818   8.594  25.556   1.570
 6433CHOL    R280819   8.772  25.410   1.529
 6433CHOL    R380820   8.608  25.400   1.659
 6433CHOL    R480821   8.783  25.289   1.599
 6433CHOL    R580822   8.621  25.262   1.739
 6433CHOL    C180823   8.640  25.055   1.858
 6433CHOL    C280824   8.659  24.847   1.977
 6434CHOL   ROH80825  24.330   7.340  -0.201
 6434CHOL    R180826  24.200   7.360  -0.110
 6434CHOL    R280827  23.987   7.367  -0.205
 6434CHOL    R380828  24.054   7.381  -0.007
 6434CHOL    R480829  23.873   7.384  -0.125
 6434CHOL    R580830  23.923   7.401   0.084
 6434CHOL    C180831  23.728   7.430   0.221
 6434CHOL    C280832  23.533   7.460   0.358
 6435CHOL   ROH80833  23.888  18.484  17.072
 6435CHOL    R180834  23.764  18.404  17.011
 6435CHOL    R280835  23.758  18.346  16.785
 6435CHOL    R380836  23.624  18.314  16.942
 6435CHOL    R480837  23.649  18.276  16.732
 6435CHOL    R580838  23.500  18.233  16.881
 6435CHOL    C180839  23.313  18.113  16.789
 6435CHOL    C280840  23.127  17.993  16.698
 6436CHOL   ROH80841  26.369  16.398  12.236
 6436CHOL    R180842  26.222  16.338  12.217
 6436CHOL    R280843  26.154  16.249  12.013
 6436CHOL    R380844  26.057  16.270  12.197
 6436CHOL    R480845  26.025  16.196  11.997
 6436CHOL    R580846  25.909  16.210  12.178
 6436CHOL    C180847  25.689  16.119  12.150
 6436CHOL    C280848  25.468  16.029  12.122
 6437CHOL   ROH80849   7.511  -2.672  -2.429
 6437CHOL    R180850   7.533  -2.558  -2.318
 6437CHOL    R280851   7.657  -2.601  -2.125
 6437CHOL    R380852   7.558  -2.431  -2.194
 6437CHOL    R480853   7.676  -2.502  -2.029
 6437CHOL    R580854   7.580  -2.317  -2.083
 6437CHOL    C180855   7.613  -2.147  -1.918
 6437CHOL    C280856   7.646  -1.976  -1.752
 6438CHOL   ROH80857  19.988  22.757  16.965
 6438CHOL    R180858  19.895  22.642  16.903
 6438CHOL    R280859  19.774  22.678  16.708
 6438CHOL    R380860  19.791  22.513  16.834
 6438CHOL    R480861  19.693  22.578  16.654
 6438CHOL    R580862  19.698  22.398  16.772
 6438CHOL    C180863  19.559  22.226  16.680
 6438CHOL    C280864  19.420  22.053  16.588
 6439CHOL   ROH80865   2.556  10.774  -6.339
 6439CHOL    R180866   2.624  10.766  -6.194
 6439CHOL    R280867   2.611  10.571  -6.067
 6439CHOL    R380868   2.700  10.756  -6.032
 6439CHOL    R480869   2.670  10.564  -5.940
 6439CHOL    R580870   2.768  10.748  -5.887
 6439CHOL    C180871   2.870  10.736  -5.670
 6439CHOL    C280872   2.972  10.723  -5.453
 6440CHOL   ROH80873  20.064  -2.116  18.202
 6440CHOL    R180874  19.972  -2.009  18.126
 6440CHOL    R280875  20.061  -1.809  18.047
 6440CHOL    R380876  19.868  -1.889  18.041
 6440CHOL    R480877  19.980  -1.715  17.981
 6440CHOL    R580878  19.776  -1.782  17.965
 6440CHOL    C180879  19.638  -1.622  17.851
 6440CHOL    C280880  19.500  -1.462  17.737
 6441CHOL   ROH80881  13.285  24.723  19.360
 6441CHOL    R180882  13.255  24.592  19.273
 6441CHOL    R280883  13.428  24.454  19.199
 6441CHOL    R380884  13.220  24.445  19.175
 6441CHOL    R480885  13.401  24.340  19.123
 6441CHOL    R580886  13.190  24.314  19.088
 6441CHOL    C180887  13.144  24.118  18.957
 6441CHOL    C280888  13.099  23.922  18.827
 6442CHOL   ROH80889  -7.917  11.961   9.704
 6442CHOL    R180890  -7.758  11.943   9.708
 6442CHOL    R280891  -7.620  12.114   9.786
 6442CHOL    R380892  -7.579  11.923   9.713
 6442CHOL    R480893  -7.481  12.099   9.790
 6442CHOL    R580894  -7.420  11.905   9.717
 6442CHOL    C180895  -7.182  11.878   9.724
 6442CHOL    C280896  -6.944  11.851   9.730
 6443CHOL   ROH80897   6.960  19.778  -4.757
 6443CHOL    R180898   6.985  19.689  -4.626
 6443CHOL    R280899   7.172  19.551  -4.608
 6443CHOL    R380900   7.012  19.590  -4.479
 6443CHOL    R480901   7.193  19.474  -4.494
 6443CHOL    R580902   7.037  19.501  -4.348
 6443CHOL    C180903   7.074  19.368  -4.152
 6443CHOL    C280904   7.111  19.235  -3.955
 6444CHOL   ROH80905  25.900   5.523   3.387
 6444CHOL    R180906  25.755   5.560   3.444
 6444CHOL    R280907  25.590   5.647   3.303
 6444CHOL    R380908  25.592   5.603   3.507
 6444CHOL    R480909  25.463   5.679   3.353
 6444CHOL    R580910  25.447   5.640   3.564
 6444CHOL    C180911  25.230   5.696   3.649
 6444CHOL    C280912  25.013   5.752   3.734
 6445CHOL   ROH80913  25.520   1.636   8.261
 6445CHOL    R180914  25.380   1.712   8.277
 6445CHOL    R280915  25.369   1.927   8.366
 6445CHOL    R380916  25.222   1.796   8.296
 6445CHOL    R480917  25.247   1.993   8.380
 6445CHOL    R580918  25.082   1.872   8.312
 6445CHOL    C180919  24.872   1.985   8.336
 6445CHOL    C280920  24.662   2.099   8.361
 6446CHOL   ROH80921  -1.605  -0.745   1.337
 6446CHOL    R180922  -1.504  -0.649   1.416
 6446CHOL    R280923  -1.346  -0.738   1.563
 6446CHOL    R380924  -1.390  -0.542   1.505
 6446CHOL    R480925  -1.257  -0.654   1.632
 6446CHOL    R580926  -1.289  -0.446   1.585
 6446CHOL    C180927  -1.137  -0.303   1.703
 6446CHOL    C280928  -0.986  -0.160   1.822
 6447CHOL   ROH80929  19.037  22.727  18.290
 6447CHOL    R180930  18.953  22.612  18.218
 6447CHOL    R280931  18.966  22.390  18.290
 6447CHOL    R380932  18.857  22.482  18.137
 6447CHOL    R480933  18.892  22.289  18.227
 6447CHOL    R580934  18.773  22.367  18.065
 6447CHOL    C180935  18.646  22.193  17.957
 6447CHOL    C280936  18.520  22.020  17.849
 6448CHOL   ROH80937   4.340  -5.380   2.671
 6448CHOL    R180938   4.386  -5.240   2.735
 6448CHOL    R280939   4.582  -5.224   2.860
 6448CHOL    R380940   4.437  -5.084   2.806
 6448CHOL    R480941   4.622  -5.102   2.915
 6448CHOL    R580942   4.483  -4.944   2.870
 6448CHOL    C180943   4.552  -4.735   2.966
 6448CHOL    C280944   4.620  -4.525   3.061
 6449CHOL   ROH80945  15.604  26.846   9.324
 6449CHOL    R180946  15.548  26.696   9.331
 6449CHOL    R280947  15.506  26.575   9.136
 6449CHOL    R380948  15.485  26.528   9.338
 6449CHOL    R480949  15.457  26.444   9.142
 6449CHOL    R580950  15.429  26.378   9.345
 6449CHOL    C180951  15.346  26.153   9.355
 6449CHOL    C280952  15.262  25.929   9.365
 6450CHOL   ROH80953  25.042   0.845  12.284
 6450CHOL    R180954  24.906   0.927  12.263
 6450CHOL    R280955  24.751   0.861  12.102
 6450CHOL    R380956  24.753   1.019  12.239
 6450CHOL    R480957  24.632   0.933  12.083
 6450CHOL    R580958  24.618   1.100  12.217
 6450CHOL    C180959  24.414   1.223  12.186
 6450CHOL    C280960  24.210   1.346  12.154
 6451CHOL   ROH80961   7.910  14.406  27.090
 6451CHOL    R180962   7.932  14.369  26.936
 6451CHOL    R280963   8.106  14.228  26.869
 6451CHOL    R380964   7.957  14.328  26.762
 6451CHOL    R480965   8.125  14.196  26.735
 6451CHOL    R580966   7.978  14.291  26.608
 6451CHOL    C180967   8.011  14.237  26.377
 6451CHOL    C280968   8.044  14.182  26.145
 6452CHOL   ROH80969  -0.794   2.866  22.244
 6452CHOL    R180970  -0.698   2.927  22.131
 6452CHOL    R280971  -0.466   2.916  22.152
 6452CHOL    R380972  -0.591   2.996  22.004
 6452CHOL    R480973  -0.383   2.969  22.053
 6452CHOL    R580974  -0.496   3.057  21.891
 6452CHOL    C180975  -0.352   3.148  21.722
 6452CHOL    C280976  -0.209   3.239  21.552
 6453CHOL   ROH80977  20.910  16.270  22.335
 6453CHOL    R180978  20.812  16.216  22.221
 6453CHOL    R280979  20.877  16.217  21.997
 6453CHOL    R380980  20.701  16.156  22.092
 6453CHOL    R480981  20.791  16.170  21.897
 6453CHOL    R580982  20.603  16.102  21.978
 6453CHOL    C180983  20.456  16.021  21.807
 6453CHOL    C280984  20.308  15.941  21.635
 6454CHOL   ROH80985   5.987  -5.630   2.224
 6454CHOL    R180986   6.021  -5.490   2.294
 6454CHOL    R280987   6.214  -5.462   2.421
 6454CHOL    R380988   6.058  -5.332   2.372
 6454CHOL    R480989   6.244  -5.339   2.482
 6454CHOL    R580990   6.092  -5.192   2.442
 6454CHOL    C180991   6.142  -4.982   2.546
 6454CHOL    C280992   6.193  -4.772   2.650
 6455CHOL   ROH80993  22.758  -2.211   7.984
 6455CHOL    R180994  22.642  -2.103   8.002
 6455CHOL    R280995  22.679  -1.905   8.121
 6455CHOL    R380996  22.511  -1.980   8.022
 6455CHOL    R480997  22.577  -1.810   8.136
 6455CHOL    R580998  22.394  -1.872   8.040
 6455CHOL    C180999  22.220  -1.709   8.066
 6455CHOL    C281000  22.046  -1.547   8.093
 6456CHOL   ROH81001   5.933   2.065  25.394
 6456CHOL    R181002   5.961   2.132  25.251
 6456CHOL    R281003   6.175   2.205  25.193
 6456CHOL    R381004   5.993   2.206  25.091
 6456CHOL    R481005   6.199   2.263  25.068
 6456CHOL    R581006   6.021   2.273  24.948
 6456CHOL    C181007   6.063   2.373  24.734
 6456CHOL    C281008   6.105   2.473  24.520
 6457CHOL   ROH81009   4.662   0.955  24.494
 6457CHOL    R181010   4.706   1.035  24.363
 6457CHOL    R281011   4.811   0.926  24.185
 6457CHOL    R381012   4.755   1.125  24.215
 6457CHOL    R481013   4.849   0.996  24.070
 6457CHOL    R581014   4.799   1.206  24.083
 6457CHOL    C181015   4.865   1.326  23.886
 6457CHOL    C281016   4.931   1.446  23.689
 6458CHOL   ROH81017  14.581  18.851  -4.818
 6458CHOL    R181018  14.541  18.773  -4.684
 6458CHOL    R281019  14.505  18.542  -4.687
 6458CHOL    R381020  14.495  18.684  -4.534
 6458CHOL    R481021  14.469  18.473  -4.570
 6458CHOL    R581022  14.454  18.606  -4.400
 6458CHOL    C181023  14.394  18.488  -4.200
 6458CHOL    C281024  14.333  18.371  -4.000
 6459CHOL   ROH81025  -4.479  20.620  10.809
 6459CHOL    R181026  -4.352  20.524  10.798
 6459CHOL    R281027  -4.153  20.574  10.910
 6459CHOL    R381028  -4.209  20.415  10.787
 6459CHOL    R481029  -4.042  20.490  10.901
 6459CHOL    R581030  -4.082  20.319  10.776
 6459CHOL    C181031  -3.891  20.174  10.760
 6459CHOL    C281032  -3.700  20.029  10.744
 6460CHOL   ROH81033  -2.026  22.986   7.271
 6460CHOL    R181034  -1.925  22.865   7.296
 6460CHOL    R281035  -1.701  22.880   7.233
 6460CHOL    R381036  -1.811  22.728   7.325
 6460CHOL    R481037  -1.613  22.773   7.255
 6460CHOL    R581038  -1.710  22.606   7.350
 6460CHOL    C181039  -1.558  22.424   7.388
 6460CHOL    C281040  -1.407  22.242   7.426
 6461CHOL   ROH81041  -0.879  12.920  23.831
 6461CHOL    R181042  -0.783  12.890  23.707
 6461CHOL    R281043  -0.554  12.857  23.737
 6461CHOL    R381044  -0.675  12.857  23.566
 6461CHOL    R481045  -0.470  12.830  23.628
 6461CHOL    R581046  -0.579  12.827  23.442
 6461CHOL    C181047  -0.435  12.782  23.255
 6461CHOL    C281048  -0.291  12.738  23.069
 6462CHOL   ROH81049   9.525  27.278   5.478
 6462CHOL    R181050   9.526  27.123   5.516
 6462CHOL    R281051   9.623  26.965   5.374
 6462CHOL    R381052   9.527  26.948   5.559
 6462CHOL    R481053   9.624  26.829   5.407
 6462CHOL    R581054   9.527  26.792   5.596
 6462CHOL    C181055   9.529  26.559   5.653
 6462CHOL    C281056   9.530  26.326   5.710
 6463CHOL   ROH81057  -1.951  -1.361  17.095
 6463CHOL    R181058  -1.845  -1.260  17.030
 6463CHOL    R281059  -1.768  -1.074  17.148
 6463CHOL    R381060  -1.726  -1.147  16.957
 6463CHOL    R481061  -1.675  -0.986  17.091
 6463CHOL    R581062  -1.620  -1.047  16.892
 6463CHOL    C181063  -1.460  -0.896  16.795
 6463CHOL    C281064  -1.301  -0.745  16.697
 6464CHOL   ROH81065   6.724  -3.809  20.850
 6464CHOL    R181066   6.752  -3.686  20.752
 6464CHOL    R281067   6.883  -3.505  20.820
 6464CHOL    R381068   6.784  -3.547  20.641
 6464CHOL    R481069   6.908  -3.398  20.734
 6464CHOL    R581070   6.812  -3.424  20.543
 6464CHOL    C181071   6.854  -3.239  20.396
 6464CHOL    C281072   6.896  -3.054  20.248
 6465CHOL   ROH81073  20.964  23.561   6.357
 6465CHOL    R181074  20.865  23.439   6.386
 6465CHOL    R281075  20.699  23.380   6.232
 6465CHOL    R381076  20.753  23.302   6.419
 6465CHOL    R481077  20.612  23.273   6.258
 6465CHOL    R581078  20.654  23.180   6.447
 6465CHOL    C181079  20.504  22.996   6.491
 6465CHOL    C281080  20.355  22.813   6.534
 6466CHOL   ROH81081  -7.066  15.580  11.041
 6466CHOL    R181082  -6.915  15.529  11.031
 6466CHOL    R281083  -6.842  15.342  11.150
 6466CHOL    R381084  -6.744  15.472  11.019
 6466CHOL    R481085  -6.710  15.298  11.141
 6466CHOL    R581086  -6.593  15.422  11.009
 6466CHOL    C181087  -6.366  15.345  10.993
 6466CHOL    C281088  -6.139  15.269  10.977
 6467CHOL   ROH81089  12.194  27.668  10.341
 6467CHOL    R181090  12.175  27.509  10.337
 6467CHOL    R281091  12.279  27.372  10.494
 6467CHOL    R381092  12.154  27.330  10.332
 6467CHOL    R481093  12.263  27.233  10.490
 6467CHOL    R581094  12.135  27.171  10.328
 6467CHOL    C181095  12.107  26.933  10.322
 6467CHOL    C281096  12.078  26.695  10.316
 6468CHOL   ROH81097  24.007  -0.525  12.786
 6468CHOL    R181098  23.882  -0.430  12.757
 6468CHOL    R281099  23.761  -0.447  12.558
 6468CHOL    R381100  23.741  -0.323  12.725
 6468CHOL    R481101  23.652  -0.364  12.533
 6468CHOL    R581102  23.615  -0.228  12.696
 6468CHOL    C181103  23.428  -0.085  12.653
 6468CHOL    C281104  23.240   0.058  12.610
 6469CHOL   ROH81105  10.135  -4.040  20.953
 6469CHOL    R181106  10.127  -3.917  20.851
 6469CHOL    R281107  10.218  -3.934  20.636
 6469CHOL    R381108  10.119  -3.779  20.735
 6469CHOL    R481109  10.211  -3.827  20.547
 6469CHOL    R581110  10.111  -3.657  20.633
 6469CHOL    C181111  10.100  -3.472  20.479
 6469CHOL    C281112  10.089  -3.288  20.326
 6470CHOL   ROH81113  22.947  -0.042  16.876
 6470CHOL    R181114  22.830   0.050  16.819
 6470CHOL    R281115  22.850   0.155  16.611
 6470CHOL    R381116  22.697   0.154  16.754
 6470CHOL    R481117  22.747   0.236  16.561
 6470CHOL    R581118  22.580   0.246  16.697
 6470CHOL    C181119  22.404   0.385  16.610
 6470CHOL    C281120  22.228   0.523  16.524
 6471CHOL   ROH81121   1.223  25.542   9.367
 6471CHOL    R181122   1.304  25.404   9.376
 6471CHOL    R281123   1.530  25.394   9.320
 6471CHOL    R381124   1.395  25.249   9.385
 6471CHOL    R481125   1.601  25.274   9.327
 6471CHOL    R581126   1.476  25.111   9.394
 6471CHOL    C181127   1.597  24.905   9.407
 6471CHOL    C281128   1.719  24.698   9.420
 6472CHOL   ROH81129  20.963  -1.429   1.827
 6472CHOL    R181130  20.864  -1.328   1.901
 6472CHOL    R281131  20.943  -1.177   2.060
 6472CHOL    R381132  20.752  -1.214   1.985
 6472CHOL    R481133  20.856  -1.088   2.125
 6472CHOL    R581134  20.653  -1.113   2.059
 6472CHOL    C181135  20.504  -0.961   2.171
 6472CHOL    C281136  20.355  -0.810   2.283
 6473CHOL   ROH81137   1.648  15.073  24.925
 6473CHOL    R181138   1.727  15.027  24.793
 6473CHOL    R281139   1.872  14.845  24.798
 6473CHOL    R381140   1.815  14.976  24.645
 6473CHOL    R481141   1.941  14.805  24.682
 6473CHOL    R581142   1.894  14.930  24.513
 6473CHOL    C181143   2.012  14.861  24.316
 6473CHOL    C281144   2.130  14.793  24.118
 6474CHOL   ROH81145  16.904  -3.217  19.703
 6474CHOL    R181146  16.841  -3.102  19.612
 6474CHOL    R281147  16.906  -3.075  19.390
 6474CHOL    R381148  16.770  -2.972  19.510
 6474CHOL    R481149  16.851  -2.974  19.310
 6474CHOL    R581150  16.707  -2.856  19.418
 6474CHOL    C181151  16.612  -2.683  19.282
 6474CHOL    C281152  16.518  -2.510  19.145
 6475CHOL   ROH81153  -7.836   8.041   8.078
 6475CHOL    R181154  -7.678   8.057   8.097
 6475CHOL    R281155  -7.589   8.227   8.230
 6475CHOL    R381156  -7.500   8.075   8.118
 6475CHOL    R481157  -7.451   8.241   8.246
 6475CHOL    R581158  -7.342   8.090   8.136
 6475CHOL    C181159  -7.105   8.114   8.165
 6475CHOL    C281160  -6.868   8.138   8.193
 6476CHOL   ROH81161  11.756   6.023  -7.369
 6476CHOL    R181162  11.743   6.062  -7.214
 6476CHOL    R281163  11.742   6.285  -7.147
 6476CHOL    R381164  11.729   6.106  -7.041
 6476CHOL    R481165  11.731   6.320  -7.012
 6476CHOL    R581166  11.716   6.146  -6.886
 6476CHOL    C181167  11.697   6.204  -6.654
 6476CHOL    C281168  11.678   6.263  -6.422
 6477CHOL   ROH81169   6.702   7.469  27.307
 6477CHOL    R181170   6.730   7.491  27.151
 6477CHOL    R281171   6.948   7.509  27.069
 6477CHOL    R381172   6.761   7.516  26.976
 6477CHOL    R481173   6.972   7.528  26.933
 6477CHOL    R581174   6.789   7.539  26.820
 6477CHOL    C181175   6.831   7.572  26.586
 6477CHOL    C281176   6.873   7.605  26.352
 6478CHOL   ROH81177   7.909  23.232  21.711
 6478CHOL    R181178   7.930  23.116  21.603
 6478CHOL    R281179   8.017  23.163  21.392
 6478CHOL    R381180   7.953  22.985  21.482
 6478CHOL    R481181   8.035  23.061  21.297
 6478CHOL    R581182   7.974  22.869  21.374
 6478CHOL    C181183   8.005  22.695  21.212
 6478CHOL    C281184   8.036  22.521  21.050
 6479CHOL   ROH81185  24.034   1.145  16.333
 6479CHOL    R181186  23.907   1.225  16.278
 6479CHOL    R281187  23.925   1.369  16.096
 6479CHOL    R381188  23.763   1.315  16.217
 6479CHOL    R481189  23.813   1.439  16.048
 6479CHOL    R581190  23.636   1.395  16.163
 6479CHOL    C181191  23.445   1.515  16.081
 6479CHOL    C281192  23.254   1.635  15.999
 6480CHOL   ROH81193  15.500  14.581  -6.382
 6480CHOL    R181194  15.454  14.539  -6.235
 6480CHOL    R281195  15.229  14.496  -6.187
 6480CHOL    R381196  15.401  14.492  -6.069
 6480CHOL    R481197  15.189  14.459  -6.059
 6480CHOL    R581198  15.355  14.449  -5.922
 6480CHOL    C181199  15.285  14.386  -5.701
 6480CHOL    C281200  15.216  14.323  -5.480
 6481CHOL   ROH81201  27.370   6.678  10.451
 6481CHOL    R181202  27.212   6.703  10.448
 6481CHOL    R281203  27.088   6.663  10.254
 6481CHOL    R381204  27.034   6.731  10.445
 6481CHOL    R481205  26.950   6.685  10.252
 6481CHOL    R581206  26.876   6.755  10.441
 6481CHOL    C181207  26.639   6.793  10.437
 6481CHOL    C281208  26.402   6.830  10.432
 6482CHOL   ROH81209   3.787  19.295  23.928
 6482CHOL    R181210   3.841  19.209  23.804
 6482CHOL    R281211   3.983  19.027  23.838
 6482CHOL    R381212   3.902  19.112  23.666
 6482CHOL    R481213   4.031  18.951  23.730
 6482CHOL    R581214   3.956  19.025  23.542
 6482CHOL    C181215   4.037  18.896  23.357
 6482CHOL    C281216   4.118  18.767  23.171
 6483CHOL   ROH81217  -6.290  17.032  12.890
 6483CHOL    R181218  -6.145  16.970  12.865
 6483CHOL    R281219  -6.014  16.897  13.044
 6483CHOL    R381220  -5.981  16.900  12.837
 6483CHOL    R481221  -5.886  16.842  13.022
 6483CHOL    R581222  -5.836  16.838  12.813
 6483CHOL    C181223  -5.618  16.745  12.775
 6483CHOL    C281224  -5.400  16.652  12.738
 6484CHOL   ROH81225  25.588  17.194  14.415
 6484CHOL    R181226  25.447  17.128  14.377
 6484CHOL    R281227  25.422  17.006  14.180
 6484CHOL    R381228  25.289  17.054  14.334
 6484CHOL    R481229  25.299  16.948  14.146
 6484CHOL    R581230  25.149  16.988  14.296
 6484CHOL    C181231  24.938  16.889  14.238
 6484CHOL    C281232  24.727  16.790  14.181
 6485CHOL   ROH81233  18.734  -1.942   0.022
 6485CHOL    R181234  18.655  -1.834   0.110
 6485CHOL    R281235  18.550  -1.651   0.010
 6485CHOL    R381236  18.566  -1.713   0.209
 6485CHOL    R481237  18.481  -1.557   0.087
 6485CHOL    R581238  18.487  -1.605   0.296
 6485CHOL    C181239  18.369  -1.443   0.428
 6485CHOL    C281240  18.251  -1.281   0.560
 6486CHOL   ROH81241  16.883  21.558  21.632
 6486CHOL    R181242  16.822  21.453  21.528
 6486CHOL    R281243  16.959  21.337  21.379
 6486CHOL    R381244  16.753  21.336  21.410
 6486CHOL    R481245  16.906  21.246  21.287
 6486CHOL    R581246  16.691  21.231  21.305
 6486CHOL    C181247  16.600  21.074  21.149
 6486CHOL    C281248  16.508  20.917  20.992
 6487CHOL   ROH81249  21.846   0.995   0.284
 6487CHOL    R181250  21.739   1.074   0.373
 6487CHOL    R281251  21.512   1.071   0.319
 6487CHOL    R381252  21.619   1.163   0.473
 6487CHOL    R481253  21.419   1.140   0.397
 6487CHOL    R581254  21.512   1.242   0.562
 6487CHOL    C181255  21.352   1.361   0.695
 6487CHOL    C281256  21.191   1.479   0.829
 6488CHOL   ROH81257  -7.647   6.493   9.110
 6488CHOL    R181258  -7.492   6.531   9.114
 6488CHOL    R281259  -7.378   6.550   9.317
 6488CHOL    R381260  -7.317   6.573   9.119
 6488CHOL    R481261  -7.242   6.583   9.321
 6488CHOL    R581262  -7.161   6.611   9.124
 6488CHOL    C181263  -6.928   6.668   9.130
 6488CHOL    C281264  -6.695   6.724   9.136
 6489CHOL   ROH81265   0.629  25.198  11.567
 6489CHOL    R181266   0.711  25.061  11.555
 6489CHOL    R281267   0.943  25.061  11.534
 6489CHOL    R381268   0.803  24.907  11.543
 6489CHOL    R481269   1.015  24.941  11.524
 6489CHOL    R581270   0.885  24.769  11.531
 6489CHOL    C181271   1.007  24.564  11.514
 6489CHOL    C281272   1.130  24.358  11.496
 6490CHOL   ROH81273   7.428  -7.477   7.216
 6490CHOL    R181274   7.448  -7.320   7.238
 6490CHOL    R281275   7.658  -7.221   7.211
 6490CHOL    R381276   7.472  -7.143   7.263
 6490CHOL    R481277   7.676  -7.084   7.230
 6490CHOL    R581278   7.492  -6.986   7.284
 6490CHOL    C181279   7.523  -6.750   7.317
 6490CHOL    C281280   7.553  -6.515   7.350
 6491CHOL   ROH81281  -6.694  10.174  16.603
 6491CHOL    R181282  -6.545  10.176  16.544
 6491CHOL    R281283  -6.393  10.341  16.607
 6491CHOL    R381284  -6.378  10.178  16.478
 6491CHOL    R481285  -6.263  10.343  16.555
 6491CHOL    R581286  -6.229  10.180  16.419
 6491CHOL    C181287  -6.006  10.182  16.331
 6491CHOL    C281288  -5.783  10.185  16.243
 6492CHOL   ROH81289   6.091  26.163   3.278
 6492CHOL    R181290   6.122  26.019   3.339
 6492CHOL    R281291   6.322  25.908   3.290
 6492CHOL    R381292   6.157  25.856   3.408
 6492CHOL    R481293   6.349  25.782   3.343
 6492CHOL    R581294   6.188  25.712   3.469
 6492CHOL    C181295   6.235  25.495   3.561
 6492CHOL    C281296   6.282  25.278   3.652
 6493CHOL   ROH81297   0.263   2.796  23.052
 6493CHOL    R181298   0.352   2.858  22.935
 6493CHOL    R281299   0.575   2.916  22.972
 6493CHOL    R381300   0.453   2.928  22.803
 6493CHOL    R481301   0.654   2.970  22.869
 6493CHOL    R581302   0.543   2.990  22.685
 6493CHOL    C181303   0.677   3.082  22.510
 6493CHOL    C281304   0.811   3.175  22.334
 6494CHOL   ROH81305   7.705   3.051  26.149
 6494CHOL    R181306   7.727   3.112  26.003
 6494CHOL    R281307   7.782   3.337  25.973
 6494CHOL    R381308   7.751   3.181  25.838
 6494CHOL    R481309   7.801   3.390  25.845
 6494CHOL    R581310   7.772   3.242  25.691
 6494CHOL    C181311   7.805   3.333  25.472
 6494CHOL    C281312   7.837   3.424  25.252
 6495CHOL   ROH81313  20.807   7.621  -3.968
 6495CHOL    R181314  20.712   7.643  -3.841
 6495CHOL    R281315  20.638   7.857  -3.783
 6495CHOL    R381316  20.605   7.669  -3.699
 6495CHOL    R481317  20.555   7.876  -3.672
 6495CHOL    R581318  20.510   7.691  -3.572
 6495CHOL    C181319  20.367   7.725  -3.383
 6495CHOL    C281320  20.224   7.758  -3.193
 6496CHOL   ROH81321  10.145  26.278  17.296
 6496CHOL    R181322  10.143  26.133  17.229
 6496CHOL    R281323  10.268  26.087  17.038
 6496CHOL    R381324  10.141  25.969  17.154
 6496CHOL    R481325  10.266  25.959  16.979
 6496CHOL    R581326  10.138  25.823  17.087
 6496CHOL    C181327  10.135  25.605  16.987
 6496CHOL    C281328  10.132  25.387  16.887
 6497CHOL   ROH81329   9.718  21.149  23.879
 6497CHOL    R181330   9.720  21.048  23.755
 6497CHOL    R281331   9.810  21.112  23.549
 6497CHOL    R381332   9.722  20.934  23.615
 6497CHOL    R481333   9.811  21.024  23.441
 6497CHOL    R581334   9.724  20.834  23.491
 6497CHOL    C181335   9.728  20.682  23.305
 6497CHOL    C281336   9.731  20.531  23.119
 6498CHOL   ROH81337  16.787  -3.946   1.161
 6498CHOL    R181338  16.725  -3.820   1.238
 6498CHOL    R281339  16.784  -3.603   1.179
 6498CHOL    R381340  16.655  -3.679   1.325
 6498CHOL    R481341  16.729  -3.492   1.246
 6498CHOL    R581342  16.593  -3.553   1.401
 6498CHOL    C181343  16.500  -3.364   1.517
 6498CHOL    C281344  16.407  -3.176   1.632
 6499CHOL   ROH81345  15.700  26.640   7.458
 6499CHOL    R181346  15.644  26.492   7.480
 6499CHOL    R281347  15.737  26.311   7.365
 6499CHOL    R381348  15.582  26.324   7.504
 6499CHOL    R481349  15.689  26.181   7.384
 6499CHOL    R581350  15.527  26.176   7.526
 6499CHOL    C181351  15.443  25.953   7.559
 6499CHOL    C281352  15.360  25.731   7.591
 6500CHOL   ROH81353  -7.156   9.035  15.269
 6500CHOL    R181354  -7.003   9.043  15.222
 6500CHOL    R281355  -6.859   8.862  15.249
 6500CHOL    R381356  -6.832   9.052  15.168
 6500CHOL    R481357  -6.726   8.869  15.207
 6500CHOL    R581358  -6.679   9.061  15.121
 6500CHOL    C181359  -6.450   9.073  15.050
 6500CHOL    C281360  -6.221   9.085  14.979
 6501CHOL   ROH81361  12.122  27.324   6.424
 6501CHOL    R181362  12.101  27.169   6.457
 6501CHOL    R281363  12.148  27.084   6.669
 6501CHOL    R381364  12.077  26.995   6.494
 6501CHOL    R481365  12.130  26.948   6.698
 6501CHOL    R581366  12.056  26.840   6.527
 6501CHOL    C181367  12.024  26.607   6.577
 6501CHOL    C281368  11.993  26.374   6.627
 6502CHOL   ROH81369   8.037  -1.377  -3.740
 6502CHOL    R181370   8.055  -1.273  -3.620
 6502CHOL    R281371   8.211  -1.311  -3.451
 6502CHOL    R381372   8.075  -1.157  -3.484
 6502CHOL    R481373   8.227  -1.220  -3.346
 6502CHOL    R581374   8.092  -1.053  -3.364
 6502CHOL    C181375   8.119  -0.897  -3.183
 6502CHOL    C281376   8.146  -0.742  -3.002
 6503CHOL   ROH81377  13.041  10.638  -7.669
 6503CHOL    R181378  13.011  10.630  -7.512
 6503CHOL    R281379  12.830  10.743  -7.418
 6503CHOL    R381380  12.977  10.621  -7.335
 6503CHOL    R481381  12.803  10.736  -7.281
 6503CHOL    R581382  12.948  10.612  -7.178
 6503CHOL    C181383  12.903  10.600  -6.943
 6503CHOL    C281384  12.858  10.588  -6.708
 6504CHOL   ROH81385  23.596   3.461   0.567
 6504CHOL    R181386  23.477   3.523   0.654
 6504CHOL    R281387  23.353   3.704   0.575
 6504CHOL    R381388  23.343   3.593   0.752
 6504CHOL    R481389  23.248   3.758   0.651
 6504CHOL    R581390  23.223   3.655   0.839
 6504CHOL    C181391  23.045   3.748   0.969
 6504CHOL    C281392  22.866   3.841   1.099
 6505CHOL   ROH81393  26.522  15.219   6.167
 6505CHOL    R181394  26.374  15.168   6.198
 6505CHOL    R281395  26.214  15.154   6.028
 6505CHOL    R381396  26.206  15.111   6.232
 6505CHOL    R481397  26.084  15.110   6.055
 6505CHOL    R581398  26.058  15.060   6.263
 6505CHOL    C181399  25.835  14.983   6.308
 6505CHOL    C281400  25.613  14.906   6.354
 6506CHOL   ROH81401   9.890  19.174  -5.387
 6506CHOL    R181402   9.888  19.092  -5.250
 6506CHOL    R281403  10.084  19.054  -5.129
 6506CHOL    R381404   9.885  18.999  -5.096
 6506CHOL    R481405  10.082  18.982  -5.009
 6506CHOL    R581406   9.883  18.917  -4.958
 6506CHOL    C181407   9.880  18.793  -4.753
 6506CHOL    C281408   9.876  18.669  -4.547
 6507CHOL   ROH81409  22.019  22.890   7.561
 6507CHOL    R181410  21.910  22.775   7.582
 6507CHOL    R281411  21.742  22.738   7.425
 6507CHOL    R381412  21.788  22.645   7.606
 6507CHOL    R481413  21.647  22.637   7.443
 6507CHOL    R581414  21.679  22.529   7.627
 6507CHOL    C181415  21.516  22.356   7.659
 6507CHOL    C281416  21.353  22.183   7.691
 6508CHOL   ROH81417   5.062  15.027  26.396
 6508CHOL    R181418   5.103  14.991  26.245
 6508CHOL    R281419   5.244  15.131  26.124
 6508CHOL    R381420   5.149  14.952  26.076
 6508CHOL    R481421   5.280  15.100  25.992
 6508CHOL    R581422   5.190  14.916  25.925
 6508CHOL    C181423   5.251  14.863  25.700
 6508CHOL    C281424   5.313  14.809  25.474
 6509CHOL   ROH81425  16.621  24.450   1.971
 6509CHOL    R181426  16.560  24.320   2.043
 6509CHOL    R281427  16.648  24.243   2.245
 6509CHOL    R381428  16.492  24.175   2.123
 6509CHOL    R481429  16.595  24.129   2.307
 6509CHOL    R581430  16.431  24.045   2.195
 6509CHOL    C181431  16.341  23.851   2.303
 6509CHOL    C281432  16.250  23.656   2.410
 6510CHOL   ROH81433  -1.118   7.418  -3.902
 6510CHOL    R181434  -1.019   7.437  -3.778
 6510CHOL    R281435  -1.067   7.591  -3.609
 6510CHOL    R381436  -0.908   7.459  -3.638
 6510CHOL    R481437  -0.980   7.607  -3.500
 6510CHOL    R581438  -0.809   7.478  -3.514
 6510CHOL    C181439  -0.660   7.507  -3.328
 6510CHOL    C281440  -0.511   7.536  -3.142
 6511CHOL   ROH81441  20.304   9.794  -4.536
 6511CHOL    R181442  20.212   9.795  -4.405
 6511CHOL    R281443  19.980   9.787  -4.421
 6511CHOL    R381444  20.109   9.797  -4.257
 6511CHOL    R481445  19.900   9.788  -4.306
 6511CHOL    R581446  20.017   9.798  -4.126
 6511CHOL    C181447  19.880   9.801  -3.929
 6511CHOL    C281448  19.742   9.803  -3.732
 6512CHOL   ROH81449  19.429  20.270  20.989
 6512CHOL    R181450  19.341  20.179  20.891
 6512CHOL    R281451  19.441  20.060  20.717
 6512CHOL    R381452  19.243  20.077  20.780
 6512CHOL    R481453  19.365  19.981  20.631
 6512CHOL    R581454  19.155  19.987  20.682
 6512CHOL    C181455  19.024  19.850  20.534
 6512CHOL    C281456  18.893  19.714  20.386
 6513CHOL   ROH81457  27.492   7.752   9.058
 6513CHOL    R181458  27.333   7.769   9.066
 6513CHOL    R281459  27.234   7.979   9.040
 6513CHOL    R381460  27.154   7.789   9.075
 6513CHOL    R481461  27.095   7.994   9.047
 6513CHOL    R581462  26.995   7.806   9.083
 6513CHOL    C181463  26.757   7.833   9.095
 6513CHOL    C281464  26.519   7.859   9.107
 6514CHOL   ROH81465   1.807  20.424  21.984
 6514CHOL    R181466   1.879  20.331  21.876
 6514CHOL    R281467   2.034  20.170  21.940
 6514CHOL    R381468   1.960  20.227  21.753
 6514CHOL    R481469   2.098  20.088  21.845
 6514CHOL    R581470   2.033  20.134  21.645
 6514CHOL    C181471   2.141  19.995  21.482
 6514CHOL    C281472   2.249  19.856  21.320
 6515CHOL   ROH81473  -3.537  -0.699  14.963
 6515CHOL    R181474  -3.415  -0.606  14.917
 6515CHOL    R281475  -3.252  -0.538  15.069
 6515CHOL    R381476  -3.279  -0.501  14.865
 6515CHOL    R481477  -3.145  -0.457  15.028
 6515CHOL    R581478  -3.157  -0.408  14.819
 6515CHOL    C181479  -2.975  -0.268  14.750
 6515CHOL    C281480  -2.792  -0.129  14.681
 6516CHOL   ROH81481  -5.937   1.890   8.383
 6516CHOL    R181482  -5.794   1.960   8.399
 6516CHOL    R281483  -5.760   2.127   8.559
 6516CHOL    R381484  -5.633   2.039   8.417
 6516CHOL    R481485  -5.635   2.188   8.573
 6516CHOL    R581486  -5.491   2.109   8.433
 6516CHOL    C181487  -5.276   2.215   8.457
 6516CHOL    C281488  -5.062   2.320   8.481
 6517CHOL   ROH81489  25.539  11.216   1.508
 6517CHOL    R181490  25.399  11.205   1.585
 6517CHOL    R281491  25.264  11.393   1.616
 6517CHOL    R381492  25.242  11.193   1.672
 6517CHOL    R481493  25.142  11.383   1.683
 6517CHOL    R581494  25.102  11.182   1.748
 6517CHOL    C181495  24.892  11.166   1.864
 6517CHOL    C281496  24.682  11.149   1.979
 6518CHOL   ROH81497   5.381  -6.786   5.761
 6518CHOL    R181498   5.421  -6.636   5.800
 6518CHOL    R281499   5.635  -6.554   5.756
 6518CHOL    R381500   5.466  -6.467   5.844
 6518CHOL    R481501   5.670  -6.422   5.790
 6518CHOL    R581502   5.506  -6.317   5.883
 6518CHOL    C181503   5.567  -6.093   5.942
 6518CHOL    C281504   5.627  -5.868   6.001
 6519CHOL   ROH81505  23.122  13.402  21.344
 6519CHOL    R181506  23.008  13.369  21.237
 6519CHOL    R281507  23.018  13.455  21.020
 6519CHOL    R381508  22.879  13.332  21.117
 6519CHOL    R481509  22.918  13.426  20.927
 6519CHOL    R581510  22.765  13.299  21.009
 6519CHOL    C181511  22.594  13.250  20.849
 6519CHOL    C281512  22.422  13.201  20.688
 6520CHOL   ROH81513  17.049  12.974  -6.157
 6520CHOL    R181514  16.983  12.950  -6.013
 6520CHOL    R281515  16.822  12.785  -5.981
 6520CHOL    R381516  16.910  12.923  -5.851
 6520CHOL    R481517  16.765  12.764  -5.855
 6520CHOL    R581518  16.844  12.899  -5.707
 6520CHOL    C181519  16.746  12.864  -5.491
 6520CHOL    C281520  16.647  12.828  -5.275
 6521CHOL   ROH81521   1.801  -4.543  16.538
 6521CHOL    R181522   1.872  -4.412  16.479
 6521CHOL    R281523   2.083  -4.346  16.553
 6521CHOL    R381524   1.952  -4.265  16.413
 6521CHOL    R481525   2.145  -4.232  16.502
 6521CHOL    R581526   2.022  -4.135  16.353
 6521CHOL    C181527   2.129  -3.938  16.265
 6521CHOL    C281528   2.235  -3.742  16.176
 6522CHOL   ROH81529  26.819   4.739  11.788
 6522CHOL    R181530  26.667   4.786  11.770
 6522CHOL    R281531  26.556   4.759  11.567
 6522CHOL    R381532  26.496   4.839  11.751
 6522CHOL    R481533  26.423   4.800  11.552
 6522CHOL    R581534  26.345   4.886  11.733
 6522CHOL    C181535  26.117   4.957  11.707
 6522CHOL    C281536  25.889   5.028  11.680
 6523CHOL   ROH81537  17.667   4.944  -5.267
 6523CHOL    R181538  17.597   4.986  -5.129
 6523CHOL    R281539  17.705   5.128  -4.979
 6523CHOL    R381540  17.519   5.033  -4.974
 6523CHOL    R481541  17.644   5.165  -4.858
 6523CHOL    R581542  17.449   5.075  -4.837
 6523CHOL    C181543  17.344   5.138  -4.630
 6523CHOL    C281544  17.240   5.201  -4.423
 6524CHOL   ROH81545  -5.786   3.299   4.489
 6524CHOL    R181546  -5.646   3.363   4.531
 6524CHOL    R281547  -5.635   3.545   4.677
 6524CHOL    R381548  -5.487   3.436   4.578
 6524CHOL    R481549  -5.512   3.601   4.714
 6524CHOL    R581550  -5.347   3.500   4.620
 6524CHOL    C181551  -5.136   3.596   4.683
 6524CHOL    C281552  -4.926   3.693   4.746
 6525CHOL   ROH81553  21.410  17.482  -1.478
 6525CHOL    R181554  21.308  17.415  -1.375
 6525CHOL    R281555  21.077  17.440  -1.400
 6525CHOL    R381556  21.193  17.339  -1.258
 6525CHOL    R481557  20.988  17.381  -1.309
 6525CHOL    R581558  21.091  17.272  -1.155
 6525CHOL    C181559  20.939  17.170  -1.000
 6525CHOL    C281560  20.786  17.069  -0.845
 6526CHOL   ROH81561   2.784  26.390   9.886
 6526CHOL    R181562   2.850  26.244   9.887
 6526CHOL    R281563   3.017  26.188   9.733
 6526CHOL    R381564   2.925  26.081   9.887
 6526CHOL    R481565   3.075  26.060   9.734
 6526CHOL    R581566   2.991  25.935   9.888
 6526CHOL    C181567   3.091  25.717   9.889
 6526CHOL    C281568   3.191  25.498   9.890
 6527CHOL   ROH81569  25.738   3.545   4.820
 6527CHOL    R181570  25.595   3.603   4.863
 6527CHOL    R281571  25.569   3.826   4.924
 6527CHOL    R381572  25.434   3.668   4.911
 6527CHOL    R481573  25.444   3.877   4.961
 6527CHOL    R581574  25.292   3.725   4.955
 6527CHOL    C181575  25.077   3.812   5.019
 6527CHOL    C281576  24.863   3.899   5.084
 6528CHOL   ROH81577   7.195   7.733  -7.561
 6528CHOL    R181578   7.218   7.754  -7.404
 6528CHOL    R281579   7.053   7.695  -7.250
 6528CHOL    R381580   7.243   7.778  -7.227
 6528CHOL    R481581   7.072   7.714  -7.113
 6528CHOL    R581582   7.266   7.800  -7.071
 6528CHOL    C181583   7.299   7.831  -6.835
 6528CHOL    C281584   7.333   7.863  -6.600
 6529CHOL   ROH81585  -6.800   3.866   8.535
 6529CHOL    R181586  -6.651   3.922   8.549
 6529CHOL    R281587  -6.491   3.806   8.674
 6529CHOL    R381588  -6.483   3.985   8.566
 6529CHOL    R481589  -6.360   3.855   8.686
 6529CHOL    R581590  -6.333   4.041   8.580
 6529CHOL    C181591  -6.110   4.124   8.602
 6529CHOL    C281592  -5.886   4.208   8.623
 6530CHOL   ROH81593  -0.813  -1.248  18.845
 6530CHOL    R181594  -0.717  -1.148  18.765
 6530CHOL    R281595  -0.500  -1.104  18.838
 6530CHOL    R381596  -0.610  -1.035  18.675
 6530CHOL    R481597  -0.417  -1.017  18.768
 6530CHOL    R581598  -0.515  -0.935  18.595
 6530CHOL    C181599  -0.371  -0.784  18.474
 6530CHOL    C281600  -0.228  -0.634  18.354
 6531CHOL   ROH81601   5.734  27.398  10.171
 6531CHOL    R181602   5.770  27.242  10.170
 6531CHOL    R281603   5.834  27.132  10.365
 6531CHOL    R381604   5.810  27.067  10.168
 6531CHOL    R481605   5.865  26.996  10.364
 6531CHOL    R581606   5.846  26.911  10.167
 6531CHOL    C181607   5.900  26.677  10.165
 6531CHOL    C281608   5.954  26.443  10.163
 6532CHOL   ROH81609  14.401   0.491  24.370
 6532CHOL    R181610  14.361   0.580  24.243
 6532CHOL    R281611  14.481   0.564  24.043
 6532CHOL    R381612  14.317   0.680  24.100
 6532CHOL    R481613  14.446   0.642  23.932
 6532CHOL    R581614  14.277   0.770  23.973
 6532CHOL    C181615  14.218   0.903  23.783
 6532CHOL    C281616  14.159   1.037  23.593
 6533CHOL   ROH81617   4.023  -4.907   1.923
 6533CHOL    R181618   4.072  -4.772   1.994
 6533CHOL    R281619   4.019  -4.728   2.217
 6533CHOL    R381620   4.127  -4.620   2.074
 6533CHOL    R481621   4.062  -4.610   2.279
 6533CHOL    R581622   4.175  -4.485   2.144
 6533CHOL    C181623   4.249  -4.283   2.251
 6533CHOL    C281624   4.322  -4.081   2.357
 6534CHOL   ROH81625  17.294  19.388  -3.320
 6534CHOL    R181626  17.226  19.306  -3.200
 6534CHOL    R281627  17.187  19.077  -3.218
 6534CHOL    R381628  17.150  19.215  -3.065
 6534CHOL    R481629  17.128  19.006  -3.113
 6534CHOL    R581630  17.082  19.133  -2.945
 6534CHOL    C181631  16.980  19.011  -2.766
 6534CHOL    C281632  16.878  18.888  -2.586
 6535CHOL   ROH81633  26.059  16.543   6.477
 6535CHOL    R181634  25.915  16.480   6.505
 6535CHOL    R281635  25.853  16.275   6.411
 6535CHOL    R381636  25.753  16.408   6.536
 6535CHOL    R481637  25.727  16.220   6.435
 6535CHOL    R581638  25.609  16.345   6.564
 6535CHOL    C181639  25.392  16.250   6.606
 6535CHOL    C281640  25.176  16.155   6.648
 6536CHOL   ROH81641  -1.188  15.121  -3.115
 6536CHOL    R181642  -1.091  15.077  -2.995
 6536CHOL    R281643  -1.173  15.049  -2.779
 6536CHOL    R381644  -0.982  15.028  -2.861
 6536CHOL    R481645  -1.089  15.010  -2.674
 6536CHOL    R581646  -0.886  14.984  -2.742
 6536CHOL    C181647  -0.740  14.918  -2.562
 6536CHOL    C281648  -0.595  14.852  -2.383
 6537CHOL   ROH81649   6.563  27.158  13.716
 6537CHOL    R181650   6.593  27.005  13.680
 6537CHOL    R281651   6.772  26.892  13.777
 6537CHOL    R381652   6.627  26.833  13.640
 6537CHOL    R481653   6.799  26.758  13.746
 6537CHOL    R581654   6.656  26.680  13.604
 6537CHOL    C181655   6.701  26.451  13.550
 6537CHOL    C281656   6.746  26.221  13.496
 6538CHOL   ROH81657   9.343  27.800   9.240
 6538CHOL    R181658   9.347  27.640   9.246
 6538CHOL    R281659   9.519  27.520   9.145
 6538CHOL    R381660   9.351  27.460   9.253
 6538CHOL    R481661   9.522  27.380   9.150
 6538CHOL    R581662   9.355  27.301   9.260
 6538CHOL    C181663   9.361  27.061   9.269
 6538CHOL    C281664   9.367  26.821   9.278
 6539CHOL   ROH81665   0.268  24.052   4.839
 6539CHOL    R181666   0.354  23.925   4.885
 6539CHOL    R281667   0.586  23.941   4.911
 6539CHOL    R381668   0.452  23.783   4.937
 6539CHOL    R481669   0.661  23.830   4.951
 6539CHOL    R581670   0.538  23.657   4.983
 6539CHOL    C181671   0.668  23.467   5.052
 6539CHOL    C281672   0.797  23.277   5.121
 6540CHOL   ROH81673  -6.483   3.972   6.154
 6540CHOL    R181674  -6.337   4.031   6.183
 6540CHOL    R281675  -6.191   3.924   6.330
 6540CHOL    R381676  -6.173   4.098   6.215
 6540CHOL    R481677  -6.064   3.976   6.355
 6540CHOL    R581678  -6.027   4.157   6.244
 6540CHOL    C181679  -5.809   4.247   6.287
 6540CHOL    C281680  -5.590   4.336   6.330
 6541CHOL   ROH81681   2.619  13.586  25.842
 6541CHOL    R181682   2.682  13.557  25.698
 6541CHOL    R281683   2.855  13.687  25.614
 6541CHOL    R381684   2.752  13.523  25.536
 6541CHOL    R481685   2.910  13.662  25.488
 6541CHOL    R581686   2.815  13.494  25.391
 6541CHOL    C181687   2.909  13.450  25.175
 6541CHOL    C281688   3.003  13.406  24.959
 6542CHOL   ROH81689  17.338   1.856  -4.157
 6542CHOL    R181690  17.269   1.926  -4.031
 6542CHOL    R281691  17.047   1.999  -4.041
 6542CHOL    R381692  17.190   2.005  -3.889
 6542CHOL    R481693  16.987   2.061  -3.931
 6542CHOL    R581694  17.121   2.075  -3.763
 6542CHOL    C181695  17.017   2.179  -3.574
 6542CHOL    C281696  16.913   2.284  -3.385
 6543CHOL   ROH81697  -7.298   5.700   7.399
 6543CHOL    R181698  -7.146   5.745   7.419
 6543CHOL    R281699  -7.083   5.884   7.595
 6543CHOL    R381700  -6.974   5.796   7.440
 6543CHOL    R481701  -6.950   5.924   7.612
 6543CHOL    R581702  -6.822   5.841   7.460
 6543CHOL    C181703  -6.594   5.908   7.489
 6543CHOL    C281704  -6.365   5.975   7.519
 6544CHOL   ROH81705  25.567  10.533   1.490
 6544CHOL    R181706  25.427  10.528   1.567
 6544CHOL    R281707  25.296  10.720   1.591
 6544CHOL    R381708  25.269  10.522   1.655
 6544CHOL    R481709  25.174  10.715   1.659
 6544CHOL    R581710  25.129  10.518   1.732
 6544CHOL    C181711  24.919  10.510   1.848
 6544CHOL    C281712  24.709  10.503   1.964
 6545CHOL   ROH81713  16.941  20.488  22.560
 6545CHOL    R181714  16.879  20.395  22.446
 6545CHOL    R281715  16.990  20.363  22.243
 6545CHOL    R381716  16.808  20.291  22.317
 6545CHOL    R481717  16.935  20.282  22.143
 6545CHOL    R581718  16.746  20.198  22.202
 6545CHOL    C181719  16.652  20.059  22.031
 6545CHOL    C281720  16.559  19.920  21.859
 6546CHOL   ROH81721  15.468  -2.808  -1.148
 6546CHOL    R181722  15.420  -2.693  -1.048
 6546CHOL    R281723  15.547  -2.500  -1.016
 6546CHOL    R381724  15.365  -2.563  -0.936
 6546CHOL    R481725  15.505  -2.399  -0.928
 6546CHOL    R581726  15.316  -2.448  -0.836
 6546CHOL    C181727  15.244  -2.275  -0.686
 6546CHOL    C281728  15.171  -2.102  -0.536
 6547CHOL   ROH81729  16.919  -0.898  -2.364
 6547CHOL    R181730  16.857  -0.799  -2.255
 6547CHOL    R281731  16.741  -0.607  -2.319
 6547CHOL    R381732  16.788  -0.687  -2.132
 6547CHOL    R481733  16.687  -0.520  -2.224
 6547CHOL    R581734  16.726  -0.587  -2.023
 6547CHOL    C181735  16.633  -0.438  -1.859
 6547CHOL    C281736  16.541  -0.289  -1.696
 6548CHOL   ROH81737  18.672  -2.420  19.263
 6548CHOL    R181738  18.592  -2.313  19.175
 6548CHOL    R281739  18.524  -2.362  18.958
 6548CHOL    R381740  18.502  -2.192  19.077
 6548CHOL    R481741  18.453  -2.269  18.881
 6548CHOL    R581742  18.422  -2.085  18.989
 6548CHOL    C181743  18.301  -1.924  18.857
 6548CHOL    C281744  18.181  -1.763  18.726
 6549CHOL   ROH81745   8.151  -4.446  20.325
 6549CHOL    R181746   8.167  -4.316  20.232
 6549CHOL    R281747   8.377  -4.225  20.189
 6549CHOL    R381748   8.184  -4.171  20.128
 6549CHOL    R481749   8.390  -4.111  20.108
 6549CHOL    R581750   8.200  -4.041  20.035
 6549CHOL    C181751   8.224  -3.847  19.897
 6549CHOL    C281752   8.247  -3.652  19.758
 6550CHOL   ROH81753  -5.759  12.797   1.719
 6550CHOL    R181754  -5.616  12.770   1.786
 6550CHOL    R281755  -5.598  12.728   2.015
 6550CHOL    R381756  -5.456  12.739   1.862
 6550CHOL    R481757  -5.473  12.705   2.074
 6550CHOL    R581758  -5.313  12.712   1.929
 6550CHOL    C181759  -5.100  12.671   2.031
 6550CHOL    C281760  -4.886  12.630   2.132
 6551CHOL   ROH81761   3.656  -0.411  -3.158
 6551CHOL    R181762   3.718  -0.318  -3.043
 6551CHOL    R281763   3.737  -0.395  -2.824
 6551CHOL    R381764   3.788  -0.213  -2.915
 6551CHOL    R481765   3.791  -0.313  -2.724
 6551CHOL    R581766   3.850  -0.120  -2.800
 6551CHOL    C181767   3.942   0.019  -2.628
 6551CHOL    C281768   4.035   0.158  -2.456
 6552CHOL   ROH81769  27.239  12.544   6.631
 6552CHOL    R181770  27.083  12.525   6.659
 6552CHOL    R281771  26.927  12.537   6.486
 6552CHOL    R381772  26.907  12.503   6.691
 6552CHOL    R481773  26.790  12.520   6.511
 6552CHOL    R581774  26.751  12.483   6.719
 6552CHOL    C181775  26.516  12.454   6.762
 6552CHOL    C281776  26.282  12.425   6.804
 6553CHOL   ROH81777   2.301  15.039  -5.432
 6553CHOL    R181778   2.371  14.994  -5.295
 6553CHOL    R281779   2.297  15.078  -5.090
 6553CHOL    R381780   2.449  14.944  -5.141
 6553CHOL    R481781   2.358  15.039  -4.970
 6553CHOL    R581782   2.518  14.899  -5.004
 6553CHOL    C181783   2.623  14.833  -4.799
 6553CHOL    C281784   2.727  14.766  -4.593
 6554CHOL   ROH81785  26.951   5.832   6.889
 6554CHOL    R181786  26.797   5.866   6.917
 6554CHOL    R281787  26.706   6.071   6.855
 6554CHOL    R381788  26.624   5.903   6.948
 6554CHOL    R481789  26.571   6.101   6.880
 6554CHOL    R581790  26.470   5.937   6.976
 6554CHOL    C181791  26.239   5.987   7.018
 6554CHOL    C281792  26.008   6.038   7.060
 6555CHOL   ROH81793  -4.120   6.191  20.414
 6555CHOL    R181794  -3.996   6.222  20.318
 6555CHOL    R281795  -3.808   6.335  20.398
 6555CHOL    R381796  -3.856   6.257  20.210
 6555CHOL    R481797  -3.699   6.362  20.314
 6555CHOL    R581798  -3.732   6.289  20.115
 6555CHOL    C181799  -3.546   6.335  19.971
 6555CHOL    C281800  -3.360   6.382  19.827
 6556CHOL   ROH81801  -2.942  22.441   9.816
 6556CHOL    R181802  -2.829  22.328   9.817
 6556CHOL    R281803  -2.669  22.320   9.987
 6556CHOL    R381804  -2.702  22.200   9.819
 6556CHOL    R481805  -2.570  22.221   9.988
 6556CHOL    R581806  -2.589  22.087   9.820
 6556CHOL    C181807  -2.420  21.916   9.823
 6556CHOL    C281808  -2.251  21.746   9.825
 6557CHOL   ROH81809  11.107  13.961  -7.419
 6557CHOL    R181810  11.095  13.924  -7.264
 6557CHOL    R281811  11.241  13.771  -7.165
 6557CHOL    R381812  11.081  13.882  -7.090
 6557CHOL    R481813  11.231  13.739  -7.030
 6557CHOL    R581814  11.069  13.844  -6.934
 6557CHOL    C181815  11.051  13.789  -6.702
 6557CHOL    C281816  11.033  13.733  -6.469
 6558CHOL   ROH81817  26.410  14.934   5.291
 6558CHOL    R181818  26.262  14.887   5.331
 6558CHOL    R281819  26.075  14.981   5.229
 6558CHOL    R381820  26.096  14.835   5.376
 6558CHOL    R481821  25.946  14.941   5.264
 6558CHOL    R581822  25.948  14.788   5.416
 6558CHOL    C181823  25.727  14.718   5.476
 6558CHOL    C281824  25.505  14.648   5.536
 6559CHOL   ROH81825   7.229  -2.727  -2.311
 6559CHOL    R181826   7.254  -2.613  -2.202
 6559CHOL    R281827   7.351  -2.663  -1.995
 6559CHOL    R381828   7.282  -2.485  -2.078
 6559CHOL    R481829   7.373  -2.563  -1.900
 6559CHOL    R581830   7.306  -2.370  -1.969
 6559CHOL    C181831   7.344  -2.199  -1.805
 6559CHOL    C281832   7.381  -2.028  -1.641
 6560CHOL   ROH81833  22.470   4.746  -1.557
 6560CHOL    R181834  22.359   4.797  -1.453
 6560CHOL    R281835  22.132   4.765  -1.495
 6560CHOL    R381836  22.235   4.854  -1.337
 6560CHOL    R481837  22.035   4.809  -1.404
 6560CHOL    R581838  22.124   4.906  -1.233
 6560CHOL    C181839  21.959   4.982  -1.077
 6560CHOL    C281840  21.793   5.059  -0.922
 6561CHOL   ROH81841  -2.610  -0.748   2.902
 6561CHOL    R181842  -2.497  -0.652   2.962
 6561CHOL    R281843  -2.289  -0.736   3.026
 6561CHOL    R381844  -2.370  -0.544   3.030
 6561CHOL    R481845  -2.190  -0.652   3.079
 6561CHOL    R581846  -2.257  -0.448   3.090
 6561CHOL    C181847  -2.088  -0.303   3.180
 6561CHOL    C281848  -1.918  -0.159   3.270
 6562CHOL   ROH81849  11.621  20.548  24.226
 6562CHOL    R181850  11.604  20.453  24.099
 6562CHOL    R281851  11.781  20.417  23.951
 6562CHOL    R381852  11.584  20.346  23.955
 6562CHOL    R481853  11.765  20.334  23.839
 6562CHOL    R581854  11.567  20.251  23.828
 6562CHOL    C181855  11.541  20.108  23.637
 6562CHOL    C281856  11.515  19.965  23.446
 6563CHOL   ROH81857  21.282  -3.622  11.720
 6563CHOL    R181858  21.181  -3.499  11.704
 6563CHOL    R281859  21.209  -3.342  11.534
 6563CHOL    R381860  21.066  -3.361  11.685
 6563CHOL    R481861  21.121  -3.234  11.520
 6563CHOL    R581862  20.965  -3.239  11.669
 6563CHOL    C181863  20.813  -3.054  11.644
 6563CHOL    C281864  20.661  -2.870  11.619
 6564CHOL   ROH81865  -1.816  19.858   0.674
 6564CHOL    R181866  -1.711  19.769   0.756
 6564CHOL    R281867  -1.738  19.731   0.984
 6564CHOL    R381868  -1.593  19.669   0.847
 6564CHOL    R481869  -1.646  19.653   1.056
 6564CHOL    R581870  -1.488  19.580   0.929
 6564CHOL    C181871  -1.331  19.446   1.051
 6564CHOL    C281872  -1.174  19.312   1.174
 6565CHOL   ROH81873  12.351  -3.438  21.294
 6565CHOL    R181874  12.327  -3.319  21.189
 6565CHOL    R281875  12.507  -3.213  21.086
 6565CHOL    R381876  12.301  -3.186  21.072
 6565CHOL    R481877  12.487  -3.110  20.994
 6565CHOL    R581878  12.278  -3.067  20.967
 6565CHOL    C181879  12.242  -2.889  20.810
 6565CHOL    C281880  12.207  -2.711  20.653
 6566CHOL   ROH81881  17.562  -5.715   6.484
 6566CHOL    R181882  17.494  -5.574   6.516
 6566CHOL    R281883  17.623  -5.390   6.580
 6566CHOL    R381884  17.418  -5.414   6.552
 6566CHOL    R481885  17.564  -5.267   6.608
 6566CHOL    R581886  17.350  -5.273   6.584
 6566CHOL    C181887  17.248  -5.061   6.631
 6566CHOL    C281888  17.146  -4.849   6.679
 6567CHOL   ROH81889   3.607  20.848  -2.868
 6567CHOL    R181890   3.661  20.749  -2.754
 6567CHOL    R281891   3.880  20.670  -2.760
 6567CHOL    R381892   3.723  20.638  -2.627
 6567CHOL    R481893   3.928  20.583  -2.660
 6567CHOL    R581894   3.777  20.539  -2.513
 6567CHOL    C181895   3.859  20.391  -2.343
 6567CHOL    C281896   3.940  20.243  -2.172
 6568CHOL   ROH81897   7.883  -7.670   8.551
 6568CHOL    R181898   7.900  -7.511   8.562
 6568CHOL    R281899   8.003  -7.389   8.392
 6568CHOL    R381900   7.919  -7.333   8.575
 6568CHOL    R481901   8.018  -7.250   8.402
 6568CHOL    R581902   7.936  -7.174   8.586
 6568CHOL    C181903   7.962  -6.936   8.604
 6568CHOL    C281904   7.988  -6.698   8.621
 6569CHOL   ROH81905   6.343  25.195  18.637
 6569CHOL    R181906   6.374  25.059  18.560
 6569CHOL    R281907   6.593  24.980  18.538
 6569CHOL    R381908   6.409  24.905  18.473
 6569CHOL    R481909   6.620  24.861  18.470
 6569CHOL    R581910   6.440  24.768  18.396
 6569CHOL    C181911   6.487  24.564  18.280
 6569CHOL    C281912   6.534  24.359  18.164
 6570CHOL   ROH81913  -6.606   3.759  12.682
 6570CHOL    R181914  -6.458   3.814  12.657
 6570CHOL    R281915  -6.338   3.920  12.827
 6570CHOL    R381916  -6.291   3.876  12.628
 6570CHOL    R481917  -6.209   3.968  12.804
 6570CHOL    R581918  -6.143   3.932  12.603
 6570CHOL    C181919  -5.921   4.014  12.564
 6570CHOL    C281920  -5.699   4.097  12.526
 6571CHOL   ROH81921   3.588  22.473  21.027
 6571CHOL    R181922   3.641  22.361  20.926
 6571CHOL    R281923   3.714  22.416  20.712
 6571CHOL    R381924   3.701  22.234  20.813
 6571CHOL    R481925   3.761  22.318  20.624
 6571CHOL    R581926   3.754  22.121  20.713
 6571CHOL    C181927   3.834  21.953  20.562
 6571CHOL    C281928   3.913  21.784  20.411
 6572CHOL   ROH81929  20.629  18.119  -1.783
 6572CHOL    R181930  20.534  18.046  -1.677
 6572CHOL    R281931  20.613  17.869  -1.547
 6572CHOL    R381932  20.427  17.963  -1.558
 6572CHOL    R481933  20.530  17.805  -1.454
 6572CHOL    R581934  20.332  17.890  -1.453
 6572CHOL    C181935  20.189  17.779  -1.294
 6572CHOL    C281936  20.047  17.669  -1.135
 6573CHOL   ROH81937  -1.555  -2.436   3.950
 6573CHOL    R181938  -1.451  -2.326   4.001
 6573CHOL    R281939  -1.331  -2.356   4.199
 6573CHOL    R381940  -1.334  -2.202   4.058
 6573CHOL    R481941  -1.240  -2.259   4.243
 6573CHOL    R581942  -1.229  -2.091   4.109
 6573CHOL    C181943  -1.073  -1.926   4.185
 6573CHOL    C281944  -0.917  -1.761   4.262
 6574CHOL   ROH81945  19.004  25.214   9.279
 6574CHOL    R181946  18.924  25.076   9.284
 6574CHOL    R281947  19.031  24.876   9.341
 6574CHOL    R381948  18.833  24.920   9.289
 6574CHOL    R481949  18.960  24.756   9.345
 6574CHOL    R581950  18.753  24.782   9.294
 6574CHOL    C181951  18.632  24.575   9.301
 6574CHOL    C281952  18.511  24.367   9.308
 6575CHOL   ROH81953   5.247  10.379  -7.311
 6575CHOL    R181954   5.287  10.377  -7.156
 6575CHOL    R281955   5.327  10.575  -7.039
 6575CHOL    R381956   5.332  10.374  -6.982
 6575CHOL    R481957   5.362  10.573  -6.904
 6575CHOL    R581958   5.372  10.372  -6.827
 6575CHOL    C181959   5.433  10.368  -6.595
 6575CHOL    C281960   5.493  10.364  -6.362
 6576CHOL   ROH81961   9.433  24.801   0.018
 6576CHOL    R181962   9.439  24.671   0.110
 6576CHOL    R281963   9.469  24.688   0.341
 6576CHOL    R381964   9.446  24.524   0.215
 6576CHOL    R481965   9.475  24.574   0.422
 6576CHOL    R581966   9.453  24.394   0.307
 6576CHOL    C181967   9.462  24.198   0.446
 6576CHOL    C281968   9.471  24.002   0.584
 6577CHOL   ROH81969   5.641  26.346  15.679
 6577CHOL    R181970   5.680  26.200  15.627
 6577CHOL    R281971   5.759  26.037  15.774
 6577CHOL    R381972   5.725  26.036  15.567
 6577CHOL    R481973   5.793  25.909  15.728
 6577CHOL    R581974   5.764  25.890  15.515
 6577CHOL    C181975   5.823  25.671  15.436
 6577CHOL    C281976   5.882  25.452  15.358
 6578CHOL   ROH81977   2.184  -2.389  -0.309
 6578CHOL    R181978   2.255  -2.282  -0.213
 6578CHOL    R281979   2.282  -2.324   0.014
 6578CHOL    R381980   2.334  -2.161  -0.106
 6578CHOL    R481981   2.344  -2.230   0.098
 6578CHOL    R581982   2.405  -2.054  -0.010
 6578CHOL    C181983   2.510  -1.893   0.134
 6578CHOL    C281984   2.616  -1.732   0.277
 6579CHOL   ROH81985  19.283  15.886  -4.015
 6579CHOL    R181986  19.198  15.832  -3.891
 6579CHOL    R281987  18.990  15.730  -3.923
 6579CHOL    R381988  19.101  15.772  -3.751
 6579CHOL    R481989  18.916  15.683  -3.814
 6579CHOL    R581990  19.016  15.718  -3.627
 6579CHOL    C181991  18.888  15.638  -3.441
 6579CHOL    C281992  18.760  15.558  -3.255
 6580CHOL   ROH81993  14.712  16.804  -5.820
 6580CHOL    R181994  14.671  16.743  -5.678
 6580CHOL    R281995  14.821  16.612  -5.556
 6580CHOL    R381996  14.625  16.673  -5.518
 6580CHOL    R481997  14.785  16.559  -5.432
 6580CHOL    R581998  14.584  16.612  -5.376
 6580CHOL    C181999  14.523  16.520  -5.164
 6580CHOL    C282000  14.461  16.428  -4.951
 6581CHOL   ROH82001  12.682  -7.627  11.043
 6581CHOL    R182002  12.660  -7.469  11.031
 6581CHOL    R282003  12.686  -7.359  10.828
 6581CHOL    R382004  12.635  -7.291  11.019
 6581CHOL    R482005  12.667  -7.220  10.818
 6581CHOL    R582006  12.613  -7.133  11.007
 6581CHOL    C182007  12.579  -6.896  10.990
 6581CHOL    C282008  12.546  -6.659  10.972
 6582CHOL   ROH82009   2.496  24.095   1.912
 6582CHOL    R182010   2.565  23.969   1.983
 6582CHOL    R282011   2.703  23.998   2.169
 6582CHOL    R382012   2.644  23.828   2.062
 6582CHOL    R482013   2.764  23.888   2.231
 6582CHOL    R582014   2.713  23.702   2.133
 6582CHOL    C182015   2.817  23.514   2.239
 6582CHOL    C282016   2.921  23.326   2.345
 6583CHOL   ROH82017  14.754  17.656  -5.412
 6583CHOL    R182018  14.713  17.587  -5.274
 6583CHOL    R282019  14.759  17.362  -5.232
 6583CHOL    R382020  14.666  17.510  -5.118
 6583CHOL    R482021  14.723  17.302  -5.111
 6583CHOL    R582022  14.625  17.441  -4.980
 6583CHOL    C182023  14.562  17.338  -4.772
 6583CHOL    C282024  14.500  17.235  -4.564
 6584CHOL   ROH82025  -7.200  11.392  15.036
 6584CHOL    R182026  -7.047  11.384  14.991
 6584CHOL    R282027  -6.890  11.537  15.071
 6584CHOL    R382028  -6.874  11.374  14.941
 6584CHOL    R482029  -6.755  11.529  15.032
 6584CHOL    R582030  -6.721  11.365  14.896
 6584CHOL    C182031  -6.490  11.353  14.830
 6584CHOL    C282032  -6.260  11.340  14.763
 6585CHOL   ROH82033  11.048  16.127  -6.765
 6585CHOL    R182034  11.036  16.071  -6.615
 6585CHOL    R282035  11.149  15.878  -6.549
 6585CHOL    R382036  11.022  16.009  -6.447
 6585CHOL    R482037  11.138  15.830  -6.418
 6585CHOL    R582038  11.009  15.953  -6.297
 6585CHOL    C182039  10.991  15.870  -6.073
 6585CHOL    C282040  10.973  15.787  -5.849
 6586CHOL   ROH82041   3.713  22.978  20.508
 6586CHOL    R182042   3.766  22.862  20.412
 6586CHOL    R282043   3.953  22.893  20.276
 6586CHOL    R382044   3.825  22.730  20.303
 6586CHOL    R482045   3.999  22.791  20.192
 6586CHOL    R582046   3.878  22.614  20.207
 6586CHOL    C182047   3.956  22.439  20.063
 6586CHOL    C282048   4.035  22.265  19.918
 6587CHOL   ROH82049  -7.155   8.415  15.122
 6587CHOL    R182050  -7.002   8.430  15.078
 6587CHOL    R282051  -6.844   8.270  15.139
 6587CHOL    R382052  -6.830   8.446  15.028
 6587CHOL    R482053  -6.710   8.282  15.100
 6587CHOL    R582054  -6.677   8.461  14.984
 6587CHOL    C182055  -6.447   8.483  14.918
 6587CHOL    C282056  -6.217   8.505  14.852
 6588CHOL   ROH82057  -3.735  13.387  -1.233
 6588CHOL    R182058  -3.616  13.360  -1.130
 6588CHOL    R282059  -3.656  13.263  -0.922
 6588CHOL    R382060  -3.481  13.331  -1.014
 6588CHOL    R482061  -3.552  13.240  -0.831
 6588CHOL    R582062  -3.362  13.304  -0.910
 6588CHOL    C182063  -3.183  13.264  -0.756
 6588CHOL    C282064  -3.004  13.224  -0.601
 6589CHOL   ROH82065  -1.678   6.553  23.083
 6589CHOL    R182066  -1.577   6.588  22.964
 6589CHOL    R282067  -1.349   6.617  23.006
 6589CHOL    R382068  -1.462   6.626  22.831
 6589CHOL    R482069  -1.260   6.648  22.902
 6589CHOL    R582070  -1.361   6.661  22.712
 6589CHOL    C182071  -1.209   6.713  22.534
 6589CHOL    C282072  -1.057   6.765  22.356
 6590CHOL   ROH82073  17.903  25.619  13.078
 6590CHOL    R182074  17.833  25.476  13.058
 6590CHOL    R282075  17.939  25.308  12.936
 6590CHOL    R382076  17.755  25.316  13.034
 6590CHOL    R482077  17.877  25.183  12.918
 6590CHOL    R582078  17.685  25.174  13.014
 6590CHOL    C182079  17.580  24.960  12.983
 6590CHOL    C282080  17.476  24.746  12.953
 6591CHOL   ROH82081  13.993  -7.317   8.046
 6591CHOL    R182082  13.952  -7.163   8.064
 6591CHOL    R282083  14.008  -7.046   8.257
 6591CHOL    R382084  13.906  -6.991   8.084
 6591CHOL    R482085  13.972  -6.911   8.273
 6591CHOL    R582086  13.864  -6.837   8.101
 6591CHOL    C182087  13.803  -6.607   8.128
 6591CHOL    C282088  13.741  -6.376   8.155
 6592CHOL   ROH82089  10.758   2.384  -6.184
 6592CHOL    R182090  10.751   2.451  -6.039
 6592CHOL    R282091  10.916   2.600  -5.968
 6592CHOL    R382092  10.744   2.526  -5.875
 6592CHOL    R482093  10.910   2.659  -5.841
 6592CHOL    R582094  10.737   2.593  -5.730
 6592CHOL    C182095  10.728   2.693  -5.512
 6592CHOL    C282096  10.718   2.793  -5.294
 6593CHOL   ROH82097  18.746  -1.698  -0.260
 6593CHOL    R182098  18.667  -1.593  -0.169
 6593CHOL    R282099  18.510  -1.448  -0.263
 6593CHOL    R382100  18.578  -1.474  -0.068
 6593CHOL    R482101  18.440  -1.356  -0.184
 6593CHOL    R582102  18.498  -1.368   0.023
 6593CHOL    C182103  18.380  -1.210   0.159
 6593CHOL    C282104  18.261  -1.052   0.295
 6594CHOL   ROH82105  18.471  12.842  25.324
 6594CHOL    R182106  18.387  12.814  25.191
 6594CHOL    R282107  18.433  12.628  25.057
 6594CHOL    R382108  18.292  12.781  25.041
 6594CHOL    R482109  18.359  12.603  24.941
 6594CHOL    R582110  18.208  12.753  24.908
 6594CHOL    C182111  18.082  12.710  24.708
 6594CHOL    C282112  17.956  12.668  24.509
 6595CHOL   ROH82113  13.398  -7.528   8.821
 6595CHOL    R182114  13.365  -7.372   8.831
 6595CHOL    R282115  13.411  -7.251   9.025
 6595CHOL    R382116  13.329  -7.196   8.841
 6595CHOL    R482117  13.382  -7.114   9.033
 6595CHOL    R582118  13.296  -7.040   8.851
 6595CHOL    C182119  13.247  -6.805   8.865
 6595CHOL    C282120  13.198  -6.571   8.880
 6596CHOL   ROH82121   7.784  27.351  13.681
 6596CHOL    R182122   7.801  27.195  13.647
 6596CHOL    R282123   7.961  27.065  13.756
 6596CHOL    R382124   7.819  27.021  13.609
 6596CHOL    R482125   7.975  26.929  13.726
 6596CHOL    R582126   7.836  26.865  13.575
 6596CHOL    C182127   7.861  26.632  13.523
 6596CHOL    C282128   7.886  26.398  13.472
 6597CHOL   ROH82129  26.984  15.085   9.933
 6597CHOL    R182130  26.832  15.037   9.934
 6597CHOL    R282131  26.748  14.900   9.764
 6597CHOL    R382132  26.660  14.982   9.935
 6597CHOL    R482133  26.614  14.858   9.765
 6597CHOL    R582134  26.507  14.933   9.936
 6597CHOL    C182135  26.279  14.861   9.937
 6597CHOL    C282136  26.050  14.788   9.939
 6598CHOL   ROH82137  16.161   3.577  -5.500
 6598CHOL    R182138  16.103   3.629  -5.360
 6598CHOL    R282139  16.146   3.845  -5.285
 6598CHOL    R382140  16.037   3.687  -5.203
 6598CHOL    R482141  16.095   3.890  -5.162
 6598CHOL    R582142  15.978   3.739  -5.063
 6598CHOL    C182143  15.891   3.816  -4.854
 6598CHOL    C282144  15.803   3.894  -4.644
 6599CHOL   ROH82145  -7.541  12.402  13.296
 6599CHOL    R182146  -7.385  12.382  13.264
 6599CHOL    R282147  -7.224  12.420  13.428
 6599CHOL    R382148  -7.210  12.361  13.229
 6599CHOL    R482149  -7.088  12.403  13.401
 6599CHOL    R582150  -7.054  12.341  13.197
 6599CHOL    C182151  -6.821  12.312  13.149
 6599CHOL    C282152  -6.587  12.282  13.102
 6600CHOL   ROH82153   3.824   7.763  -6.742
 6600CHOL    R182154   3.877   7.782  -6.592
 6600CHOL    R282155   3.878   7.604  -6.442
 6600CHOL    R382156   3.938   7.803  -6.424
 6600CHOL    R482157   3.924   7.620  -6.311
 6600CHOL    R582158   3.991   7.821  -6.275
 6600CHOL    C182159   4.071   7.850  -6.050
 6600CHOL    C282160   4.151   7.878  -5.826
 6601CHOL   ROH82161  22.114   0.260  18.616
 6601CHOL    R182162  22.009   0.348  18.533
 6601CHOL    R282163  22.081   0.529  18.405
 6601CHOL    R382164  21.892   0.448  18.441
 6601CHOL    R482165  21.989   0.607  18.332
 6601CHOL    R582166  21.787   0.537  18.358
 6601CHOL    C182167  21.630   0.669  18.234
 6601CHOL    C282168  21.473   0.802  18.110
 6602CHOL   ROH82169  18.071   1.813  -3.699
 6602CHOL    R182170  17.994   1.883  -3.578
 6602CHOL    R282171  17.764   1.919  -3.586
 6602CHOL    R382172  17.907   1.962  -3.441
 6602CHOL    R482173  17.696   1.980  -3.480
 6602CHOL    R582174  17.831   2.033  -3.320
 6602CHOL    C182175  17.715   2.138  -3.138
 6602CHOL    C282176  17.600   2.243  -2.956
 6603CHOL   ROH82177  20.168  23.731   4.846
 6603CHOL    R182178  20.076  23.608   4.891
 6603CHOL    R282179  20.141  23.468   5.066
 6603CHOL    R382180  19.972  23.470   4.943
 6603CHOL    R482181  20.060  23.360   5.106
 6603CHOL    R582182  19.880  23.348   4.988
 6603CHOL    C182183  19.742  23.163   5.056
 6603CHOL    C282184  19.604  22.979   5.124
 6604CHOL   ROH82185   7.059  24.975   0.698
 6604CHOL    R182186   7.084  24.843   0.785
 6604CHOL    R282187   7.235  24.843   0.962
 6604CHOL    R382188   7.113  24.694   0.882
 6604CHOL    R482189   7.257  24.727   1.038
 6604CHOL    R582190   7.138  24.562   0.969
 6604CHOL    C182191   7.176  24.364   1.098
 6604CHOL    C282192   7.214  24.166   1.228
 6605CHOL   ROH82193   5.507  20.107  -4.173
 6605CHOL    R182194   5.544  20.016  -4.047
 6605CHOL    R282195   5.751  19.908  -4.034
 6605CHOL    R382196   5.587  19.913  -3.905
 6605CHOL    R482197   5.783  19.828  -3.924
 6605CHOL    R582198   5.624  19.822  -3.780
 6605CHOL    C182199   5.680  19.684  -3.591
 6605CHOL    C282200   5.736  19.547  -3.402
 6606CHOL   ROH82201  -2.690  20.992   3.571
 6606CHOL    R182202  -2.580  20.891   3.629
 6606CHOL    R282203  -2.573  20.840   3.856
 6606CHOL    R382204  -2.456  20.778   3.694
 6606CHOL    R482205  -2.477  20.752   3.907
 6606CHOL    R582206  -2.346  20.678   3.753
 6606CHOL    C182207  -2.182  20.527   3.840
 6606CHOL    C282208  -2.017  20.376   3.927
 6607CHOL   ROH82209  -3.820  17.680  18.491
 6607CHOL    R182210  -3.699  17.609  18.415
 6607CHOL    R282211  -3.500  17.723  18.372
 6607CHOL    R382212  -3.562  17.528  18.330
 6607CHOL    R482213  -3.394  17.661  18.306
 6607CHOL    R582214  -3.440  17.457  18.254
 6607CHOL    C182215  -3.258  17.350  18.140
 6607CHOL    C282216  -3.076  17.243  18.026
 6608CHOL   ROH82217   1.592   9.554  25.813
 6608CHOL    R182218   1.663   9.555  25.669
 6608CHOL    R282219   1.749   9.752  25.580
 6608CHOL    R382220   1.742   9.556  25.508
 6608CHOL    R482221   1.811   9.753  25.454
 6608CHOL    R582222   1.812   9.557  25.364
 6608CHOL    C182223   1.918   9.559  25.149
 6608CHOL    C282224   2.024   9.561  24.934
 6609CHOL   ROH82225   7.453  -6.388   3.267
 6609CHOL    R182226   7.474  -6.241   3.327
 6609CHOL    R282227   7.671  -6.185   3.439
 6609CHOL    R382228   7.499  -6.077   3.396
 6609CHOL    R482229   7.690  -6.057   3.492
 6609CHOL    R582230   7.520  -5.930   3.456
 6609CHOL    C182231   7.552  -5.710   3.547
 6609CHOL    C282232   7.584  -5.490   3.637
 6610CHOL   ROH82233  -4.104   3.242   0.927
 6610CHOL    R182234  -3.980   3.301   1.009
 6610CHOL    R282235  -3.805   3.164   1.079
 6610CHOL    R382236  -3.841   3.368   1.102
 6610CHOL    R482237  -3.697   3.216   1.150
 6610CHOL    R582238  -3.717   3.428   1.184
 6610CHOL    C182239  -3.531   3.517   1.307
 6610CHOL    C282240  -3.345   3.606   1.431
 6611CHOL   ROH82241  11.394  -4.331  -0.639
 6611CHOL    R182242  11.380  -4.202  -0.545
 6611CHOL    R282243  11.439  -3.990  -0.623
 6611CHOL    R382244  11.365  -4.057  -0.440
 6611CHOL    R482245  11.428  -3.877  -0.541
 6611CHOL    R582246  11.352  -3.928  -0.346
 6611CHOL    C182247  11.331  -3.735  -0.205
 6611CHOL    C282248  11.311  -3.541  -0.065
 6612CHOL   ROH82249  -7.267   8.523  14.754
 6612CHOL    R182250  -7.113   8.537  14.713
 6612CHOL    R282251  -6.943   8.481  14.863
 6612CHOL    R382252  -6.940   8.553  14.667
 6612CHOL    R482253  -6.808   8.493  14.827
 6612CHOL    R582254  -6.786   8.567  14.626
 6612CHOL    C182255  -6.554   8.587  14.564
 6612CHOL    C282256  -6.323   8.608  14.502
 6613CHOL   ROH82257  17.370  16.158  24.910
 6613CHOL    R182258  17.300  16.102  24.777
 6613CHOL    R282259  17.275  16.238  24.589
 6613CHOL    R382260  17.221  16.040  24.628
 6613CHOL    R482261  17.214  16.189  24.473
 6613CHOL    R582262  17.150  15.985  24.495
 6613CHOL    C182263  17.045  15.901  24.297
 6613CHOL    C282264  16.940  15.818  24.098
 6614CHOL   ROH82265   9.274  12.808  27.546
 6614CHOL    R182266   9.283  12.783  27.388
 6614CHOL    R282267   9.309  12.961  27.240
 6614CHOL    R382268   9.292  12.755  27.211
 6614CHOL    R482269   9.317  12.940  27.102
 6614CHOL    R582270   9.301  12.730  27.053
 6614CHOL    C182271   9.314  12.693  26.816
 6614CHOL    C282272   9.327  12.656  26.580
 6615CHOL   ROH82273  -3.644   1.054   2.260
 6615CHOL    R182274  -3.524   1.136   2.326
 6615CHOL    R282275  -3.337   1.026   2.414
 6615CHOL    R382276  -3.388   1.228   2.400
 6615CHOL    R482277  -3.232   1.098   2.472
 6615CHOL    R582278  -3.268   1.310   2.466
 6615CHOL    C182279  -3.087   1.434   2.566
 6615CHOL    C282280  -2.906   1.557   2.665
 6616CHOL   ROH82281  26.714   7.864  15.526
 6616CHOL    R182282  26.563   7.885  15.476
 6616CHOL    R282283  26.455   7.721  15.350
 6616CHOL    R382284  26.394   7.908  15.420
 6616CHOL    R482285  26.323   7.739  15.306
 6616CHOL    R582286  26.244   7.929  15.370
 6616CHOL    C182287  26.018   7.960  15.294
 6616CHOL    C282288  25.792   7.991  15.219
 6617CHOL   ROH82289   0.496  21.471  19.949
 6617CHOL    R182290   0.580  21.369  19.859
 6617CHOL    R282291   0.614  21.149  19.926
 6617CHOL    R382292   0.674  21.255  19.757
 6617CHOL    R482293   0.687  21.059  19.847
 6617CHOL    R582294   0.758  21.153  19.666
 6617CHOL    C182295   0.884  21.000  19.531
 6617CHOL    C282296   1.010  20.848  19.395
 6618CHOL   ROH82297  25.719   2.008   8.282
 6618CHOL    R182298  25.578   2.081   8.298
 6618CHOL    R282299  25.390   2.008   8.181
 6618CHOL    R382300  25.419   2.164   8.317
 6618CHOL    R482301  25.267   2.072   8.195
 6618CHOL    R582302  25.277   2.237   8.334
 6618CHOL    C182303  25.066   2.347   8.358
 6618CHOL    C282304  24.854   2.457   8.383
 6619CHOL   ROH82305   7.077   1.271  -5.457
 6619CHOL    R182306   7.099   1.347  -5.318
 6619CHOL    R282307   7.295   1.320  -5.195
 6619CHOL    R382308   7.123   1.434  -5.162
 6619CHOL    R482309   7.314   1.387  -5.074
 6619CHOL    R582310   7.145   1.510  -5.023
 6619CHOL    C182311   7.178   1.625  -4.815
 6619CHOL    C282312   7.210   1.739  -4.606
 6620CHOL   ROH82313   4.747  26.706   6.056
 6620CHOL    R182314   4.794  26.557   6.089
 6620CHOL    R282315   4.838  26.491   6.309
 6620CHOL    R382316   4.847  26.389   6.127
 6620CHOL    R482317   4.879  26.360   6.338
 6620CHOL    R582318   4.894  26.239   6.161
 6620CHOL    C182319   4.965  26.016   6.211
 6620CHOL    C282320   5.035  25.792   6.261
 6621CHOL   ROH82321  11.279   6.453  -7.505
 6621CHOL    R182322  11.271   6.489  -7.349
 6621CHOL    R282323  11.358   6.689  -7.267
 6621CHOL    R382324  11.261   6.528  -7.174
 6621CHOL    R482325  11.351   6.720  -7.131
 6621CHOL    R582326  11.253   6.564  -7.018
 6621CHOL    C182327  11.241   6.617  -6.784
 6621CHOL    C282328  11.228   6.671  -6.550
 6622CHOL   ROH82329  -6.331   4.094   5.237
 6622CHOL    R182330  -6.186   4.152   5.273
 6622CHOL    R282331  -6.161   4.318   5.435
 6622CHOL    R382332  -6.024   4.217   5.314
 6622CHOL    R482333  -6.034   4.369   5.467
 6622CHOL    R582334  -5.879   4.275   5.351
 6622CHOL    C182335  -5.662   4.361   5.405
 6622CHOL    C282336  -5.445   4.448   5.459
 6623CHOL   ROH82337   2.745  26.295  11.531
 6623CHOL    R182338   2.809  26.149  11.517
 6623CHOL    R282339   2.982  26.108  11.366
 6623CHOL    R382340   2.881  25.985  11.500
 6623CHOL    R482341   3.038  25.981  11.353
 6623CHOL    R582342   2.945  25.839  11.486
 6623CHOL    C182343   3.041  25.620  11.464
 6623CHOL    C282344   3.137  25.401  11.443
 6624CHOL   ROH82345  15.822  26.781   9.947
 6624CHOL    R182346  15.764  26.632   9.949
 6624CHOL    R282347  15.832  26.475   9.790
 6624CHOL    R382348  15.699  26.464   9.950
 6624CHOL    R482349  15.781  26.344   9.791
 6624CHOL    R582350  15.641  26.315   9.952
 6624CHOL    C182351  15.553  26.091   9.954
 6624CHOL    C282352  15.466  25.868   9.957
 6625CHOL   ROH82353  -5.512   0.994  11.225
 6625CHOL    R182354  -5.373   1.073  11.212
 6625CHOL    R282355  -5.170   0.959  11.211
 6625CHOL    R382356  -5.218   1.162  11.198
 6625CHOL    R482357  -5.049   1.028  11.200
 6625CHOL    R582358  -5.079   1.241  11.185
 6625CHOL    C182359  -4.871   1.360  11.166
 6625CHOL    C282360  -4.663   1.478  11.147
 6626CHOL   ROH82361  18.247  23.233   1.457
 6626CHOL    R182362  18.170  23.117   1.536
 6626CHOL    R282363  18.012  22.984   1.428
 6626CHOL    R382364  18.084  22.986   1.624
 6626CHOL    R482365  17.944  22.882   1.497
 6626CHOL    R582366  18.007  22.870   1.703
 6626CHOL    C182367  17.892  22.695   1.820
 6626CHOL    C282368  17.777  22.521   1.938
 6627CHOL   ROH82369  24.610   6.209  19.141
 6627CHOL    R182370  24.478   6.242  19.057
 6627CHOL    R282371  24.466   6.194  18.829
 6627CHOL    R382372  24.330   6.280  18.962
 6627CHOL    R482373  24.351   6.223  18.755
 6627CHOL    R582374  24.198   6.313  18.878
 6627CHOL    C182375  24.000   6.364  18.751
 6627CHOL    C282376  23.802   6.414  18.625
 6628CHOL   ROH82377  -5.248  16.781  16.676
 6628CHOL    R182378  -5.114  16.719  16.614
 6628CHOL    R282379  -4.969  16.592  16.746
 6628CHOL    R382380  -4.963  16.649  16.545
 6628CHOL    R482381  -4.852  16.538  16.692
 6628CHOL    R582382  -4.829  16.587  16.483
 6628CHOL    C182383  -4.629  16.494  16.391
 6628CHOL    C282384  -4.428  16.401  16.299
 6629CHOL   ROH82385  12.758  26.166   3.115
 6629CHOL    R182386  12.728  26.021   3.175
 6629CHOL    R282387  12.873  25.842   3.134
 6629CHOL    R382388  12.695  25.857   3.242
 6629CHOL    R482389  12.847  25.715   3.186
 6629CHOL    R582390  12.665  25.711   3.302
 6629CHOL    C182391  12.621  25.493   3.392
 6629CHOL    C282392  12.577  25.275   3.482
 6630CHOL   ROH82393  17.083  -6.333  10.119
 6630CHOL    R182394  17.017  -6.187  10.117
 6630CHOL    R282395  17.138  -6.002  10.046
 6630CHOL    R382396  16.943  -6.023  10.116
 6630CHOL    R482397  17.081  -5.874  10.044
 6630CHOL    R582398  16.877  -5.878  10.114
 6630CHOL    C182399  16.778  -5.659  10.112
 6630CHOL    C282400  16.679  -5.440  10.109
 6631CHOL   ROH82401   1.754  21.951  20.452
 6631CHOL    R182402   1.825  21.844  20.356
 6631CHOL    R282403   1.958  21.674  20.444
 6631CHOL    R382404   1.904  21.724  20.249
 6631CHOL    R482405   2.020  21.581  20.361
 6631CHOL    R582406   1.975  21.617  20.153
 6631CHOL    C182407   2.081  21.456  20.009
 6631CHOL    C282408   2.187  21.295  19.866
 6632CHOL   ROH82409  24.589  18.269  15.757
 6632CHOL    R182410  24.458  18.191  15.708
 6632CHOL    R282411  24.448  18.095  15.495
 6632CHOL    R382412  24.311  18.103  15.653
 6632CHOL    R482413  24.334  18.027  15.452
 6632CHOL    R582414  24.181  18.025  15.603
 6632CHOL    C182415  23.984  17.907  15.530
 6632CHOL    C282416  23.788  17.790  15.456
 6633CHOL   ROH82417   7.811   2.669  26.003
 6633CHOL    R182418   7.832   2.732  25.857
 6633CHOL    R282419   7.859   2.595  25.670
 6633CHOL    R382420   7.855   2.803  25.694
 6633CHOL    R482421   7.877   2.650  25.543
 6633CHOL    R582422   7.876   2.865  25.548
 6633CHOL    C182423   7.907   2.960  25.330
 6633CHOL    C282424   7.938   3.054  25.111
 6634CHOL   ROH82425  22.411  -2.641   8.470
 6634CHOL    R182426  22.298  -2.529   8.483
 6634CHOL    R282427  22.339  -2.329   8.595
 6634CHOL    R382428  22.170  -2.403   8.498
 6634CHOL    R482429  22.240  -2.230   8.607
 6634CHOL    R582430  22.056  -2.291   8.511
 6634CHOL    C182431  21.886  -2.122   8.531
 6634CHOL    C282432  21.716  -1.954   8.550
 6635CHOL   ROH82433  -7.501  13.433   7.747
 6635CHOL    R182434  -7.346  13.404   7.771
 6635CHOL    R282435  -7.246  13.448   7.977
 6635CHOL    R382436  -7.171  13.370   7.798
 6635CHOL    R482437  -7.110  13.422   7.998
 6635CHOL    R582438  -7.015  13.341   7.822
 6635CHOL    C182439  -6.782  13.297   7.858
 6635CHOL    C282440  -6.549  13.253   7.894
 6636CHOL   ROH82441  -4.954   0.347  12.478
 6636CHOL    R182442  -4.820   0.431  12.454
 6636CHOL    R282443  -4.630   0.331  12.363
 6636CHOL    R382444  -4.670   0.526  12.426
 6636CHOL    R482445  -4.513   0.405  12.341
 6636CHOL    R582446  -4.536   0.610  12.401
 6636CHOL    C182447  -4.335   0.737  12.365
 6636CHOL    C282448  -4.135   0.863  12.328
 6637CHOL   ROH82449  24.638  12.174   0.217
 6637CHOL    R182450  24.507  12.156   0.307
 6637CHOL    R282451  24.306  12.258   0.247
 6637CHOL    R382452  24.359  12.136   0.408
 6637CHOL    R482453  24.191  12.242   0.326
 6637CHOL    R582454  24.228  12.119   0.498
 6637CHOL    C182455  24.031  12.092   0.633
 6637CHOL    C282456  23.834  12.065   0.768
 6638CHOL   ROH82457   7.395   4.225  26.561
 6638CHOL    R182458   7.419   4.279  26.412
 6638CHOL    R282459   7.607   4.406  26.360
 6638CHOL    R382460   7.446   4.340  26.245
 6638CHOL    R482461   7.628   4.454  26.230
 6638CHOL    R582462   7.470   4.394  26.096
 6638CHOL    C182463   7.506   4.475  25.874
 6638CHOL    C282464   7.542   4.556  25.651
 6639CHOL   ROH82465  23.977  19.373   4.480
 6639CHOL    R182466  23.849  19.287   4.523
 6639CHOL    R282467  23.728  19.164   4.366
 6639CHOL    R382468  23.705  19.190   4.572
 6639CHOL    R482469  23.616  19.089   4.404
 6639CHOL    R582470  23.578  19.104   4.615
 6639CHOL    C182471  23.386  18.976   4.681
 6639CHOL    C282472  23.194  18.847   4.746
 6640CHOL   ROH82473  18.873  14.544  24.577
 6640CHOL    R182474  18.784  14.502  24.451
 6640CHOL    R282475  18.884  14.449  24.246
 6640CHOL    R382476  18.684  14.455  24.308
 6640CHOL    R482477  18.806  14.412  24.136
 6640CHOL    R582478  18.595  14.413  24.182
 6640CHOL    C182479  18.462  14.350  23.992
 6640CHOL    C282480  18.329  14.287  23.803
 6641CHOL   ROH82481  16.851   8.436  -6.365
 6641CHOL    R182482  16.787   8.453  -6.219
 6641CHOL    R282483  16.567   8.389  -6.177
 6641CHOL    R382484  16.715   8.472  -6.056
 6641CHOL    R482485  16.511   8.404  -6.050
 6641CHOL    R582486  16.651   8.490  -5.910
 6641CHOL    C182487  16.555   8.515  -5.692
 6641CHOL    C282488  16.459   8.541  -5.473
 6642CHOL   ROH82489  27.056  14.842   9.699
 6642CHOL    R182490  26.903  14.796   9.702
 6642CHOL    R282491  26.817  14.654   9.538
 6642CHOL    R382492  26.730  14.744   9.705
 6642CHOL    R482493  26.683  14.613   9.540
 6642CHOL    R582494  26.577  14.699   9.707
 6642CHOL    C182495  26.347  14.630   9.712
 6642CHOL    C282496  26.117  14.561   9.716
 6643CHOL   ROH82497  17.359   3.447  -4.890
 6643CHOL    R182498  17.290   3.501  -4.756
 6643CHOL    R282499  17.351   3.707  -4.664
 6643CHOL    R382500  17.211   3.562  -4.606
 6643CHOL    R482501  17.290   3.754  -4.547
 6643CHOL    R582502  17.142   3.616  -4.472
 6643CHOL    C182503  17.038   3.698  -4.272
 6643CHOL    C282504  16.934   3.779  -4.072
 6644CHOL   ROH82505  19.178  18.541  22.494
 6644CHOL    R182506  19.092  18.469  22.380
 6644CHOL    R282507  19.194  18.333  22.221
 6644CHOL    R382508  18.995  18.389  22.251
 6644CHOL    R482509  19.119  18.270  22.121
 6644CHOL    R582510  18.909  18.317  22.136
 6644CHOL    C182511  18.781  18.210  21.965
 6644CHOL    C282512  18.652  18.103  21.793
 6645CHOL   ROH82513  -0.879   7.538  23.981
 6645CHOL    R182514  -0.782   7.564  23.857
 6645CHOL    R282515  -0.562   7.637  23.889
 6645CHOL    R382516  -0.672   7.593  23.717
 6645CHOL    R482517  -0.477   7.659  23.780
 6645CHOL    R582518  -0.575   7.619  23.592
 6645CHOL    C182519  -0.428   7.657  23.406
 6645CHOL    C282520  -0.282   7.696  23.220
 6646CHOL   ROH82521   1.875   1.379  23.390
 6646CHOL    R182522   1.953   1.453  23.271
 6646CHOL    R282523   2.062   1.656  23.308
 6646CHOL    R382524   2.041   1.535  23.138
 6646CHOL    R482525   2.131   1.720  23.204
 6646CHOL    R582526   2.120   1.609  23.020
 6646CHOL    C182527   2.237   1.719  22.842
 6646CHOL    C282528   2.354   1.830  22.664
 6647CHOL   ROH82529   5.274  17.643  -5.534
 6647CHOL    R182530   5.316  17.576  -5.395
 6647CHOL    R282531   5.375  17.707  -5.211
 6647CHOL    R382532   5.363  17.501  -5.239
 6647CHOL    R482533   5.411  17.649  -5.090
 6647CHOL    R582534   5.405  17.434  -5.100
 6647CHOL    C182535   5.468  17.333  -4.891
 6647CHOL    C282536   5.531  17.232  -4.682
 6648CHOL   ROH82537  23.075  17.852  19.069
 6648CHOL    R182538  22.960  17.779  18.985
 6648CHOL    R282539  23.013  17.614  18.829
 6648CHOL    R382540  22.831  17.697  18.889
 6648CHOL    R482541  22.912  17.550  18.755
 6648CHOL    R582542  22.717  17.625  18.805
 6648CHOL    C182543  22.544  17.515  18.678
 6648CHOL    C282544  22.372  17.406  18.552
 6649CHOL   ROH82545  26.151   9.233   2.664
 6649CHOL    R182546  26.005   9.239   2.730
 6649CHOL    R282547  25.866   9.423   2.695
 6649CHOL    R382548  25.842   9.247   2.804
 6649CHOL    R482549  25.738   9.429   2.753
 6649CHOL    R582550  25.696   9.253   2.870
 6649CHOL    C182551  25.478   9.263   2.969
 6649CHOL    C282552  25.259   9.272   3.068
 6650CHOL   ROH82553  19.866  12.186  -4.679
 6650CHOL    R182554  19.778  12.168  -4.547
 6650CHOL    R282555  19.622  12.329  -4.483
 6650CHOL    R382556  19.679  12.148  -4.398
 6650CHOL    R482557  19.545  12.314  -4.368
 6650CHOL    R582558  19.591  12.130  -4.265
 6650CHOL    C182559  19.458  12.102  -4.067
 6650CHOL    C282560  19.326  12.075  -3.869
 6651CHOL   ROH82561  23.384  -0.977   5.996
 6651CHOL    R182562  23.262  -0.879   6.030
 6651CHOL    R282563  23.172  -0.738   5.868
 6651CHOL    R382564  23.125  -0.770   6.069
 6651CHOL    R482565  23.065  -0.653   5.898
 6651CHOL    R582566  23.002  -0.672   6.103
 6651CHOL    C182567  22.819  -0.526   6.155
 6651CHOL    C282568  22.636  -0.379   6.207
 6652CHOL   ROH82569  26.475   8.160  16.295
 6652CHOL    R182570  26.327   8.179  16.237
 6652CHOL    R282571  26.228   8.014  16.105
 6652CHOL    R382572  26.161   8.200  16.171
 6652CHOL    R482573  26.099   8.030  16.054
 6652CHOL    R582574  26.013   8.219  16.113
 6652CHOL    C182575  25.791   8.247  16.026
 6652CHOL    C282576  25.569   8.276  15.938
 6653CHOL   ROH82577  11.043  -1.523  23.488
 6653CHOL    R182578  11.027  -1.417  23.370
 6653CHOL    R282579  11.032  -1.187  23.413
 6653CHOL    R382580  11.009  -1.297  23.236
 6653CHOL    R482581  11.018  -1.094  23.309
 6653CHOL    R582582  10.993  -1.190  23.118
 6653CHOL    C182583  10.968  -1.031  22.940
 6653CHOL    C282584  10.944  -0.871  22.763
 6654CHOL   ROH82585   7.525   4.870  -6.988
 6654CHOL    R182586   7.542   4.915  -6.836
 6654CHOL    R282587   7.434   4.800  -6.664
 6654CHOL    R382588   7.561   4.966  -6.664
 6654CHOL    R482589   7.449   4.840  -6.530
 6654CHOL    R582590   7.578   5.012  -6.511
 6654CHOL    C182591   7.603   5.079  -6.283
 6654CHOL    C282592   7.629   5.147  -6.054
 6655CHOL   ROH82593  15.900  21.196  22.489
 6655CHOL    R182594  15.847  21.096  22.376
 6655CHOL    R282595  15.980  21.040  22.193
 6655CHOL    R382596  15.787  20.983  22.250
 6655CHOL    R482597  15.933  20.952  22.094
 6655CHOL    R582598  15.733  20.882  22.137
 6655CHOL    C182599  15.654  20.732  21.968
 6655CHOL    C282600  15.574  20.582  21.799
 6656CHOL   ROH82601   7.598  -2.005  -3.098
 6656CHOL    R182602   7.619  -1.897  -2.982
 6656CHOL    R282603   7.705  -1.685  -3.031
 6656CHOL    R382604   7.644  -1.774  -2.852
 6656CHOL    R482605   7.723  -1.590  -2.929
 6656CHOL    R582606   7.665  -1.666  -2.736
 6656CHOL    C182607   7.697  -1.503  -2.563
 6656CHOL    C282608   7.729  -1.341  -2.389
 6657CHOL   ROH82609  -6.189  13.169   2.858
 6657CHOL    R182610  -6.044  13.139   2.918
 6657CHOL    R282611  -5.998  13.170   3.144
 6657CHOL    R382612  -5.880  13.105   2.985
 6657CHOL    R482613  -5.871  13.143   3.197
 6657CHOL    R582614  -5.735  13.074   3.044
 6657CHOL    C182615  -5.517  13.029   3.134
 6657CHOL    C282616  -5.299  12.984   3.224
 6658CHOL   ROH82617   6.419  -3.916  20.620
 6658CHOL    R182618   6.450  -3.792  20.524
 6658CHOL    R282619   6.586  -3.616  20.595
 6658CHOL    R382620   6.485  -3.653  20.415
 6658CHOL    R482621   6.613  -3.507  20.510
 6658CHOL    R582622   6.516  -3.529  20.319
 6658CHOL    C182623   6.563  -3.343  20.175
 6658CHOL    C282624   6.609  -3.157  20.030
 6659CHOL   ROH82625  27.157  12.847   6.417
 6659CHOL    R182626  27.002  12.824   6.447
 6659CHOL    R282627  26.841  12.854   6.281
 6659CHOL    R382628  26.827  12.798   6.481
 6659CHOL    R482629  26.705  12.833   6.307
 6659CHOL    R582630  26.672  12.774   6.512
 6659CHOL    C182631  26.438  12.740   6.557
 6659CHOL    C282632  26.205  12.705   6.602
 6660CHOL   ROH82633   0.513   5.601  -4.663
 6660CHOL    R182634   0.599   5.641  -4.535
 6660CHOL    R282635   0.512   5.783  -4.371
 6660CHOL    R382636   0.697   5.687  -4.390
 6660CHOL    R482637   0.588   5.819  -4.259
 6660CHOL    R582638   0.783   5.727  -4.261
 6660CHOL    C182639   0.913   5.788  -4.069
 6660CHOL    C282640   1.042   5.849  -3.876
 6661CHOL   ROH82641  19.392   0.101  21.309
 6661CHOL    R182642  19.306   0.190  21.208
 6661CHOL    R282643  19.409   0.328  21.051
 6661CHOL    R382644  19.208   0.290  21.094
 6661CHOL    R482645  19.333   0.406  20.963
 6661CHOL    R582646  19.122   0.379  20.994
 6661CHOL    C182647  18.992   0.513  20.842
 6661CHOL    C282648  18.863   0.647  20.691
 6662CHOL   ROH82649  11.934  19.075  -5.276
 6662CHOL    R182650  11.914  18.995  -5.139
 6662CHOL    R282651  12.097  18.916  -5.018
 6662CHOL    R382652  11.892  18.904  -4.985
 6662CHOL    R482653  12.080  18.846  -4.898
 6662CHOL    R582654  11.872  18.824  -4.848
 6662CHOL    C182655  11.842  18.704  -4.643
 6662CHOL    C282656  11.812  18.583  -4.437
 6663CHOL   ROH82657  -0.078  19.430  21.341
 6663CHOL    R182658   0.012  19.348  21.237
 6663CHOL    R282659   0.244  19.373  21.233
 6663CHOL    R382660   0.113  19.257  21.119
 6663CHOL    R482661   0.322  19.302  21.141
 6663CHOL    R582662   0.203  19.175  21.015
 6663CHOL    C182663   0.337  19.053  20.859
 6663CHOL    C282664   0.472  18.930  20.702
 6664CHOL   ROH82665   6.296  21.096  23.392
 6664CHOL    R182666   6.329  20.994  23.274
 6664CHOL    R282667   6.531  20.876  23.269
 6664CHOL    R382668   6.366  20.878  23.140
 6664CHOL    R482669   6.560  20.787  23.166
 6664CHOL    R582670   6.400  20.776  23.022
 6664CHOL    C182671   6.449  20.622  22.844
 6664CHOL    C282672   6.499  20.469  22.667
 6665CHOL   ROH82673  -6.336   7.223   2.974
 6665CHOL    R182674  -6.191   7.244   3.038
 6665CHOL    R282675  -6.077   7.068   3.139
 6665CHOL    R382676  -6.027   7.269   3.109
 6665CHOL    R482677  -5.949   7.087   3.194
 6665CHOL    R582678  -5.882   7.290   3.173
 6665CHOL    C182679  -5.664   7.322   3.268
 6665CHOL    C282680  -5.446   7.354   3.363
 6666CHOL   ROH82681  10.056  25.066   0.375
 6666CHOL    R182682  10.056  24.933   0.464
 6666CHOL    R282683  10.203  24.758   0.419
 6666CHOL    R382684  10.056  24.784   0.565
 6666CHOL    R482685  10.203  24.642   0.497
 6666CHOL    R582686  10.057  24.652   0.655
 6666CHOL    C182687  10.057  24.453   0.789
 6666CHOL    C282688  10.057  24.254   0.923
 6667CHOL   ROH82689  26.797   6.161   5.838
 6667CHOL    R182690  26.645   6.192   5.875
 6667CHOL    R282691  26.502   6.293   5.720
 6667CHOL    R382692  26.473   6.228   5.917
 6667CHOL    R482693  26.369   6.321   5.753
 6667CHOL    R582694  26.321   6.259   5.953
 6667CHOL    C182695  26.092   6.306   6.009
 6667CHOL    C282696  25.863   6.353   6.064
 6668CHOL   ROH82697  -7.428   6.367  12.320
 6668CHOL    R182698  -7.273   6.401  12.298
 6668CHOL    R282699  -7.114   6.348  12.460
 6668CHOL    R382700  -7.099   6.439  12.272
 6668CHOL    R482701  -6.979   6.378  12.440
 6668CHOL    R582702  -6.944   6.473  12.250
 6668CHOL    C182703  -6.712   6.523  12.216
 6668CHOL    C282704  -6.480   6.574  12.183
 6669CHOL   ROH82705   0.659   7.886  25.145
 6669CHOL    R182706   0.744   7.910  25.011
 6669CHOL    R282707   0.818   7.730  24.883
 6669CHOL    R382708   0.839   7.937  24.861
 6669CHOL    R482709   0.893   7.751  24.766
 6669CHOL    R582710   0.924   7.960  24.727
 6669CHOL    C182711   1.051   7.996  24.527
 6669CHOL    C282712   1.178   8.032  24.327
 6670CHOL   ROH82713  -3.002   3.668  20.565
 6670CHOL    R182714  -2.892   3.726  20.464
 6670CHOL    R282715  -2.721   3.590  20.383
 6670CHOL    R382716  -2.768   3.791  20.351
 6670CHOL    R482717  -2.625   3.640  20.295
 6670CHOL    R582718  -2.658   3.848  20.250
 6670CHOL    C182719  -2.493   3.935  20.100
 6670CHOL    C282720  -2.328   4.022  19.949
 6671CHOL   ROH82721   7.627  22.185  22.712
 6671CHOL    R182722   7.650  22.076  22.597
 6671CHOL    R282723   7.684  22.140  22.376
 6671CHOL    R382724   7.675  21.953  22.468
 6671CHOL    R482725   7.704  22.044  22.275
 6671CHOL    R582726   7.698  21.844  22.354
 6671CHOL    C182727   7.731  21.680  22.181
 6671CHOL    C282728   7.765  21.516  22.009
 6672CHOL   ROH82729  20.706  15.136  -3.281
 6672CHOL    R182730  20.611  15.090  -3.161
 6672CHOL    R282731  20.538  14.869  -3.143
 6672CHOL    R382732  20.504  15.038  -3.025
 6672CHOL    R482733  20.455  14.828  -3.038
 6672CHOL    R582734  20.409  14.991  -2.905
 6672CHOL    C182735  20.267  14.922  -2.725
 6672CHOL    C282736  20.125  14.853  -2.544
 6673CHOL   ROH82737  17.138  25.589   5.310
 6673CHOL    R182738  17.074  25.448   5.350
 6673CHOL    R282739  17.162  25.249   5.266
 6673CHOL    R382740  17.002  25.289   5.394
 6673CHOL    R482741  17.106  25.125   5.300
 6673CHOL    R582742  16.939  25.148   5.433
 6673CHOL    C182743  16.843  24.936   5.493
 6673CHOL    C282744  16.747  24.724   5.552
 6674CHOL   ROH82745   4.075  -6.591  13.176
 6674CHOL    R182746   4.127  -6.442  13.148
 6674CHOL    R282747   4.252  -6.393  12.957
 6674CHOL    R382748   4.186  -6.275  13.117
 6674CHOL    R482749   4.298  -6.263  12.933
 6674CHOL    R582750   4.239  -6.126  13.089
 6674CHOL    C182751   4.317  -5.904  13.047
 6674CHOL    C282752   4.395  -5.681  13.005
 6675CHOL   ROH82753  25.620   2.738   5.687
 6675CHOL    R182754  25.478   2.804   5.721
 6675CHOL    R282755  25.331   2.866   5.552
 6675CHOL    R382756  25.319   2.878   5.760
 6675CHOL    R482757  25.207   2.924   5.582
 6675CHOL    R582758  25.177   2.943   5.794
 6675CHOL    C182759  24.964   3.042   5.845
 6675CHOL    C282760  24.752   3.141   5.897
 6676CHOL   ROH82761  14.707  -3.440  20.608
 6676CHOL    R182762  14.667  -3.321  20.509
 6676CHOL    R282763  14.641  -3.360  20.280
 6676CHOL    R382764  14.622  -3.187  20.397
 6676CHOL    R482765  14.606  -3.256  20.193
 6676CHOL    R582766  14.582  -3.068  20.297
 6676CHOL    C182767  14.522  -2.890  20.148
 6676CHOL    C282768  14.462  -2.712  19.999
 6677CHOL   ROH82769  13.771  26.325  15.987
 6677CHOL    R182770  13.736  26.178  15.933
 6677CHOL    R282771  13.881  26.067  15.788
 6677CHOL    R382772  13.698  26.013  15.873
 6677CHOL    R482773  13.850  25.938  15.741
 6677CHOL    R582774  13.663  25.867  15.820
 6677CHOL    C182775  13.611  25.646  15.739
 6677CHOL    C282776  13.559  25.426  15.659
 6678CHOL   ROH82777  18.526  24.737   4.731
 6678CHOL    R182778  18.453  24.601   4.774
 6678CHOL    R282779  18.564  24.440   4.900
 6678CHOL    R382780  18.370  24.449   4.822
 6678CHOL    R482781  18.500  24.321   4.938
 6678CHOL    R582782  18.297  24.313   4.865
 6678CHOL    C182783  18.187  24.110   4.929
 6678CHOL    C282784  18.077  23.907   4.994
 6679CHOL   ROH82785   8.701  18.300  -5.846
 6679CHOL    R182786   8.710  18.227  -5.704
 6679CHOL    R282787   8.866  18.058  -5.665
 6679CHOL    R382788   8.720  18.145  -5.544
 6679CHOL    R482789   8.874  17.994  -5.541
 6679CHOL    R582790   8.729  18.072  -5.402
 6679CHOL    C182791   8.742  17.963  -5.189
 6679CHOL    C282792   8.756  17.853  -4.976
 6680CHOL   ROH82793  27.395  12.503  11.776
 6680CHOL    R182794  27.237  12.483  11.759
 6680CHOL    R282795  27.125  12.566  11.571
 6680CHOL    R382796  27.059  12.462  11.740
 6680CHOL    R482797  26.987  12.549  11.556
 6680CHOL    R582798  26.901  12.442  11.723
 6680CHOL    C182799  26.665  12.413  11.697
 6680CHOL    C282800  26.428  12.383  11.671
 6681CHOL   ROH82801  -2.191   9.358  23.084
 6681CHOL    R182802  -2.082   9.361  22.967
 6681CHOL    R282803  -1.926   9.534  22.951
 6681CHOL    R382804  -1.959   9.363  22.835
 6681CHOL    R482805  -1.831   9.536  22.849
 6681CHOL    R582806  -1.850   9.366  22.718
 6681CHOL    C182807  -1.687   9.370  22.542
 6681CHOL    C282808  -1.524   9.374  22.367
 6682CHOL   ROH82809   8.876   1.236  25.431
 6682CHOL    R182810   8.886   1.312  25.291
 6682CHOL    R282811   9.039   1.486  25.260
 6682CHOL    R382812   8.898   1.399  25.133
 6682CHOL    R482813   9.048   1.553  25.137
 6682CHOL    R582814   8.909   1.475  24.993
 6682CHOL    C182815   8.924   1.590  24.783
 6682CHOL    C282816   8.940   1.704  24.573
 6683CHOL   ROH82817  14.674  25.178   1.949
 6683CHOL    R182818  14.633  25.039   2.017
 6683CHOL    R282819  14.794  24.885   2.083
 6683CHOL    R382820  14.586  24.883   2.094
 6683CHOL    R482821  14.758  24.764   2.143
 6683CHOL    R582822  14.544  24.744   2.162
 6683CHOL    C182823  14.482  24.536   2.264
 6683CHOL    C282824  14.420  24.328   2.366
 6684CHOL   ROH82825   1.996  25.023   4.547
 6684CHOL    R182826   2.071  24.890   4.595
 6684CHOL    R282827   2.304  24.881   4.604
 6684CHOL    R382828   2.156  24.741   4.650
 6684CHOL    R482829   2.370  24.765   4.647
 6684CHOL    R582830   2.231  24.609   4.698
 6684CHOL    C182831   2.345  24.410   4.770
 6684CHOL    C282832   2.458  24.211   4.843
 6685CHOL   ROH82833  -2.873   5.891  21.756
 6685CHOL    R182834  -2.762   5.931  21.648
 6685CHOL    R282835  -2.605   6.097  21.692
 6685CHOL    R382836  -2.637   5.975  21.526
 6685CHOL    R482837  -2.508   6.132  21.597
 6685CHOL    R582838  -2.526   6.014  21.417
 6685CHOL    C182839  -2.360   6.074  21.255
 6685CHOL    C282840  -2.194   6.133  21.093
 6686CHOL   ROH82841   3.455  15.304  -5.872
 6686CHOL    R182842   3.513  15.256  -5.731
 6686CHOL    R282843   3.411  15.319  -5.531
 6686CHOL    R382844   3.578  15.201  -5.572
 6686CHOL    R482845   3.462  15.276  -5.408
 6686CHOL    R582846   3.636  15.152  -5.431
 6686CHOL    C182847   3.724  15.080  -5.220
 6686CHOL    C282848   3.811  15.007  -5.009
 6687CHOL   ROH82849   8.871  22.584  -2.623
 6687CHOL    R182850   8.880  22.471  -2.511
 6687CHOL    R282851   9.046  22.477  -2.347
 6687CHOL    R382852   8.890  22.343  -2.384
 6687CHOL    R482853   9.054  22.378  -2.248
 6687CHOL    R582854   8.899  22.229  -2.271
 6687CHOL    C182855   8.913  22.059  -2.103
 6687CHOL    C282856   8.927  21.889  -1.934
 6688CHOL   ROH82857  -6.446   4.788   4.738
 6688CHOL    R182858  -6.300   4.836   4.782
 6688CHOL    R282859  -6.270   4.977   4.966
 6688CHOL    R382860  -6.136   4.890   4.832
 6688CHOL    R482861  -6.142   5.019   5.004
 6688CHOL    R582862  -5.990   4.938   4.876
 6688CHOL    C182863  -5.770   5.009   4.942
 6688CHOL    C282864  -5.551   5.081   5.008
 6689CHOL   ROH82865  12.691  -3.439  -1.495
 6689CHOL    R182866  12.663  -3.319  -1.392
 6689CHOL    R282867  12.770  -3.311  -1.185
 6689CHOL    R382868  12.631  -3.185  -1.277
 6689CHOL    R482869  12.746  -3.206  -1.096
 6689CHOL    R582870  12.603  -3.065  -1.175
 6689CHOL    C182871  12.561  -2.885  -1.021
 6689CHOL    C282872  12.519  -2.706  -0.867
 6690CHOL   ROH82873   6.778  18.043  -5.718
 6690CHOL    R182874   6.806  17.974  -5.576
 6690CHOL    R282875   6.779  18.093  -5.377
 6690CHOL    R382876   6.839  17.896  -5.417
 6690CHOL    R482877   6.804  18.032  -5.254
 6690CHOL    R582878   6.867  17.827  -5.276
 6690CHOL    C182879   6.910  17.724  -5.063
 6690CHOL    C282880   6.952  17.621  -4.851
 6691CHOL   ROH82881  13.107  -4.062  20.374
 6691CHOL    R182882  13.080  -3.939  20.275
 6691CHOL    R282883  13.245  -3.780  20.234
 6691CHOL    R382884  13.050  -3.802  20.163
 6691CHOL    R482885  13.222  -3.672  20.147
 6691CHOL    R582886  13.023  -3.679  20.064
 6691CHOL    C182887  12.983  -3.495  19.914
 6691CHOL    C282888  12.943  -3.311  19.765
 6692CHOL   ROH82889  -2.030   9.482  -3.308
 6692CHOL    R182890  -1.923   9.485  -3.189
 6692CHOL    R282891  -1.888   9.678  -3.063
 6692CHOL    R382892  -1.802   9.487  -3.056
 6692CHOL    R482893  -1.794   9.680  -2.959
 6692CHOL    R582894  -1.695   9.490  -2.937
 6692CHOL    C182895  -1.534   9.494  -2.759
 6692CHOL    C282896  -1.373   9.498  -2.581
 6693CHOL   ROH82897   6.915  -4.474  -0.088
 6693CHOL    R182898   6.940  -4.343   0.001
 6693CHOL    R282899   7.073  -4.169  -0.077
 6693CHOL    R382900   6.967  -4.197   0.101
 6693CHOL    R482901   7.094  -4.054   0.001
 6693CHOL    R582902   6.992  -4.066   0.190
 6693CHOL    C182903   7.029  -3.870   0.324
 6693CHOL    C282904   7.066  -3.674   0.458
 6694CHOL   ROH82905   5.051  -5.646  17.168
 6694CHOL    R182906   5.094  -5.506  17.103
 6694CHOL    R282907   5.100  -5.312  17.232
 6694CHOL    R382908   5.142  -5.348  17.031
 6694CHOL    R482909   5.138  -5.189  17.175
 6694CHOL    R582910   5.184  -5.208  16.966
 6694CHOL    C182911   5.249  -4.998  16.869
 6694CHOL    C282912   5.313  -4.788  16.772
 6695CHOL   ROH82913  19.797   0.592  -1.514
 6695CHOL    R182914  19.704   0.673  -1.413
 6695CHOL    R282915  19.484   0.728  -1.469
 6695CHOL    R382916  19.599   0.765  -1.298
 6695CHOL    R482917  19.403   0.799  -1.380
 6695CHOL    R582918  19.506   0.847  -1.197
 6695CHOL    C182919  19.366   0.969  -1.045
 6695CHOL    C282920  19.227   1.091  -0.893
 6696CHOL   ROH82921  11.554  26.264   2.840
 6696CHOL    R182922  11.533  26.118   2.902
 6696CHOL    R282923  11.714  25.977   2.943
 6696CHOL    R382924  11.508  25.954   2.972
 6696CHOL    R482925  11.695  25.850   2.998
 6696CHOL    R582926  11.487  25.808   3.034
 6696CHOL    C182927  11.455  25.589   3.127
 6696CHOL    C282928  11.423  25.370   3.220
 6697CHOL   ROH82929  -0.751  22.762  16.510
 6697CHOL    R182930  -0.657  22.646  16.452
 6697CHOL    R282931  -0.499  22.541  16.589
 6697CHOL    R382932  -0.550  22.516  16.388
 6697CHOL    R482933  -0.417  22.440  16.538
 6697CHOL    R582934  -0.456  22.400  16.330
 6697CHOL    C182935  -0.314  22.227  16.244
 6697CHOL    C282936  -0.173  22.053  16.157
 6698CHOL   ROH82937   1.713  18.821  -3.321
 6698CHOL    R182938   1.787  18.746  -3.201
 6698CHOL    R282939   2.018  18.767  -3.170
 6698CHOL    R382940   1.871  18.661  -3.066
 6698CHOL    R482941   2.082  18.701  -3.065
 6698CHOL    R582942   1.945  18.586  -2.945
 6698CHOL    C182943   2.056  18.473  -2.765
 6698CHOL    C282944   2.168  18.360  -2.585
 6699CHOL   ROH82945  26.098   9.659   2.519
 6699CHOL    R182946  25.953   9.661   2.586
 6699CHOL    R282947  25.788   9.510   2.521
 6699CHOL    R382948  25.790   9.664   2.662
 6699CHOL    R482949  25.661   9.512   2.580
 6699CHOL    R582950  25.645   9.667   2.729
 6699CHOL    C182951  25.427   9.670   2.830
 6699CHOL    C282952  25.209   9.674   2.931
 6700CHOL   ROH82953  12.465  -5.626  18.278
 6700CHOL    R182954  12.439  -5.488  18.202
 6700CHOL    R282955  12.562  -5.297  18.254
 6700CHOL    R382956  12.409  -5.332  18.116
 6700CHOL    R482957  12.539  -5.176  18.187
 6700CHOL    R582958  12.383  -5.194  18.040
 6700CHOL    C182959  12.344  -4.987  17.926
 6700CHOL    C282960  12.304  -4.779  17.812
 6701CHOL   ROH82961  -2.413  21.253   3.514
 6701CHOL    R182962  -2.306  21.149   3.572
 6701CHOL    R282963  -2.317  21.077   3.794
 6701CHOL    R382964  -2.186  21.033   3.638
 6701CHOL    R482965  -2.223  20.987   3.845
 6701CHOL    R582966  -2.078  20.929   3.696
 6701CHOL    C182967  -1.918  20.773   3.783
 6701CHOL    C282968  -1.757  20.618   3.871
 6702CHOL   ROH82969   0.070  15.633  23.669
 6702CHOL    R182970   0.159  15.582  23.546
 6702CHOL    R282971   0.389  15.549  23.571
 6702CHOL    R382972   0.260  15.526  23.408
 6702CHOL    R482973   0.467  15.504  23.463
 6702CHOL    R582974   0.349  15.475  23.286
 6702CHOL    C182975   0.483  15.399  23.101
 6702CHOL    C282976   0.617  15.323  22.917
 6703CHOL   ROH82977  -6.359   2.572   9.896
 6703CHOL    R182978  -6.213   2.637   9.899
 6703CHOL    R282979  -6.022   2.505   9.877
 6703CHOL    R382980  -6.049   2.711   9.902
 6703CHOL    R482981  -5.894   2.562   9.879
 6703CHOL    R582982  -5.902   2.776   9.904
 6703CHOL    C182983  -5.683   2.874   9.909
 6703CHOL    C282984  -5.464   2.972   9.913
 6704CHOL   ROH82985  24.538   0.526  13.691
 6704CHOL    R182986  24.408   0.613  13.656
 6704CHOL    R282987  24.342   0.646  13.435
 6704CHOL    R382988  24.262   0.711  13.617
 6704CHOL    R482989  24.228   0.722  13.404
 6704CHOL    R582990  24.132   0.797  13.582
 6704CHOL    C182991  23.938   0.928  13.530
 6704CHOL    C282992  23.743   1.058  13.477
 6705CHOL   ROH82993   0.035  23.596   4.099
 6705CHOL    R182994   0.123  23.473   4.151
 6705CHOL    R282995   0.353  23.493   4.179
 6705CHOL    R382996   0.221  23.335   4.211
 6705CHOL    R482997   0.430  23.386   4.225
 6705CHOL    R582998   0.309  23.211   4.263
 6705CHOL    C182999   0.441  23.027   4.342
 6705CHOL    C283000   0.572  22.842   4.420
 6706CHOL   ROH83001  -3.385  15.675  20.524
 6706CHOL    R183002  -3.269  15.622  20.427
 6706CHOL    R283003  -3.106  15.474  20.503
 6706CHOL    R383004  -3.140  15.563  20.317
 6706CHOL    R483005  -3.005  15.428  20.418
 6706CHOL    R583006  -3.024  15.510  20.219
 6706CHOL    C183007  -2.851  15.431  20.073
 6706CHOL    C283008  -2.677  15.352  19.927
 6707CHOL   ROH83009   3.928  18.420  24.562
 6707CHOL    R183010   3.982  18.341  24.434
 6707CHOL    R283011   4.119  18.154  24.457
 6707CHOL    R383012   4.043  18.253  24.289
 6707CHOL    R483013   4.167  18.085  24.344
 6707CHOL    R583014   4.097  18.174  24.161
 6707CHOL    C183015   4.179  18.057  23.969
 6707CHOL    C283016   4.260  17.939  23.776
 6708CHOL   ROH83017  11.094   6.487  27.417
 6708CHOL    R183018  11.084   6.519  27.261
 6708CHOL    R283019  11.115   6.352  27.101
 6708CHOL    R383020  11.072   6.556  27.085
 6708CHOL    R483021  11.106   6.380  26.964
 6708CHOL    R583022  11.062   6.588  26.929
 6708CHOL    C183023  11.047   6.636  26.694
 6708CHOL    C283024  11.031   6.685  26.460
 6709CHOL   ROH83025   9.533  26.725   3.641
 6709CHOL    R183026   9.534  26.574   3.695
 6709CHOL    R283027   9.563  26.395   3.549
 6709CHOL    R383028   9.536  26.405   3.756
 6709CHOL    R483029   9.564  26.263   3.597
 6709CHOL    R583030   9.538  26.254   3.811
 6709CHOL    C183031   9.540  26.029   3.892
 6709CHOL    C283032   9.542  25.803   3.973
 6710CHOL   ROH83033   7.133  -5.384   1.314
 6710CHOL    R183034   7.157  -5.246   1.392
 6710CHOL    R283035   7.319  -5.228   1.558
 6710CHOL    R383036   7.183  -5.091   1.479
 6710CHOL    R483037   7.340  -5.107   1.626
 6710CHOL    R583038   7.206  -4.953   1.556
 6710CHOL    C183039   7.242  -4.746   1.673
 6710CHOL    C283040   7.277  -4.539   1.789
 6711CHOL   ROH83041  10.277  -6.960   4.200
 6711CHOL    R183042  10.278  -6.809   4.253
 6711CHOL    R283043  10.349  -6.759   4.469
 6711CHOL    R383044  10.279  -6.639   4.313
 6711CHOL    R483045  10.350  -6.627   4.516
 6711CHOL    R583046  10.281  -6.489   4.366
 6711CHOL    C183047  10.282  -6.262   4.446
 6711CHOL    C283048  10.284  -6.036   4.525
 6712CHOL   ROH83049   6.389   8.155  27.333
 6712CHOL    R183050   6.419   8.171  27.177
 6712CHOL    R283051   6.637   8.163  27.094
 6712CHOL    R383052   6.452   8.189  27.000
 6712CHOL    R483053   6.663   8.177  26.957
 6712CHOL    R583054   6.482   8.204  26.844
 6712CHOL    C183055   6.527   8.228  26.609
 6712CHOL    C283056   6.571   8.252  26.375
 6713CHOL   ROH83057  11.918  11.854  -7.730
 6713CHOL    R183058  11.899  11.834  -7.572
 6713CHOL    R283059  11.847  11.624  -7.484
 6713CHOL    R383060  11.878  11.810  -7.395
 6713CHOL    R483061  11.831  11.606  -7.346
 6713CHOL    R583062  11.860  11.790  -7.238
 6713CHOL    C183063  11.831  11.759  -7.001
 6713CHOL    C283064  11.803  11.729  -6.765
 6714CHOL   ROH83065  23.356  -0.797  14.353
 6714CHOL    R183066  23.236  -0.699  14.313
 6714CHOL    R283067  23.207  -0.627  14.094
 6714CHOL    R383068  23.100  -0.589  14.269
 6714CHOL    R483069  23.102  -0.541  14.059
 6714CHOL    R583070  22.980  -0.491  14.229
 6714CHOL    C183071  22.800  -0.345  14.170
 6714CHOL    C283072  22.619  -0.198  14.111
 6715CHOL   ROH83073  19.567  -2.953  17.529
 6715CHOL    R183074  19.478  -2.838  17.463
 6715CHOL    R283075  19.574  -2.636  17.395
 6715CHOL    R383076  19.378  -2.708  17.388
 6715CHOL    R483077  19.496  -2.535  17.337
 6715CHOL    R583078  19.289  -2.593  17.322
 6715CHOL    C183079  19.156  -2.420  17.222
 6715CHOL    C283080  19.022  -2.247  17.122
 6716CHOL   ROH83081  16.968  19.508  -3.418
 6716CHOL    R183082  16.903  19.425  -3.297
 6716CHOL    R283083  16.880  19.194  -3.309
 6716CHOL    R383084  16.831  19.333  -3.161
 6716CHOL    R483085  16.823  19.121  -3.203
 6716CHOL    R583086  16.766  19.250  -3.040
 6716CHOL    C183087  16.669  19.126  -2.859
 6716CHOL    C283088  16.572  19.002  -2.678
 6717CHOL   ROH83089  -4.449   0.302   5.532
 6717CHOL    R183090  -4.321   0.389   5.571
 6717CHOL    R283091  -4.277   0.446   5.793
 6717CHOL    R383092  -4.176   0.487   5.615
 6717CHOL    R483093  -4.165   0.523   5.827
 6717CHOL    R583094  -4.048   0.575   5.654
 6717CHOL    C183095  -3.855   0.705   5.712
 6717CHOL    C283096  -3.662   0.836   5.770
 6718CHOL   ROH83097  12.219   0.245  -4.810
 6718CHOL    R183098  12.198   0.333  -4.678
 6718CHOL    R283099  12.346   0.506  -4.625
 6718CHOL    R383100  12.175   0.432  -4.530
 6718CHOL    R483101  12.328   0.583  -4.509
 6718CHOL    R583102  12.154   0.520  -4.398
 6718CHOL    C183103  12.124   0.652  -4.200
 6718CHOL    C283104  12.093   0.784  -4.002
 6719CHOL   ROH83105  25.399   9.986   1.179
 6719CHOL    R183106  25.261   9.986   1.260
 6719CHOL    R283107  25.132   9.792   1.276
 6719CHOL    R383108  25.106   9.985   1.352
 6719CHOL    R483109  25.011   9.792   1.347
 6719CHOL    R583110  24.968   9.985   1.434
 6719CHOL    C183111  24.762   9.985   1.556
 6719CHOL    C283112  24.555   9.984   1.678
 6720CHOL   ROH83113  -7.653  12.919  12.183
 6720CHOL    R183114  -7.497  12.892  12.163
 6720CHOL    R283115  -7.339  12.985  12.307
 6720CHOL    R383116  -7.320  12.863  12.139
 6720CHOL    R483117  -7.202  12.962  12.289
 6720CHOL    R583118  -7.164  12.836  12.119
 6720CHOL    C183119  -6.929  12.796  12.088
 6720CHOL    C283120  -6.695  12.756  12.058
 6721CHOL   ROH83121   5.199  25.002   1.488
 6721CHOL    R183122   5.240  24.870   1.568
 6721CHOL    R283123   5.362  24.882   1.766
 6721CHOL    R383124   5.287  24.721   1.658
 6721CHOL    R483125   5.398  24.767   1.836
 6721CHOL    R583126   5.328  24.588   1.738
 6721CHOL    C183127   5.390  24.390   1.857
 6721CHOL    C283128   5.452  24.192   1.977
 6722CHOL   ROH83129  -1.123  19.399  20.392
 6722CHOL    R183130  -1.025  19.316  20.296
 6722CHOL    R283131  -0.812  19.397  20.244
 6722CHOL    R383132  -0.915  19.223  20.189
 6722CHOL    R483133  -0.727  19.324  20.161
 6722CHOL    R583134  -0.816  19.141  20.094
 6722CHOL    C183135  -0.669  19.016  19.950
 6722CHOL    C283136  -0.522  18.892  19.807
 6723CHOL   ROH83137  13.369  12.680  -7.368
 6723CHOL    R183138  13.337  12.654  -7.213
 6723CHOL    R283139  13.179  12.495  -7.149
 6723CHOL    R383140  13.301  12.624  -7.040
 6723CHOL    R483141  13.151  12.472  -7.014
 6723CHOL    R583142  13.269  12.598  -6.885
 6723CHOL    C183143  13.222  12.559  -6.653
 6723CHOL    C283144  13.174  12.519  -6.421
 6724CHOL   ROH83145  20.377   0.975  -1.271
 6724CHOL    R183146  20.280   1.053  -1.171
 6724CHOL    R283147  20.081   1.148  -1.246
 6724CHOL    R383148  20.171   1.142  -1.058
 6724CHOL    R483149  19.996   1.217  -1.158
 6724CHOL    R583150  20.074   1.220  -0.958
 6724CHOL    C183151  19.929   1.338  -0.807
 6724CHOL    C283152  19.783   1.455  -0.657
 6725CHOL   ROH83153  -5.788  18.157  12.686
 6725CHOL    R183154  -5.648  18.084  12.662
 6725CHOL    R283155  -5.542  17.967  12.833
 6725CHOL    R383156  -5.490  18.001  12.634
 6725CHOL    R483157  -5.419  17.902  12.812
 6725CHOL    R583158  -5.350  17.928  12.609
 6725CHOL    C183159  -5.140  17.818  12.573
 6725CHOL    C283160  -4.930  17.708  12.536
 6726CHOL   ROH83161  -8.009   9.437   9.081
 6726CHOL    R183162  -7.849   9.441   9.090
 6726CHOL    R283163  -7.738   9.628   9.173
 6726CHOL    R383164  -7.670   9.445   9.099
 6726CHOL    R483165  -7.598   9.631   9.181
 6726CHOL    R583166  -7.510   9.449   9.108
 6726CHOL    C183167  -7.270   9.454   9.121
 6726CHOL    C283168  -7.031   9.460   9.134
 6727CHOL   ROH83169  -4.423  15.130  19.412
 6727CHOL    R183170  -4.295  15.086  19.327
 6727CHOL    R283171  -4.132  14.946  19.419
 6727CHOL    R383172  -4.150  15.037  19.232
 6727CHOL    R483173  -4.020  14.908  19.345
 6727CHOL    R583174  -4.022  14.993  19.147
 6727CHOL    C183175  -3.830  14.927  19.020
 6727CHOL    C283176  -3.637  14.861  18.893
 6728CHOL   ROH83177  23.305   0.175  16.470
 6728CHOL    R183178  23.185   0.265  16.415
 6728CHOL    R283179  23.210   0.395  16.223
 6728CHOL    R383180  23.050   0.367  16.354
 6728CHOL    R483181  23.105   0.474  16.175
 6728CHOL    R583182  22.930   0.458  16.299
 6728CHOL    C183183  22.749   0.593  16.217
 6728CHOL    C283184  22.569   0.729  16.135
 6729CHOL   ROH83185  16.116  -1.024  -2.667
 6729CHOL    R183186  16.063  -0.922  -2.555
 6729CHOL    R283187  15.953  -0.725  -2.615
 6729CHOL    R383188  16.003  -0.808  -2.430
 6729CHOL    R483189  15.907  -0.637  -2.517
 6729CHOL    R583190  15.951  -0.707  -2.318
 6729CHOL    C183191  15.871  -0.554  -2.150
 6729CHOL    C283192  15.792  -0.402  -1.983
 6730CHOL   ROH83193  16.985  11.488  -6.359
 6730CHOL    R183194  16.918  11.478  -6.214
 6730CHOL    R283195  16.768  11.307  -6.163
 6730CHOL    R383196  16.843  11.467  -6.051
 6730CHOL    R483197  16.709  11.299  -6.036
 6730CHOL    R583198  16.776  11.456  -5.906
 6730CHOL    C183199  16.676  11.441  -5.689
 6730CHOL    C283200  16.575  11.426  -5.471
 6731CHOL   ROH83201   6.116  -4.017  20.386
 6731CHOL    R183202   6.150  -3.892  20.292
 6731CHOL    R283203   6.304  -3.730  20.358
 6731CHOL    R383204   6.188  -3.752  20.186
 6731CHOL    R483205   6.333  -3.621  20.276
 6731CHOL    R583206   6.222  -3.627  20.091
 6731CHOL    C183207   6.273  -3.440  19.950
 6731CHOL    C283208   6.324  -3.253  19.809
 6732CHOL   ROH83209  19.933  20.569  20.213
 6732CHOL    R183210  19.841  20.473  20.123
 6732CHOL    R283211  19.936  20.326  19.969
 6732CHOL    R383212  19.738  20.366  20.022
 6732CHOL    R483213  19.856  20.243  19.891
 6732CHOL    R583214  19.647  20.270  19.932
 6732CHOL    C183215  19.509  20.127  19.797
 6732CHOL    C283216  19.371  19.984  19.662
 6733CHOL   ROH83217   5.552  27.032   6.551
 6733CHOL    R183218   5.589  26.879   6.580
 6733CHOL    R283219   5.678  26.815   6.786
 6733CHOL    R383220   5.631  26.707   6.613
 6733CHOL    R483221   5.710  26.681   6.812
 6733CHOL    R583222   5.668  26.555   6.642
 6733CHOL    C183223   5.724  26.325   6.686
 6733CHOL    C283224   5.779  26.096   6.730
 6734CHOL   ROH83225  20.575  18.647  -1.445
 6734CHOL    R183226  20.480  18.568  -1.343
 6734CHOL    R283227  20.564  18.397  -1.209
 6734CHOL    R383228  20.373  18.479  -1.229
 6734CHOL    R483229  20.481  18.328  -1.120
 6734CHOL    R583230  20.279  18.401  -1.127
 6734CHOL    C183231  20.136  18.282  -0.974
 6734CHOL    C283232  19.994  18.164  -0.822
 6735CHOL   ROH83233  27.368  11.373   6.823
 6735CHOL    R183234  27.210  11.365   6.850
 6735CHOL    R283235  27.104  11.160   6.880
 6735CHOL    R383236  27.033  11.356   6.880
 6735CHOL    R483237  26.966  11.153   6.903
 6735CHOL    R583238  26.875  11.348   6.907
 6735CHOL    C183239  26.639  11.337   6.947
 6735CHOL    C283240  26.403  11.325   6.987
 6736CHOL   ROH83241  24.018   9.277  -0.829
 6736CHOL    R183242  23.890   9.280  -0.733
 6736CHOL    R283243  23.715   9.128  -0.761
 6736CHOL    R383244  23.747   9.282  -0.624
 6736CHOL    R483245  23.604   9.130  -0.676
 6736CHOL    R583246  23.619   9.285  -0.528
 6736CHOL    C183247  23.427   9.289  -0.383
 6736CHOL    C283248  23.236   9.293  -0.238
 6737CHOL   ROH83249  24.126  12.167  -0.497
 6737CHOL    R183250  23.999  12.151  -0.401
 6737CHOL    R283251  23.801  12.266  -0.444
 6737CHOL    R383252  23.856  12.132  -0.294
 6737CHOL    R483253  23.690  12.252  -0.360
 6737CHOL    R583254  23.729  12.115  -0.198
 6737CHOL    C183255  23.538  12.091  -0.054
 6737CHOL    C283256  23.347  12.066   0.089
 6738CHOL   ROH83257  15.527   5.818  -6.435
 6738CHOL    R183258  15.471   5.854  -6.290
 6738CHOL    R283259  15.256   5.940  -6.262
 6738CHOL    R383260  15.408   5.895  -6.126
 6738CHOL    R483261  15.207   5.972  -6.134
 6738CHOL    R583262  15.352   5.931  -5.981
 6738CHOL    C183263  15.268   5.986  -5.762
 6738CHOL    C283264  15.184   6.040  -5.544
 6739CHOL   ROH83265  -6.377   6.903   3.183
 6739CHOL    R183266  -6.231   6.927   3.245
 6739CHOL    R283267  -6.192   6.898   3.473
 6739CHOL    R383268  -6.067   6.953   3.314
 6739CHOL    R483269  -6.064   6.919   3.527
 6739CHOL    R583270  -5.922   6.976   3.376
 6739CHOL    C183271  -5.703   7.012   3.469
 6739CHOL    C283272  -5.484   7.047   3.561
 6740CHOL   ROH83273   5.339  27.298   9.660
 6740CHOL    R183274   5.379  27.143   9.663
 6740CHOL    R283275   5.467  27.046   9.856
 6740CHOL    R383276   5.424  26.969   9.666
 6740CHOL    R483277   5.502  26.910   9.858
 6740CHOL    R583278   5.464  26.814   9.669
 6740CHOL    C183279   5.523  26.582   9.674
 6740CHOL    C283280   5.583  26.349   9.679
 6741CHOL   ROH83281   9.251  26.663   3.488
 6741CHOL    R183282   9.256  26.513   3.544
 6741CHOL    R283283   9.295  26.470   3.769
 6741CHOL    R383284   9.261  26.344   3.606
 6741CHOL    R483285   9.299  26.339   3.818
 6741CHOL    R583286   9.266  26.195   3.662
 6741CHOL    C183287   9.272  25.970   3.746
 6741CHOL    C283288   9.279  25.745   3.829
 6742CHOL   ROH83289   7.810  24.987  19.436
 6742CHOL    R183290   7.829  24.853  19.351
 6742CHOL    R283291   8.042  24.763  19.316
 6742CHOL    R383292   7.851  24.702  19.256
 6742CHOL    R483293   8.059  24.645  19.242
 6742CHOL    R583294   7.871  24.567  19.171
 6742CHOL    C183295   7.900  24.366  19.044
 6742CHOL    C283296   7.929  24.165  18.917
 6743CHOL   ROH83297  14.242  26.163   4.008
 6743CHOL    R183298  14.203  26.017   4.061
 6743CHOL    R283299  14.172  25.840   3.914
 6743CHOL    R383300  14.160  25.853   4.122
 6743CHOL    R483301  14.139  25.712   3.960
 6743CHOL    R583302  14.121  25.708   4.175
 6743CHOL    C183303  14.063  25.489   4.255
 6743CHOL    C283304  14.005  25.270   4.335
 6744CHOL   ROH83305  12.531  23.311  21.448
 6744CHOL    R183306  12.507  23.190  21.346
 6744CHOL    R283307  12.674  23.034  21.301
 6744CHOL    R383308  12.479  23.055  21.231
 6744CHOL    R483309  12.653  22.929  21.212
 6744CHOL    R583310  12.455  22.934  21.129
 6744CHOL    C183311  12.418  22.753  20.975
 6744CHOL    C283312  12.381  22.572  20.822
 6745CHOL   ROH83313   8.301  25.586   1.357
 6745CHOL    R183314   8.317  25.449   1.439
 6745CHOL    R283315   8.506  25.315   1.413
 6745CHOL    R383316   8.335  25.295   1.530
 6745CHOL    R483317   8.520  25.195   1.484
 6745CHOL    R583318   8.350  25.158   1.612
 6745CHOL    C183319   8.374  24.953   1.734
 6745CHOL    C283320   8.398  24.748   1.857
 6746CHOL   ROH83321  15.392  26.734  12.752
 6746CHOL    R183322  15.340  26.585  12.727
 6746CHOL    R283323  15.379  26.416  12.883
 6746CHOL    R383324  15.281  26.417  12.699
 6746CHOL    R483325  15.333  26.286  12.861
 6746CHOL    R583326  15.229  26.268  12.674
 6746CHOL    C183327  15.150  26.044  12.637
 6746CHOL    C283328  15.072  25.821  12.599
 6747CHOL   ROH83329  25.172   7.636   1.048
 6747CHOL    R183330  25.034   7.654   1.128
 6747CHOL    R283331  24.883   7.477   1.148
 6747CHOL    R383332  24.880   7.674   1.218
 6747CHOL    R483333  24.763   7.493   1.218
 6747CHOL    R583334  24.742   7.692   1.297
 6747CHOL    C183335  24.536   7.719   1.417
 6747CHOL    C283336  24.329   7.746   1.537
 6748CHOL   ROH83337   0.324  13.443  24.573
 6748CHOL    R183338   0.412  13.409  24.444
 6748CHOL    R283339   0.622  13.309  24.465
 6748CHOL    R383340   0.512  13.371  24.299
 6748CHOL    R483341   0.699  13.279  24.352
 6748CHOL    R583342   0.601  13.337  24.170
 6748CHOL    C183343   0.733  13.287  23.977
 6748CHOL    C283344   0.866  13.236  23.783
 6749CHOL   ROH83345   1.713  23.068   0.990
 6749CHOL    R183346   1.789  22.950   1.067
 6749CHOL    R283347   1.962  22.996   1.216
 6749CHOL    R383348   1.874  22.817   1.154
 6749CHOL    R483349   2.028  22.892   1.284
 6749CHOL    R583350   1.950  22.699   1.231
 6749CHOL    C183351   2.064  22.522   1.346
 6749CHOL    C283352   2.178  22.345   1.461
 6750CHOL   ROH83353  19.620  -2.806   2.162
 6750CHOL    R183354  19.535  -2.690   2.232
 6750CHOL    R283355  19.367  -2.577   2.115
 6750CHOL    R383356  19.438  -2.560   2.311
 6750CHOL    R483357  19.293  -2.476   2.177
 6750CHOL    R583358  19.353  -2.445   2.381
 6750CHOL    C183359  19.225  -2.271   2.486
 6750CHOL    C283360  19.097  -2.097   2.591
 6751CHOL   ROH83361  -6.261  16.527   6.104
 6751CHOL    R183362  -6.117  16.470   6.143
 6751CHOL    R283363  -6.001  16.551   6.328
 6751CHOL    R383364  -5.954  16.405   6.186
 6751CHOL    R483365  -5.875  16.501   6.362
 6751CHOL    R583366  -5.810  16.348   6.225
 6751CHOL    C183367  -5.594  16.262   6.283
 6751CHOL    C283368  -5.377  16.176   6.341
 6752CHOL   ROH83369  10.704  22.691  22.449
 6752CHOL    R183370  10.695  22.577  22.338
 6752CHOL    R283371  10.723  22.627  22.112
 6752CHOL    R383372  10.685  22.448  22.212
 6752CHOL    R483373  10.715  22.527  22.014
 6752CHOL    R583374  10.675  22.334  22.101
 6752CHOL    C183375  10.662  22.162  21.934
 6752CHOL    C283376  10.648  21.990  21.767
 6753CHOL   ROH83377   9.242  13.164  -7.634
 6753CHOL    R183378   9.247  13.136  -7.477
 6753CHOL    R283379   9.418  13.007  -7.383
 6753CHOL    R383380   9.252  13.103  -7.300
 6753CHOL    R483381   9.422  12.982  -7.246
 6753CHOL    R583382   9.257  13.075  -7.143
 6753CHOL    C183383   9.264  13.032  -6.907
 6753CHOL    C283384   9.271  12.990  -6.671
 6754CHOL   ROH83385  -5.297  15.526  17.647
 6754CHOL    R183386  -5.161  15.477  17.578
 6754CHOL    R283387  -4.958  15.488  17.691
 6754CHOL    R383388  -5.009  15.422  17.499
 6754CHOL    R483389  -4.839  15.445  17.630
 6754CHOL    R583390  -4.874  15.373  17.430
 6754CHOL    C183391  -4.670  15.300  17.326
 6754CHOL    C283392  -4.467  15.226  17.222
 6755CHOL   ROH83393  -5.179   0.512  11.677
 6755CHOL    R183394  -5.043   0.595  11.660
 6755CHOL    R283395  -4.836   0.491  11.683
 6755CHOL    R383396  -4.890   0.688  11.641
 6755CHOL    R483397  -4.717   0.564  11.669
 6755CHOL    R583398  -4.754   0.771  11.624
 6755CHOL    C183399  -4.551   0.895  11.599
 6755CHOL    C283400  -4.347   1.020  11.574
 6756CHOL   ROH83401  16.070  25.258   3.158
 6756CHOL    R183402  16.018  25.118   3.216
 6756CHOL    R283403  16.144  24.998   3.371
 6756CHOL    R383404  15.960  24.961   3.281
 6756CHOL    R483405  16.099  24.876   3.422
 6756CHOL    R583406  15.908  24.822   3.339
 6756CHOL    C183407  15.830  24.612   3.427
 6756CHOL    C283408  15.752  24.402   3.514
 6757CHOL   ROH83409   4.583   0.414  24.121
 6757CHOL    R183410   4.628   0.500  23.993
 6757CHOL    R283411   4.683   0.395  23.792
 6757CHOL    R383412   4.679   0.596  23.850
 6757CHOL    R483413   4.723   0.470  23.681
 6757CHOL    R583414   4.724   0.681  23.722
 6757CHOL    C183415   4.791   0.810  23.531
 6757CHOL    C283416   4.858   0.938  23.340
 6758CHOL   ROH83417  17.390  -4.248  17.722
 6758CHOL    R183418  17.325  -4.118  17.654
 6758CHOL    R283419  17.345  -4.080  17.425
 6758CHOL    R383420  17.252  -3.973  17.578
 6758CHOL    R483421  17.288  -3.967  17.366
 6758CHOL    R583422  17.188  -3.843  17.510
 6758CHOL    C183423  17.090  -3.649  17.408
 6758CHOL    C283424  16.993  -3.454  17.306
 6759CHOL   ROH83425  25.050   9.031  19.225
 6759CHOL    R183426  24.914   9.043  19.141
 6759CHOL    R283427  24.907   8.989  18.915
 6759CHOL    R383428  24.761   9.058  19.047
 6759CHOL    R483429  24.788   9.000  18.842
 6759CHOL    R583430  24.625   9.070  18.964
 6759CHOL    C183431  24.422   9.089  18.838
 6759CHOL    C283432  24.218   9.107  18.712
 6760CHOL   ROH83433  -0.528  22.841   3.367
 6760CHOL    R183434  -0.437  22.723   3.425
 6760CHOL    R283435  -0.204  22.741   3.426
 6760CHOL    R383436  -0.334  22.591   3.491
 6760CHOL    R483437  -0.124  22.638   3.477
 6760CHOL    R583438  -0.242  22.473   3.549
 6760CHOL    C183439  -0.105  22.296   3.636
 6760CHOL    C283440   0.032  22.120   3.724
 6761CHOL   ROH83441  14.366  18.622  -5.013
 6761CHOL    R183442  14.328  18.545  -4.878
 6761CHOL    R283443  14.165  18.379  -4.876
 6761CHOL    R383444  14.285  18.459  -4.726
 6761CHOL    R483445  14.131  18.312  -4.758
 6761CHOL    R583446  14.247  18.382  -4.590
 6761CHOL    C183447  14.189  18.268  -4.388
 6761CHOL    C283448  14.132  18.153  -4.185
 6762CHOL   ROH83449   3.865   1.456  24.493
 6762CHOL    R183450   3.920   1.531  24.362
 6762CHOL    R283451   3.987   1.410  24.174
 6762CHOL    R383452   3.981   1.615  24.216
 6762CHOL    R483453   4.035   1.476  24.060
 6762CHOL    R583454   4.036   1.689  24.085
 6762CHOL    C183455   4.117   1.802  23.889
 6762CHOL    C283456   4.199   1.914  23.693
 6763CHOL   ROH83457   9.261  25.570   1.198
 6763CHOL    R183458   9.267  25.433   1.280
 6763CHOL    R283459   9.433  25.274   1.236
 6763CHOL    R383460   9.274  25.278   1.372
 6763CHOL    R483461   9.438  25.154   1.308
 6763CHOL    R583462   9.280  25.140   1.454
 6763CHOL    C183463   9.290  24.934   1.576
 6763CHOL    C283464   9.299  24.728   1.699
 6764CHOL   ROH83465  -2.534  18.035  -0.130
 6764CHOL    R183466  -2.422  17.962  -0.042
 6764CHOL    R283467  -2.259  18.086   0.071
 6764CHOL    R383468  -2.296  17.881   0.058
 6764CHOL    R483469  -2.162  18.022   0.148
 6764CHOL    R583470  -2.185  17.808   0.146
 6764CHOL    C183471  -2.017  17.699   0.279
 6764CHOL    C283472  -1.849  17.590   0.412
 6765CHOL   ROH83473   7.881  26.909  15.333
 6765CHOL    R183474   7.900  26.758  15.283
 6765CHOL    R283475   8.040  26.611  15.397
 6765CHOL    R383476   7.921  26.588  15.228
 6765CHOL    R483477   8.057  26.479  15.354
 6765CHOL    R583478   7.940  26.438  15.178
 6765CHOL    C183479   7.968  26.211  15.104
 6765CHOL    C283480   7.997  25.985  15.029
 6766CHOL   ROH83481   8.362  27.175  14.612
 6766CHOL    R183482   8.375  27.021  14.570
 6766CHOL    R283483   8.533  26.882  14.670
 6766CHOL    R383484   8.389  26.848  14.523
 6766CHOL    R483485   8.545  26.748  14.633
 6766CHOL    R583486   8.402  26.694  14.481
 6766CHOL    C183487   8.421  26.463  14.418
 6766CHOL    C283488   8.440  26.232  14.355
 6767CHOL   ROH83489  16.083   8.734  -6.718
 6767CHOL    R183490  16.024   8.748  -6.570
 6767CHOL    R283491  15.800   8.700  -6.525
 6767CHOL    R383492  15.957   8.764  -6.403
 6767CHOL    R483493  15.748   8.712  -6.396
 6767CHOL    R583494  15.898   8.778  -6.255
 6767CHOL    C183495  15.809   8.799  -6.033
 6767CHOL    C283496  15.720   8.820  -5.811
 6768CHOL   ROH83497  -7.883  12.285   9.998
 6768CHOL    R183498  -7.724  12.265   9.999
 6768CHOL    R283499  -7.582  12.436  10.069
 6768CHOL    R383500  -7.546  12.241  10.001
 6768CHOL    R483501  -7.443  12.418  10.070
 6768CHOL    R583502  -7.387  12.221  10.003
 6768CHOL    C183503  -7.149  12.190  10.005
 6768CHOL    C283504  -6.911  12.160  10.007
 6769CHOL   ROH83505  14.166   6.019  -6.951
 6769CHOL    R183506  14.124   6.055  -6.801
 6769CHOL    R283507  14.082   6.276  -6.738
 6769CHOL    R383508  14.077   6.096  -6.632
 6769CHOL    R483509  14.045   6.308  -6.607
 6769CHOL    R583510  14.035   6.133  -6.482
 6769CHOL    C183511  13.972   6.187  -6.257
 6769CHOL    C283512  13.909   6.241  -6.032
 6770CHOL   ROH83513   3.682  15.910  -5.741
 6770CHOL    R183514   3.738  15.856  -5.601
 6770CHOL    R283515   3.668  15.949  -5.399
 6770CHOL    R383516   3.800  15.794  -5.444
 6770CHOL    R483517   3.717  15.902  -5.277
 6770CHOL    R583518   3.856  15.740  -5.304
 6770CHOL    C183519   3.940  15.658  -5.094
 6770CHOL    C283520   4.023  15.577  -4.884
 6771CHOL   ROH83521  -7.654  13.422   9.034
 6771CHOL    R183522  -7.497  13.391   9.045
 6771CHOL    R283523  -7.420  13.194   9.144
 6771CHOL    R383524  -7.321  13.357   9.057
 6771CHOL    R483525  -7.283  13.168   9.153
 6771CHOL    R583526  -7.165  13.326   9.068
 6771CHOL    C183527  -6.930  13.280   9.084
 6771CHOL    C283528  -6.695  13.234   9.101
 6772CHOL   ROH83529  14.091   3.958  -6.339
 6772CHOL    R183530  14.053   4.012  -6.193
 6772CHOL    R283531  13.997   4.235  -6.158
 6772CHOL    R383532  14.011   4.072  -6.029
 6772CHOL    R483533  13.964   4.282  -6.031
 6772CHOL    R583534  13.973   4.125  -5.883
 6772CHOL    C183535  13.917   4.206  -5.664
 6772CHOL    C283536  13.861   4.286  -5.445
 6773CHOL   ROH83537  -1.316   2.320  -1.634
 6773CHOL    R183538  -1.220   2.391  -1.528
 6773CHOL    R283539  -1.307   2.524  -1.357
 6773CHOL    R383540  -1.112   2.471  -1.408
 6773CHOL    R483541  -1.223   2.586  -1.264
 6773CHOL    R583542  -1.015   2.542  -1.302
 6773CHOL    C183543  -0.871   2.649  -1.142
 6773CHOL    C283544  -0.727   2.755  -0.982
 6774CHOL   ROH83545  -1.602  23.648  11.155
 6774CHOL    R183546  -1.499  23.525  11.149
 6774CHOL    R283547  -1.282  23.548  11.230
 6774CHOL    R383548  -1.384  23.388  11.143
 6774CHOL    R483549  -1.192  23.440  11.225
 6774CHOL    R583550  -1.281  23.265  11.138
 6774CHOL    C183551  -1.127  23.081  11.129
 6774CHOL    C283552  -0.973  22.897  11.121
 6775CHOL   ROH83553   6.597   4.534  -6.757
 6775CHOL    R183554   6.622   4.581  -6.606
 6775CHOL    R283555   6.502   4.487  -6.430
 6775CHOL    R383556   6.650   4.634  -6.436
 6775CHOL    R483557   6.523   4.528  -6.298
 6775CHOL    R583558   6.675   4.681  -6.286
 6775CHOL    C183559   6.712   4.752  -6.059
 6775CHOL    C283560   6.749   4.822  -5.833
 6776CHOL   ROH83561  -3.878  20.654   5.704
 6776CHOL    R183562  -3.756  20.559   5.745
 6776CHOL    R283563  -3.745  20.461   5.956
 6776CHOL    R383564  -3.619  20.452   5.791
 6776CHOL    R483565  -3.639  20.378   5.992
 6776CHOL    R583566  -3.497  20.357   5.831
 6776CHOL    C183567  -3.313  20.214   5.893
 6776CHOL    C283568  -3.130  20.072   5.954
 6777CHOL   ROH83569  12.692  27.604   9.446
 6777CHOL    R183570  12.668  27.446   9.449
 6777CHOL    R283571  12.718  27.321   9.640
 6777CHOL    R383572  12.642  27.268   9.453
 6777CHOL    R483573  12.698  27.182   9.642
 6777CHOL    R583574  12.618  27.110   9.456
 6777CHOL    C183575  12.582  26.872   9.461
 6777CHOL    C283576  12.547  26.635   9.466
 6778CHOL   ROH83577  -1.632  -1.204   1.967
 6778CHOL    R183578  -1.530  -1.104   2.039
 6778CHOL    R283579  -1.384  -1.181   2.204
 6778CHOL    R383580  -1.414  -0.993   2.120
 6778CHOL    R483581  -1.294  -1.094   2.267
 6778CHOL    R583582  -1.312  -0.893   2.192
 6778CHOL    C183583  -1.158  -0.744   2.300
 6778CHOL    C283584  -1.005  -0.594   2.408
 6779CHOL   ROH83585  15.354  -4.885  18.158
 6779CHOL    R183586  15.305  -4.751  18.085
 6779CHOL    R283587  15.458  -4.602  17.993
 6779CHOL    R383588  15.250  -4.601  18.004
 6779CHOL    R483589  15.415  -4.485  17.929
 6779CHOL    R583590  15.200  -4.467  17.931
 6779CHOL    C183591  15.127  -4.266  17.822
 6779CHOL    C283592  15.053  -4.066  17.713
 6780CHOL   ROH83593  14.044  21.774  22.684
 6780CHOL    R183594  14.009  21.666  22.572
 6780CHOL    R283595  14.150  21.633  22.388
 6780CHOL    R383596  13.970  21.543  22.445
 6780CHOL    R483597  14.119  21.538  22.290
 6780CHOL    R583598  13.935  21.435  22.333
 6780CHOL    C183599  13.883  21.272  22.165
 6780CHOL    C283600  13.830  21.110  21.996
 6781CHOL   ROH83601  -4.870  17.162  17.087
 6781CHOL    R183602  -4.739  17.096  17.024
 6781CHOL    R283603  -4.555  17.044  17.157
 6781CHOL    R383604  -4.591  17.021  16.953
 6781CHOL    R483605  -4.440  16.986  17.102
 6781CHOL    R583606  -4.460  16.955  16.890
 6781CHOL    C183607  -4.263  16.856  16.795
 6781CHOL    C283608  -4.066  16.756  16.700
 6782CHOL   ROH83609  24.012  11.276  20.766
 6782CHOL    R183610  23.886  11.265  20.667
 6782CHOL    R283611  23.876  11.393  20.473
 6782CHOL    R383612  23.745  11.254  20.557
 6782CHOL    R483613  23.766  11.384  20.386
 6782CHOL    R583614  23.619  11.243  20.458
 6782CHOL    C183615  23.431  11.227  20.310
 6782CHOL    C283616  23.243  11.211  20.162
 6783CHOL   ROH83617   0.652  25.244  10.844
 6783CHOL    R183618   0.734  25.107  10.842
 6783CHOL    R283619   0.927  25.084  10.713
 6783CHOL    R383620   0.827  24.952  10.840
 6783CHOL    R483621   0.999  24.964  10.711
 6783CHOL    R583622   0.909  24.815  10.837
 6783CHOL    C183623   1.032  24.609  10.834
 6783CHOL    C283624   1.156  24.403  10.831
 6784CHOL   ROH83625  -4.789  17.003   2.650
 6784CHOL    R183626  -4.656  16.941   2.713
 6784CHOL    R283627  -4.548  17.045   2.892
 6784CHOL    R383628  -4.506  16.871   2.784
 6784CHOL    R483629  -4.432  16.990   2.947
 6784CHOL    R583630  -4.373  16.808   2.847
 6784CHOL    C183631  -4.173  16.715   2.942
 6784CHOL    C283632  -3.974  16.622   3.037
 6785CHOL   ROH83633  20.195  -4.078  13.643
 6785CHOL    R183634  20.103  -3.951  13.609
 6785CHOL    R283635  20.177  -3.734  13.653
 6785CHOL    R383636  20.001  -3.809  13.570
 6785CHOL    R483637  20.097  -3.624  13.623
 6785CHOL    R583638  19.909  -3.682  13.536
 6785CHOL    C183639  19.772  -3.492  13.485
 6785CHOL    C283640  19.634  -3.302  13.433
 6786CHOL   ROH83641   1.837   9.678  25.932
 6786CHOL    R183642   1.905   9.679  25.787
 6786CHOL    R283643   2.027   9.495  25.711
 6786CHOL    R383644   1.982   9.680  25.625
 6786CHOL    R483645   2.087   9.496  25.585
 6786CHOL    R583646   2.051   9.680  25.480
 6786CHOL    C183647   2.153   9.682  25.263
 6786CHOL    C283648   2.255   9.683  25.046
 6787CHOL   ROH83649   0.685   0.641  22.034
 6787CHOL    R183650   0.770   0.722  21.925
 6787CHOL    R283651   0.994   0.775  21.963
 6787CHOL    R383652   0.865   0.814  21.803
 6787CHOL    R483653   1.068   0.847  21.868
 6787CHOL    R583654   0.950   0.895  21.694
 6787CHOL    C183655   1.077   1.017  21.532
 6787CHOL    C283656   1.204   1.139  21.369
 6788CHOL   ROH83657  17.879  -5.581   6.581
 6788CHOL    R183658  17.809  -5.441   6.612
 6788CHOL    R283659  17.936  -5.252   6.663
 6788CHOL    R383660  17.730  -5.283   6.647
 6788CHOL    R483661  17.874  -5.129   6.690
 6788CHOL    R583662  17.660  -5.143   6.678
 6788CHOL    C183663  17.554  -4.932   6.725
 6788CHOL    C283664  17.449  -4.722   6.771
 6789CHOL   ROH83665  20.367  21.229   1.021
 6789CHOL    R183666  20.273  21.127   1.101
 6789CHOL    R283667  20.194  20.932   1.000
 6789CHOL    R383668  20.167  21.013   1.191
 6789CHOL    R483669  20.112  20.843   1.070
 6789CHOL    R583670  20.072  20.911   1.270
 6789CHOL    C183671  19.931  20.758   1.390
 6789CHOL    C283672  19.790  20.606   1.510
 6790CHOL   ROH83673  26.404  16.622  10.599
 6790CHOL    R183674  26.255  16.563  10.597
 6790CHOL    R283675  26.215  16.342  10.532
 6790CHOL    R383676  26.088  16.496  10.594
 6790CHOL    R483677  26.085  16.291  10.530
 6790CHOL    R583678  25.940  16.437  10.592
 6790CHOL    C183679  25.717  16.348  10.588
 6790CHOL    C283680  25.494  16.259  10.584
 6791CHOL   ROH83681   5.752  16.093  -6.346
 6791CHOL    R183682   5.789  16.037  -6.201
 6791CHOL    R283683   5.818  16.181  -6.020
 6791CHOL    R383684   5.832  15.973  -6.038
 6791CHOL    R483685   5.851  16.132  -5.893
 6791CHOL    R583686   5.869  15.917  -5.893
 6791CHOL    C183687   5.925  15.833  -5.676
 6791CHOL    C283688   5.981  15.748  -5.458
 6792CHOL   ROH83689  14.825  21.842  22.345
 6792CHOL    R183690  14.782  21.734  22.235
 6792CHOL    R283691  14.853  21.754  22.014
 6792CHOL    R383692  14.735  21.612  22.111
 6792CHOL    R483693  14.815  21.659  21.917
 6792CHOL    R583694  14.692  21.504  22.002
 6792CHOL    C183695  14.628  21.342  21.837
 6792CHOL    C283696  14.564  21.180  21.672
 6793CHOL   ROH83697  17.556  13.522  25.699
 6793CHOL    R183698  17.484  13.489  25.560
 6793CHOL    R283699  17.550  13.307  25.430
 6793CHOL    R383700  17.402  13.452  25.404
 6793CHOL    R483701  17.487  13.279  25.308
 6793CHOL    R583702  17.330  13.420  25.265
 6793CHOL    C183703  17.221  13.370  25.057
 6793CHOL    C283704  17.112  13.321  24.848
 6794CHOL   ROH83705  21.839  22.984   7.177
 6794CHOL    R183706  21.731  22.868   7.201
 6794CHOL    R283707  21.559  22.830   7.049
 6794CHOL    R383708  21.611  22.737   7.229
 6794CHOL    R483709  21.465  22.728   7.070
 6794CHOL    R583710  21.503  22.621   7.253
 6794CHOL    C183711  21.342  22.447   7.289
 6794CHOL    C283712  21.180  22.273   7.326
 6795CHOL   ROH83713  15.141  23.426  20.399
 6795CHOL    R183714  15.096  23.304  20.305
 6795CHOL    R283715  15.109  23.084  20.380
 6795CHOL    R383716  15.045  23.168  20.200
 6795CHOL    R483717  15.070  22.978  20.298
 6795CHOL    R583718  15.000  23.046  20.106
 6795CHOL    C183719  14.932  22.864  19.966
 6795CHOL    C283720  14.865  22.681  19.826
 6796CHOL   ROH83721  -1.199  18.889  -0.958
 6796CHOL    R183722  -1.099  18.810  -0.861
 6796CHOL    R283723  -0.872  18.862  -0.855
 6796CHOL    R383724  -0.987  18.721  -0.752
 6796CHOL    R483725  -0.785  18.793  -0.770
 6796CHOL    R583726  -0.888  18.642  -0.655
 6796CHOL    C183727  -0.738  18.523  -0.510
 6796CHOL    C283728  -0.588  18.405  -0.364
 6797CHOL   ROH83729   0.358  24.872  12.722
 6797CHOL    R183730   0.441  24.738  12.696
 6797CHOL    R283731   0.670  24.746  12.650
 6797CHOL    R383732   0.535  24.587  12.668
 6797CHOL    R483733   0.743  24.628  12.628
 6797CHOL    R583734   0.618  24.453  12.642
 6797CHOL    C183735   0.744  24.252  12.604
 6797CHOL    C283736   0.869  24.051  12.565
 6798CHOL   ROH83737   3.953  20.899  22.749
 6798CHOL    R183738   4.003  20.799  22.634
 6798CHOL    R283739   4.090  20.590  22.687
 6798CHOL    R383740   4.059  20.687  22.505
 6798CHOL    R483741   4.134  20.502  22.587
 6798CHOL    R583742   4.109  20.588  22.391
 6798CHOL    C183743   4.185  20.438  22.218
 6798CHOL    C283744   4.260  20.288  22.046
 6799CHOL   ROH83745   6.429  27.527   9.372
 6799CHOL    R183746   6.457  27.370   9.378
 6799CHOL    R283747   6.545  27.271   9.571
 6799CHOL    R383748   6.489  27.193   9.386
 6799CHOL    R483749   6.569  27.134   9.577
 6799CHOL    R583750   6.517  27.035   9.392
 6799CHOL    C183751   6.560  26.800   9.402
 6799CHOL    C283752   6.602  26.564   9.411
 6800CHOL   ROH83753   4.901  17.368  25.500
 6800CHOL    R183754   4.945  17.300  25.362
 6800CHOL    R283755   5.132  17.160  25.352
 6800CHOL    R383756   4.995  17.223  25.207
 6800CHOL    R483757   5.171  17.100  25.232
 6800CHOL    R583758   5.039  17.155  25.070
 6800CHOL    C183759   5.106  17.052  24.863
 6800CHOL    C283760   5.172  16.950  24.656
 6801CHOL   ROH83761  13.023   7.839  -7.553
 6801CHOL    R183762  12.995   7.860  -7.397
 6801CHOL    R283763  13.011   8.071  -7.299
 6801CHOL    R383764  12.963   7.883  -7.221
 6801CHOL    R483765  12.987   8.089  -7.162
 6801CHOL    R583766  12.935   7.904  -7.065
 6801CHOL    C183767  12.893   7.934  -6.831
 6801CHOL    C283768  12.851   7.965  -6.597
 6802CHOL   ROH83769  -4.614  20.491  10.191
 6802CHOL    R183770  -4.486  20.395  10.186
 6802CHOL    R283771  -4.286  20.468  10.092
 6802CHOL    R383772  -4.342  20.288  10.180
 6802CHOL    R483773  -4.173  20.385  10.087
 6802CHOL    R583774  -4.214  20.193  10.175
 6802CHOL    C183775  -4.021  20.049  10.168
 6802CHOL    C283776  -3.829  19.906  10.161
 6803CHOL   ROH83777   5.943  -2.442  22.152
 6803CHOL    R183778   5.978  -2.329  22.044
 6803CHOL    R283779   6.007  -2.107  22.109
 6803CHOL    R383780   6.018  -2.202  21.923
 6803CHOL    R483781   6.038  -2.008  22.014
 6803CHOL    R583782   6.053  -2.090  21.816
 6803CHOL    C183783   6.107  -1.920  21.654
 6803CHOL    C283784   6.160  -1.751  21.492
 6804CHOL   ROH83785  -3.316   4.815  -0.996
 6804CHOL    R183786  -3.199   4.860  -0.897
 6804CHOL    R283787  -3.200   4.796  -0.673
 6804CHOL    R383788  -3.067   4.912  -0.785
 6804CHOL    R483789  -3.097   4.836  -0.586
 6804CHOL    R583790  -2.950   4.957  -0.686
 6804CHOL    C183791  -2.774   5.025  -0.537
 6804CHOL    C283792  -2.599   5.093  -0.388
 6805CHOL   ROH83793   7.656  18.715  25.392
 6805CHOL    R183794   7.677  18.635  25.255
 6805CHOL    R283795   7.865  18.671  25.123
 6805CHOL    R383796   7.700  18.545  25.101
 6805CHOL    R483797   7.884  18.601  25.003
 6805CHOL    R583798   7.721  18.465  24.964
 6805CHOL    C183799   7.752  18.345  24.759
 6805CHOL    C283800   7.783  18.225  24.553
 6806CHOL   ROH83801  26.840   6.569   5.689
 6806CHOL    R183802  26.687   6.597   5.726
 6806CHOL    R283803  26.540   6.686   5.568
 6806CHOL    R383804  26.515   6.630   5.767
 6806CHOL    R483805  26.406   6.711   5.600
 6806CHOL    R583806  26.361   6.658   5.804
 6806CHOL    C183807  26.132   6.701   5.859
 6806CHOL    C283808  25.902   6.743   5.914
 6807CHOL   ROH83809  -0.305   3.377  -3.119
 6807CHOL    R183810  -0.214   3.440  -3.003
 6807CHOL    R283811  -0.309   3.511  -2.802
 6807CHOL    R383812  -0.112   3.510  -2.873
 6807CHOL    R483813  -0.229   3.566  -2.701
 6807CHOL    R583814  -0.021   3.573  -2.757
 6807CHOL    C183815   0.115   3.667  -2.583
 6807CHOL    C283816   0.251   3.761  -2.409
 6808CHOL   ROH83817  -0.436  -2.160  18.049
 6808CHOL    R183818  -0.344  -2.051  17.976
 6808CHOL    R283819  -0.232  -1.888  18.099
 6808CHOL    R383820  -0.241  -1.928  17.895
 6808CHOL    R483821  -0.151  -1.792  18.036
 6808CHOL    R583822  -0.150  -1.818  17.822
 6808CHOL    C183823  -0.012  -1.655  17.713
 6808CHOL    C283824   0.126  -1.491  17.604
 6809CHOL   ROH83825   3.286   3.746  25.348
 6809CHOL    R183826   3.345   3.801  25.210
 6809CHOL    R283827   3.419   3.653  25.044
 6809CHOL    R383828   3.412   3.862  25.054
 6809CHOL    R483829   3.471   3.701  24.924
 6809CHOL    R583830   3.471   3.917  24.916
 6809CHOL    C183831   3.561   3.998  24.709
 6809CHOL    C283832   3.650   4.080  24.501
 6810CHOL   ROH83833  24.216  17.656  17.400
 6810CHOL    R183834  24.087  17.586  17.336
 6810CHOL    R283835  24.035  17.615  17.110
 6810CHOL    R383836  23.942  17.507  17.263
 6810CHOL    R483837  23.922  17.553  17.054
 6810CHOL    R583838  23.813  17.437  17.199
 6810CHOL    C183839  23.620  17.333  17.103
 6810CHOL    C283840  23.427  17.228  17.006
 6811CHOL   ROH83841   7.543  19.500  -5.037
 6811CHOL    R183842   7.562  19.414  -4.904
 6811CHOL    R283843   7.752  19.281  -4.872
 6811CHOL    R383844   7.583  19.316  -4.753
 6811CHOL    R483845   7.768  19.206  -4.755
 6811CHOL    R583846   7.603  19.230  -4.620
 6811CHOL    C183847   7.631  19.100  -4.420
 6811CHOL    C283848   7.660  18.971  -4.220
 6812CHOL   ROH83849  14.290  -7.248   8.171
 6812CHOL    R183850  14.246  -7.095   8.188
 6812CHOL    R283851  14.307  -6.973   8.377
 6812CHOL    R383852  14.196  -6.923   8.207
 6812CHOL    R483853  14.269  -6.839   8.392
 6812CHOL    R583854  14.152  -6.771   8.224
 6812CHOL    C183855  14.086  -6.541   8.249
 6812CHOL    C283856  14.020  -6.312   8.275
 6813CHOL   ROH83857   9.228  27.085  15.120
 6813CHOL    R183858   9.233  26.932  15.075
 6813CHOL    R283859   9.355  26.775  15.197
 6813CHOL    R383860   9.239  26.759  15.024
 6813CHOL    R483861   9.359  26.640  15.158
 6813CHOL    R583862   9.244  26.605  14.979
 6813CHOL    C183863   9.252  26.375  14.911
 6813CHOL    C283864   9.260  26.145  14.844
 6814CHOL   ROH83865  -6.253  11.745  17.501
 6814CHOL    R183866  -6.109  11.730  17.432
 6814CHOL    R283867  -5.939  11.609  17.534
 6814CHOL    R383868  -5.948  11.714  17.354
 6814CHOL    R483869  -5.813  11.596  17.474
 6814CHOL    R583870  -5.805  11.699  17.285
 6814CHOL    C183871  -5.589  11.677  17.181
 6814CHOL    C283872  -5.374  11.655  17.078
 6815CHOL   ROH83873   4.730  27.016  11.847
 6815CHOL    R183874   4.778  26.864  11.828
 6815CHOL    R283875   4.922  26.764  11.982
 6815CHOL    R383876   4.832  26.694  11.807
 6815CHOL    R483877   4.964  26.632  11.965
 6815CHOL    R583878   4.880  26.542  11.789
 6815CHOL    C183879   4.952  26.315  11.760
 6815CHOL    C283880   5.024  26.088  11.732
 6816CHOL   ROH83881  15.570  24.384   1.060
 6816CHOL    R183882  15.518  24.254   1.138
 6816CHOL    R283883  15.596  24.203   1.351
 6816CHOL    R383884  15.459  24.108   1.225
 6816CHOL    R483885  15.550  24.089   1.419
 6816CHOL    R583886  15.407  23.979   1.302
 6816CHOL    C183887  15.328  23.784   1.419
 6816CHOL    C283888  15.250  23.589   1.535
 6817CHOL   ROH83889   5.856  -0.039  -4.324
 6817CHOL    R183890   5.895   0.054  -4.200
 6817CHOL    R283891   6.009  -0.032  -4.016
 6817CHOL    R383892   5.938   0.160  -4.061
 6817CHOL    R483893   6.043   0.050  -3.907
 6817CHOL    R583894   5.976   0.253  -3.937
 6817CHOL    C183895   6.034   0.393  -3.751
 6817CHOL    C283896   6.092   0.533  -3.565
 6818CHOL   ROH83897   7.692   1.641  25.512
 6818CHOL    R183898   7.713   1.711  25.370
 6818CHOL    R283899   7.887   1.864  25.336
 6818CHOL    R383900   7.738   1.790  25.210
 6818CHOL    R483901   7.905   1.926  25.212
 6818CHOL    R583902   7.759   1.860  25.068
 6818CHOL    C183903   7.791   1.966  24.854
 6818CHOL    C283904   7.823   2.071  24.641
 6819CHOL   ROH83905   3.197  23.426  19.623
 6819CHOL    R183906   3.255  23.306  19.535
 6819CHOL    R283907   3.451  23.331  19.411
 6819CHOL    R383908   3.320  23.170  19.436
 6819CHOL    R483909   3.502  23.225  19.334
 6819CHOL    R583910   3.378  23.050  19.348
 6819CHOL    C183911   3.465  22.869  19.216
 6819CHOL    C283912   3.552  22.688  19.084
 6820CHOL   ROH83913   2.675   1.083  -3.730
 6820CHOL    R183914   2.743   1.165  -3.610
 6820CHOL    R283915   2.670   1.137  -3.390
 6820CHOL    R383916   2.819   1.257  -3.476
 6820CHOL    R483917   2.730   1.209  -3.286
 6820CHOL    R583918   2.886   1.338  -3.356
 6820CHOL    C183919   2.988   1.461  -3.176
 6820CHOL    C283920   3.090   1.584  -2.997
 6821CHOL   ROH83921  23.269  16.965   0.404
 6821CHOL    R183922  23.148  16.902   0.487
 6821CHOL    R283923  22.942  16.860   0.386
 6821CHOL    R383924  23.011  16.832   0.581
 6821CHOL    R483925  22.836  16.805   0.459
 6821CHOL    R583926  22.890  16.769   0.664
 6821CHOL    C183927  22.707  16.675   0.789
 6821CHOL    C283928  22.525  16.581   0.914
 6822CHOL   ROH83929   7.058   3.938  26.398
 6822CHOL    R183930   7.084   3.994  26.250
 6822CHOL    R283931   7.288   4.092  26.193
 6822CHOL    R383932   7.113   4.057  26.084
 6822CHOL    R483933   7.310   4.141  26.064
 6822CHOL    R583934   7.139   4.113  25.936
 6822CHOL    C183935   7.178   4.196  25.715
 6822CHOL    C283936   7.217   4.280  25.493
 6823CHOL   ROH83937  23.474  21.531  10.832
 6823CHOL    R183938  23.351  21.430  10.820
 6823CHOL    R283939  23.386  21.202  10.785
 6823CHOL    R383940  23.212  21.316  10.805
 6823CHOL    R483941  23.278  21.113  10.774
 6823CHOL    R583942  23.089  21.214  10.793
 6823CHOL    C183943  22.904  21.063  10.774
 6823CHOL    C283944  22.719  20.911  10.756
 6824CHOL   ROH83945  -5.510  10.900   0.863
 6824CHOL    R183946  -5.372  10.894   0.943
 6824CHOL    R283947  -5.304  10.699   1.051
 6824CHOL    R383948  -5.216  10.887   1.034
 6824CHOL    R483949  -5.183  10.694   1.122
 6824CHOL    R583950  -5.078  10.881   1.114
 6824CHOL    C183951  -4.871  10.873   1.234
 6824CHOL    C283952  -4.663  10.864   1.355
 6825CHOL   ROH83953   9.256   1.212  25.442
 6825CHOL    R183954   9.263   1.289  25.302
 6825CHOL    R283955   9.400   1.476  25.275
 6825CHOL    R383956   9.272   1.376  25.145
 6825CHOL    R483957   9.407   1.543  25.152
 6825CHOL    R583958   9.279   1.453  25.005
 6825CHOL    C183959   9.290   1.569  24.795
 6825CHOL    C283960   9.301   1.684  24.585
 6826CHOL   ROH83961   1.643  -3.632  18.061
 6826CHOL    R183962   1.716  -3.511  17.987
 6826CHOL    R283963   1.793  -3.326  18.107
 6826CHOL    R383964   1.799  -3.374  17.904
 6826CHOL    R483965   1.857  -3.219  18.042
 6826CHOL    R583966   1.872  -3.252  17.830
 6826CHOL    C183967   1.982  -3.070  17.719
 6826CHOL    C283968   2.092  -2.888  17.608
 6827CHOL   ROH83969  27.312  13.306  11.449
 6827CHOL    R183970  27.155  13.279  11.434
 6827CHOL    R283971  27.043  13.333  11.236
 6827CHOL    R383972  26.978  13.250  11.416
 6827CHOL    R483973  26.906  13.310  11.223
 6827CHOL    R583974  26.821  13.223  11.401
 6827CHOL    C183975  26.586  13.183  11.378
 6827CHOL    C283976  26.351  13.143  11.355
 6828CHOL   ROH83977  25.127   4.538  17.412
 6828CHOL    R183978  24.990   4.582  17.343
 6828CHOL    R283979  24.949   4.806  17.289
 6828CHOL    R383980  24.835   4.632  17.265
 6828CHOL    R483981  24.829   4.845  17.229
 6828CHOL    R583982  24.698   4.677  17.195
 6828CHOL    C183983  24.492   4.743  17.092
 6828CHOL    C283984  24.286   4.809  16.988
 6829CHOL   ROH83985   7.019  27.636  10.126
 6829CHOL    R183986   7.041  27.478  10.126
 6829CHOL    R283987   7.096  27.364  10.322
 6829CHOL    R383988   7.067  27.299  10.125
 6829CHOL    R483989   7.115  27.225  10.321
 6829CHOL    R583990   7.089  27.141  10.125
 6829CHOL    C183991   7.123  26.903  10.124
 6829CHOL    C283992   7.156  26.666  10.123
 6830CHOL   ROH83993   8.419  21.012  23.900
 6830CHOL    R183994   8.434  20.911  23.777
 6830CHOL    R283995   8.597  20.945  23.613
 6830CHOL    R383996   8.452  20.797  23.638
 6830CHOL    R483997   8.611  20.857  23.506
 6830CHOL    R583998   8.467  20.696  23.515
 6830CHOL    C183999   8.490  20.545  23.330
 6830CHOL    C284000   8.513  20.394  23.145
 6831CHOL   ROH84001  -5.337  18.253  14.431
 6831CHOL    R184002  -5.201  18.177  14.392
 6831CHOL    R284003  -5.115  18.008  14.528
 6831CHOL    R384004  -5.049  18.093  14.349
 6831CHOL    R484005  -4.997  17.942  14.494
 6831CHOL    R584006  -4.913  18.017  14.310
 6831CHOL    C184007  -4.709  17.904  14.252
 6831CHOL    C284008  -4.506  17.790  14.194
 6832CHOL   ROH84009  -6.365   2.808  11.717
 6832CHOL    R184010  -6.219   2.871  11.700
 6832CHOL    R284011  -6.033   2.771  11.797
 6832CHOL    R384012  -6.055   2.942  11.680
 6832CHOL    R484013  -5.905   2.826  11.782
 6832CHOL    R584014  -5.909   3.005  11.662
 6832CHOL    C184015  -5.690   3.100  11.636
 6832CHOL    C284016  -5.471   3.194  11.610
 6833CHOL   ROH84017   5.873  -7.249  12.370
 6833CHOL    R184018   5.908  -7.094  12.349
 6833CHOL    R284019   5.986  -6.964  12.526
 6833CHOL    R384020   5.948  -6.921  12.325
 6833CHOL    R484021   6.017  -6.828  12.507
 6833CHOL    R584022   5.983  -6.766  12.303
 6833CHOL    C184023   6.037  -6.534  12.272
 6833CHOL    C284024   6.090  -6.302  12.240
 6834CHOL   ROH84025   1.927   7.215  -5.850
 6834CHOL    R184026   1.998   7.238  -5.709
 6834CHOL    R284027   2.010   7.067  -5.551
 6834CHOL    R384028   2.079   7.264  -5.550
 6834CHOL    R484029   2.072   7.088  -5.427
 6834CHOL    R584030   2.150   7.288  -5.409
 6834CHOL    C184031   2.257   7.322  -5.197
 6834CHOL    C284032   2.364   7.357  -4.985
 6835CHOL   ROH84033  -7.434  14.468  10.410
 6835CHOL    R184034  -7.280  14.426  10.406
 6835CHOL    R284035  -7.199  14.250  10.537
 6835CHOL    R384036  -7.106  14.379  10.401
 6835CHOL    R484037  -7.064  14.214  10.533
 6835CHOL    R584038  -6.952  14.337  10.397
 6835CHOL    C184039  -6.720  14.274  10.391
 6835CHOL    C284040  -6.488  14.211  10.385
 6836CHOL   ROH84041  23.035  22.096   9.593
 6836CHOL    R184042  22.916  21.989   9.596
 6836CHOL    R284043  22.763  21.975   9.421
 6836CHOL    R384044  22.782  21.869   9.599
 6836CHOL    R484045  22.659  21.882   9.424
 6836CHOL    R584046  22.663  21.761   9.602
 6836CHOL    C184047  22.485  21.601   9.607
 6836CHOL    C284048  22.307  21.440   9.612
 6837CHOL   ROH84049   3.377  26.635  10.488
 6837CHOL    R184050   3.437  26.487  10.482
 6837CHOL    R284051   3.660  26.451  10.424
 6837CHOL    R384052   3.505  26.321  10.475
 6837CHOL    R484053   3.713  26.321  10.419
 6837CHOL    R584054   3.566  26.173  10.470
 6837CHOL    C184055   3.656  25.951  10.461
 6837CHOL    C284056   3.746  25.729  10.452
 6838CHOL   ROH84057  13.072  -7.329   6.660
 6838CHOL    R184058  13.040  -7.175   6.688
 6838CHOL    R284059  13.002  -7.026   6.513
 6838CHOL    R384060  13.004  -7.001   6.721
 6838CHOL    R484061  12.974  -6.891   6.538
 6838CHOL    R584062  12.972  -6.847   6.749
 6838CHOL    C184063  12.924  -6.616   6.792
 6838CHOL    C284064  12.876  -6.384   6.834
 6839CHOL   ROH84065  -0.526  24.487  10.843
 6839CHOL    R184066  -0.434  24.356  10.843
 6839CHOL    R284067  -0.202  24.372  10.855
 6839CHOL    R384068  -0.331  24.209  10.843
 6839CHOL    R484069  -0.122  24.258  10.855
 6839CHOL    R584070  -0.239  24.077  10.843
 6839CHOL    C184071  -0.101  23.881  10.843
 6839CHOL    C284072   0.037  23.684  10.843
 6840CHOL   ROH84073  -0.886  15.514  22.987
 6840CHOL    R184074  -0.791  15.464  22.868
 6840CHOL    R284075  -0.560  15.446  22.899
 6840CHOL    R384076  -0.684  15.408  22.735
 6840CHOL    R484077  -0.477  15.403  22.795
 6840CHOL    R584078  -0.588  15.357  22.617
 6840CHOL    C184079  -0.446  15.282  22.439
 6840CHOL    C284080  -0.303  15.207  22.261
 6841CHOL   ROH84081  19.476  24.721  13.083
 6841CHOL    R184082  19.389  24.590  13.056
 6841CHOL    R284083  19.466  24.422  12.913
 6841CHOL    R384084  19.291  24.442  13.025
 6841CHOL    R484085  19.390  24.307  12.889
 6841CHOL    R584086  19.204  24.310  12.998
 6841CHOL    C184087  19.073  24.113  12.957
 6841CHOL    C284088  18.943  23.916  12.916
 6842CHOL   ROH84089  17.958  10.086  -5.936
 6842CHOL    R184090  17.885  10.086  -5.794
 6842CHOL    R284091  17.664  10.158  -5.772
 6842CHOL    R384092  17.803  10.085  -5.634
 6842CHOL    R484093  17.600  10.158  -5.647
 6842CHOL    R584094  17.730  10.084  -5.492
 6842CHOL    C184095  17.620  10.084  -5.278
 6842CHOL    C284096  17.510  10.083  -5.065
 6843CHOL   ROH84097   2.568  26.289  10.234
 6843CHOL    R184098   2.636  26.144  10.232
 6843CHOL    R284099   2.809  26.095  10.084
 6843CHOL    R384100   2.712  25.981  10.230
 6843CHOL    R484101   2.868  25.968  10.082
 6843CHOL    R584102   2.780  25.836  10.228
 6843CHOL    C184103   2.882  25.619  10.224
 6843CHOL    C284104   2.984  25.402  10.221
 6844CHOL   ROH84105   9.583  13.441  -7.588
 6844CHOL    R184106   9.584  13.409  -7.431
 6844CHOL    R284107   9.721  13.242  -7.343
 6844CHOL    R384108   9.586  13.374  -7.255
 6844CHOL    R484109   9.723  13.215  -7.206
 6844CHOL    R584110   9.587  13.343  -7.098
 6844CHOL    C184111   9.589  13.295  -6.863
 6844CHOL    C284112   9.591  13.248  -6.628
 6845CHOL   ROH84113  26.032  13.383  16.626
 6845CHOL    R184114  25.886  13.352  16.569
 6845CHOL    R284115  25.835  13.145  16.474
 6845CHOL    R384116  25.721  13.318  16.504
 6845CHOL    R484117  25.707  13.118  16.424
 6845CHOL    R584118  25.575  13.287  16.447
 6845CHOL    C184119  25.356  13.241  16.361
 6845CHOL    C284120  25.136  13.195  16.275
 6846CHOL   ROH84121  15.150  20.347  -3.652
 6846CHOL    R184122  15.104  20.258  -3.527
 6846CHOL    R284123  15.068  20.028  -3.550
 6846CHOL    R384124  15.052  20.158  -3.387
 6846CHOL    R484125  15.028  19.950  -3.441
 6846CHOL    R584126  15.006  20.068  -3.262
 6846CHOL    C184127  14.938  19.935  -3.076
 6846CHOL    C284128  14.869  19.801  -2.889
 6847CHOL   ROH84129  21.629  21.860  15.895
 6847CHOL    R184130  21.525  21.752  15.841
 6847CHOL    R284131  21.564  21.523  15.868
 6847CHOL    R384132  21.407  21.629  15.780
 6847CHOL    R484133  21.472  21.428  15.821
 6847CHOL    R584134  21.303  21.521  15.726
 6847CHOL    C184135  21.146  21.358  15.645
 6847CHOL    C284136  20.989  21.196  15.564
 6848CHOL   ROH84137  -1.379  22.022  16.856
 6848CHOL    R184138  -1.278  21.914  16.795
 6848CHOL    R284139  -1.063  21.888  16.881
 6848CHOL    R384140  -1.164  21.793  16.725
 6848CHOL    R484141  -0.975  21.794  16.828
 6848CHOL    R584142  -1.063  21.686  16.664
 6848CHOL    C184143  -0.911  21.524  16.572
 6848CHOL    C284144  -0.760  21.362  16.480
 6849CHOL   ROH84145  24.582   6.455   0.419
 6849CHOL    R184146  24.450   6.484   0.505
 6849CHOL    R284147  24.260   6.577   0.405
 6849CHOL    R384148  24.301   6.517   0.601
 6849CHOL    R484149  24.145   6.602   0.481
 6849CHOL    R584150  24.169   6.546   0.687
 6849CHOL    C184151  23.971   6.590   0.816
 6849CHOL    C284152  23.773   6.633   0.944
 6850CHOL   ROH84153  25.643   3.065  14.662
 6850CHOL    R184154  25.501   3.126  14.621
 6850CHOL    R284155  25.424   3.113  14.401
 6850CHOL    R384156  25.341   3.194  14.575
 6850CHOL    R484157  25.299   3.166  14.365
 6850CHOL    R584158  25.199   3.255  14.533
 6850CHOL    C184159  24.985   3.346  14.472
 6850CHOL    C284160  24.772   3.437  14.410
 6851CHOL   ROH84161  25.369   6.283   1.838
 6851CHOL    R184162  25.230   6.314   1.910
 6851CHOL    R284163  25.062   6.434   1.801
 6851CHOL    R384164  25.073   6.349   1.992
 6851CHOL    R484165  24.940   6.461   1.864
 6851CHOL    R584166  24.933   6.380   2.064
 6851CHOL    C184167  24.724   6.427   2.172
 6851CHOL    C284168  24.515   6.473   2.281
 6852CHOL   ROH84169   7.038  15.966  -6.671
 6852CHOL    R184170   7.063  15.911  -6.523
 6852CHOL    R284171   7.194  16.031  -6.371
 6852CHOL    R384172   7.091  15.850  -6.356
 6852CHOL    R484173   7.216  15.983  -6.242
 6852CHOL    R584174   7.116  15.795  -6.208
 6852CHOL    C184175   7.154  15.713  -5.986
 6852CHOL    C284176   7.192  15.631  -5.764
 6853CHOL   ROH84177   6.452  11.392  27.281
 6853CHOL    R184178   6.485  11.378  27.125
 6853CHOL    R284179   6.592  11.188  27.042
 6853CHOL    R384180   6.523  11.362  26.950
 6853CHOL    R484181   6.621  11.176  26.905
 6853CHOL    R584182   6.556  11.348  26.794
 6853CHOL    C184183   6.606  11.328  26.560
 6853CHOL    C284184   6.656  11.307  26.326
 6854CHOL   ROH84185   1.761  25.329   5.977
 6854CHOL    R184186   1.838  25.193   6.011
 6854CHOL    R284187   2.069  25.191   6.043
 6854CHOL    R384188   1.925  25.040   6.049
 6854CHOL    R484189   2.137  25.072   6.072
 6854CHOL    R584190   2.002  24.905   6.083
 6854CHOL    C184191   2.118  24.701   6.134
 6854CHOL    C284192   2.234  24.497   6.185
 6855CHOL   ROH84193   8.466  21.888  23.133
 6855CHOL    R184194   8.482  21.779  23.017
 6855CHOL    R284195   8.513  21.845  22.795
 6855CHOL    R384196   8.500  21.657  22.886
 6855CHOL    R484197   8.527  21.750  22.693
 6855CHOL    R584198   8.516  21.548  22.769
 6855CHOL    C184199   8.540  21.386  22.595
 6855CHOL    C284200   8.564  21.223  22.421
 6856CHOL   ROH84201   7.971  18.800  -5.513
 6856CHOL    R184202   7.987  18.722  -5.374
 6856CHOL    R284203   8.165  18.576  -5.338
 6856CHOL    R384204   8.004  18.634  -5.218
 6856CHOL    R484205   8.178  18.507  -5.217
 6856CHOL    R584206   8.020  18.556  -5.079
 6856CHOL    C184207   8.044  18.439  -4.871
 6856CHOL    C284208   8.067  18.322  -4.662
 6857CHOL   ROH84209  14.861  18.642  24.707
 6857CHOL    R184210  14.818  18.567  24.573
 6857CHOL    R284211  14.910  18.361  24.515
 6857CHOL    R384212  14.769  18.483  24.421
 6857CHOL    R484213  14.872  18.295  24.397
 6857CHOL    R584214  14.726  18.407  24.287
 6857CHOL    C184215  14.660  18.295  24.085
 6857CHOL    C284216  14.595  18.182  23.884
 6858CHOL   ROH84217  -7.868  12.068   9.013
 6858CHOL    R184218  -7.710  12.048   9.025
 6858CHOL    R284219  -7.569  12.230   9.065
 6858CHOL    R384220  -7.532  12.027   9.040
 6858CHOL    R484221  -7.431  12.213   9.076
 6858CHOL    R584222  -7.374  12.007   9.052
 6858CHOL    C184223  -7.136  11.978   9.071
 6858CHOL    C284224  -6.899  11.948   9.089
 6859CHOL   ROH84225  -3.872   5.784  -0.707
 6859CHOL    R184226  -3.749   5.818  -0.611
 6859CHOL    R284227  -3.768   5.796  -0.379
 6859CHOL    R384228  -3.611   5.856  -0.502
 6859CHOL    R484229  -3.660   5.825  -0.295
 6859CHOL    R584230  -3.487   5.891  -0.405
 6859CHOL    C184231  -3.303   5.942  -0.261
 6859CHOL    C284232  -3.118   5.993  -0.116
 6860CHOL   ROH84233   6.414  21.828  -2.950
 6860CHOL    R184234   6.442  21.718  -2.837
 6860CHOL    R284235   6.656  21.689  -2.749
 6860CHOL    R384236   6.473  21.595  -2.710
 6860CHOL    R484237   6.680  21.593  -2.650
 6860CHOL    R584238   6.501  21.485  -2.597
 6860CHOL    C184239   6.543  21.320  -2.428
 6860CHOL    C284240   6.585  21.156  -2.258
 6861CHOL   ROH84241  -4.108  14.564  -0.336
 6861CHOL    R184242  -3.983  14.522  -0.246
 6861CHOL    R284243  -3.798  14.662  -0.224
 6861CHOL    R384244  -3.841  14.474  -0.145
 6861CHOL    R484245  -3.688  14.625  -0.145
 6861CHOL    R584246  -3.716  14.432  -0.055
 6861CHOL    C184247  -3.528  14.368   0.080
 6861CHOL    C284248  -3.340  14.304   0.215
 6862CHOL   ROH84249  -2.287  -0.377  17.960
 6862CHOL    R184250  -2.178  -0.285  17.888
 6862CHOL    R284251  -1.977  -0.375  17.810
 6862CHOL    R384252  -2.055  -0.182  17.807
 6862CHOL    R484253  -1.882  -0.295  17.747
 6862CHOL    R584254  -1.945  -0.090  17.735
 6862CHOL    C184255  -1.782   0.048  17.627
 6862CHOL    C284256  -1.618   0.186  17.519
 6863CHOL   ROH84257   5.958   8.183  27.249
 6863CHOL    R184258   5.991   8.198  27.093
 6863CHOL    R284259   6.207   8.248  27.020
 6863CHOL    R384260   6.028   8.215  26.918
 6863CHOL    R484261   6.236   8.262  26.884
 6863CHOL    R584262   6.061   8.230  26.762
 6863CHOL    C184263   6.110   8.253  26.528
 6863CHOL    C284264   6.160   8.276  26.294
 6864CHOL   ROH84265  15.261   2.248  -5.281
 6864CHOL    R184266  15.216   2.316  -5.143
 6864CHOL    R284267  15.090   2.512  -5.141
 6864CHOL    R384268  15.165   2.392  -4.988
 6864CHOL    R484269  15.050   2.571  -5.020
 6864CHOL    R584270  15.120   2.459  -4.850
 6864CHOL    C184271  15.053   2.561  -4.643
 6864CHOL    C284272  14.986   2.663  -4.436
 6865CHOL   ROH84273  17.576   2.281  -4.249
 6865CHOL    R184274  17.504   2.345  -4.122
 6865CHOL    R284275  17.296   2.450  -4.142
 6865CHOL    R384276  17.422   2.417  -3.978
 6865CHOL    R484277  17.233   2.506  -4.030
 6865CHOL    R584278  17.349   2.481  -3.851
 6865CHOL    C184279  17.241   2.578  -3.660
 6865CHOL    C284280  17.132   2.674  -3.469
 6866CHOL   ROH84281  -7.080   4.441  10.426
 6866CHOL    R184282  -6.928   4.491  10.422
 6866CHOL    R284283  -6.752   4.344  10.465
 6866CHOL    R384284  -6.757   4.547  10.416
 6866CHOL    R484285  -6.619   4.388  10.461
 6866CHOL    R584286  -6.605   4.598  10.412
 6866CHOL    C184287  -6.378   4.673  10.405
 6866CHOL    C284288  -6.150   4.748  10.399
 6867CHOL   ROH84289  25.302  14.166  17.879
 6867CHOL    R184290  25.162  14.130  17.811
 6867CHOL    R284291  25.046  14.287  17.684
 6867CHOL    R384292  25.004  14.088  17.733
 6867CHOL    R484293  24.923  14.255  17.624
 6867CHOL    R584294  24.864  14.052  17.665
 6867CHOL    C184295  24.654  13.997  17.562
 6867CHOL    C284296  24.444  13.943  17.460
 6868CHOL   ROH84297  24.073  19.763   5.607
 6868CHOL    R184298  23.945  19.675   5.645
 6868CHOL    R284299  23.867  19.508   5.502
 6868CHOL    R384300  23.800  19.576   5.688
 6868CHOL    R484301  23.755  19.431   5.535
 6868CHOL    R584302  23.672  19.488   5.725
 6868CHOL    C184303  23.480  19.357   5.782
 6868CHOL    C284304  23.287  19.225   5.839
 6869CHOL   ROH84305   4.749  25.605   2.871
 6869CHOL    R184306   4.797  25.467   2.937
 6869CHOL    R284307   4.901  25.465   3.146
 6869CHOL    R384308   4.850  25.313   3.012
 6869CHOL    R484309   4.942  25.344   3.204
 6869CHOL    R584310   4.898  25.175   3.078
 6869CHOL    C184311   4.970  24.969   3.178
 6869CHOL    C284312   5.041  24.762   3.278
 6870CHOL   ROH84313  18.798  22.492   0.967
 6870CHOL    R184314  18.716  22.382   1.049
 6870CHOL    R284315  18.704  22.161   0.975
 6870CHOL    R384316  18.623  22.258   1.141
 6870CHOL    R484317  18.632  22.065   1.046
 6870CHOL    R584318  18.540  22.148   1.222
 6870CHOL    C184319  18.417  21.983   1.345
 6870CHOL    C284320  18.293  21.818   1.468
 6871CHOL   ROH84321  10.104  -7.311   5.355
 6871CHOL    R184322  10.108  -7.156   5.395
 6871CHOL    R284323  10.310  -7.040   5.407
 6871CHOL    R384324  10.112  -6.982   5.440
 6871CHOL    R484325  10.313  -6.904   5.442
 6871CHOL    R584326  10.115  -6.827   5.480
 6871CHOL    C184327  10.121  -6.595   5.541
 6871CHOL    C284328  10.127  -6.362   5.601
 6872CHOL   ROH84329  22.822   1.771  19.121
 6872CHOL    R184330  22.709   1.842  19.032
 6872CHOL    R284331  22.617   1.734  18.847
 6872CHOL    R384332  22.582   1.921  18.933
 6872CHOL    R484333  22.519   1.796  18.770
 6872CHOL    R584334  22.470   1.992  18.844
 6872CHOL    C184335  22.300   2.098  18.711
 6872CHOL    C284336  22.131   2.204  18.578
 6873CHOL   ROH84337   2.999  13.053  26.096
 6873CHOL    R184338   3.056  13.028  25.949
 6873CHOL    R284339   3.191  13.187  25.844
 6873CHOL    R384340   3.121  12.999  25.783
 6873CHOL    R484341   3.241  13.164  25.715
 6873CHOL    R584342   3.179  12.974  25.636
 6873CHOL    C184343   3.265  12.936  25.415
 6873CHOL    C284344   3.351  12.898  25.194
 6874CHOL   ROH84345  24.733  10.123   0.146
 6874CHOL    R184346  24.602  10.121   0.237
 6874CHOL    R284347  24.489  10.318   0.289
 6874CHOL    R384348  24.454  10.119   0.340
 6874CHOL    R484349  24.374  10.317   0.369
 6874CHOL    R584350  24.322  10.117   0.431
 6874CHOL    C184351  24.125  10.114   0.568
 6874CHOL    C284352  23.928  10.111   0.705
 6875CHOL   ROH84353  -3.502   1.186  17.894
 6875CHOL    R184354  -3.383   1.266  17.823
 6875CHOL    R284355  -3.196   1.153  17.740
 6875CHOL    R384356  -3.248   1.355  17.744
 6875CHOL    R484357  -3.091   1.223  17.678
 6875CHOL    R584358  -3.129   1.435  17.673
 6875CHOL    C184359  -2.950   1.555  17.567
 6875CHOL    C284360  -2.771   1.674  17.461
 6876CHOL   ROH84361   6.816  26.803  15.133
 6876CHOL    R184362   6.845  26.653  15.085
 6876CHOL    R284363   6.868  26.480  15.239
 6876CHOL    R384364   6.878  26.485  15.030
 6876CHOL    R484365   6.894  26.349  15.196
 6876CHOL    R584366   6.907  26.335  14.981
 6876CHOL    C184367   6.951  26.110  14.909
 6876CHOL    C284368   6.994  25.886  14.836
 6877CHOL   ROH84369  25.000   0.971   7.237
 6877CHOL    R184370  24.864   1.052   7.260
 6877CHOL    R284371  24.736   1.125   7.079
 6877CHOL    R384372  24.710   1.142   7.285
 6877CHOL    R484373  24.617   1.196   7.099
 6877CHOL    R584374  24.574   1.223   7.308
 6877CHOL    C184375  24.370   1.344   7.342
 6877CHOL    C284376  24.165   1.465   7.376
 6878CHOL   ROH84377  -1.753  20.863   1.836
 6878CHOL    R184378  -1.650  20.763   1.907
 6878CHOL    R284379  -1.676  20.705   2.132
 6878CHOL    R384380  -1.535  20.650   1.987
 6878CHOL    R484381  -1.586  20.617   2.194
 6878CHOL    R584382  -1.433  20.550   2.059
 6878CHOL    C184383  -1.279  20.400   2.165
 6878CHOL    C284384  -1.125  20.250   2.272
 6879CHOL   ROH84385  -5.798  18.043   6.892
 6879CHOL    R184386  -5.657  17.976   6.924
 6879CHOL    R284387  -5.643  17.781   7.052
 6879CHOL    R384388  -5.497  17.900   6.961
 6879CHOL    R484389  -5.519  17.722   7.080
 6879CHOL    R584390  -5.356  17.832   6.993
 6879CHOL    C184391  -5.144  17.731   7.041
 6879CHOL    C284392  -4.932  17.630   7.090
 6880CHOL   ROH84393   7.279  26.048   2.493
 6880CHOL    R184394   7.304  25.905   2.561
 6880CHOL    R284395   7.506  25.793   2.533
 6880CHOL    R384396   7.332  25.744   2.636
 6880CHOL    R484397   7.528  25.668   2.592
 6880CHOL    R584398   7.357  25.602   2.704
 6880CHOL    C184399   7.394  25.387   2.805
 6880CHOL    C284400   7.432  25.173   2.907
 6881CHOL   ROH84401  13.647  -0.033  24.204
 6881CHOL    R184402  13.614   0.061  24.079
 6881CHOL    R284403  13.752   0.063  23.891
 6881CHOL    R384404  13.578   0.167  23.938
 6881CHOL    R484405  13.724   0.146  23.781
 6881CHOL    R584406  13.545   0.262  23.813
 6881CHOL    C184407  13.496   0.403  23.625
 6881CHOL    C284408  13.447   0.544  23.438
 6882CHOL   ROH84409  -4.429   5.031   0.343
 6882CHOL    R184410  -4.302   5.072   0.431
 6882CHOL    R284411  -4.276   4.993   0.649
 6882CHOL    R384412  -4.159   5.118   0.530
 6882CHOL    R484413  -4.165   5.029   0.726
 6882CHOL    R584414  -4.032   5.159   0.618
 6882CHOL    C184415  -3.841   5.221   0.751
 6882CHOL    C284416  -3.651   5.283   0.883
 6883CHOL   ROH84417  16.662   5.361  -5.854
 6883CHOL    R184418  16.600   5.399  -5.712
 6883CHOL    R284419  16.447   5.574  -5.690
 6883CHOL    R384420  16.530   5.442  -5.551
 6883CHOL    R484421  16.392   5.607  -5.566
 6883CHOL    R584422  16.468   5.480  -5.409
 6883CHOL    C184423  16.375   5.537  -5.195
 6883CHOL    C284424  16.282   5.594  -4.982
 6884CHOL   ROH84425   1.539  24.130   3.071
 6884CHOL    R184426   1.617  24.004   3.131
 6884CHOL    R284427   1.841  24.020   3.195
 6884CHOL    R384428   1.705  23.862   3.199
 6884CHOL    R484429   1.909  23.910   3.248
 6884CHOL    R584430   1.782  23.736   3.260
 6884CHOL    C184431   1.899  23.547   3.350
 6884CHOL    C284432   2.016  23.358   3.440
 6885CHOL   ROH84433  25.964  14.451  16.140
 6885CHOL    R184434  25.818  14.413  16.087
 6885CHOL    R284435  25.690  14.567  15.968
 6885CHOL    R384436  25.654  14.370  16.027
 6885CHOL    R484437  25.562  14.534  15.921
 6885CHOL    R584438  25.508  14.333  15.974
 6885CHOL    C184439  25.288  14.276  15.894
 6885CHOL    C284440  25.069  14.219  15.815
 6886CHOL   ROH84441  15.005  15.001  26.288
 6886CHOL    R184442  14.965  14.951  26.141
 6886CHOL    R284443  14.999  15.088  25.955
 6886CHOL    R384444  14.920  14.896  25.976
 6886CHOL    R484445  14.964  15.044  25.826
 6886CHOL    R584446  14.881  14.846  25.829
 6886CHOL    C184447  14.821  14.772  25.609
 6886CHOL    C284448  14.761  14.697  25.388
 6887CHOL   ROH84449   6.466  20.004  24.316
 6887CHOL    R184450   6.497  19.911  24.189
 6887CHOL    R284451   6.697  19.933  24.071
 6887CHOL    R384452   6.533  19.807  24.047
 6887CHOL    R484453   6.725  19.852  23.960
 6887CHOL    R584454   6.564  19.714  23.920
 6887CHOL    C184455   6.611  19.575  23.731
 6887CHOL    C284456   6.658  19.436  23.541
 6888CHOL   ROH84457  25.963  14.521   3.602
 6888CHOL    R184458  25.820  14.480   3.660
 6888CHOL    R284459  25.625  14.586   3.587
 6888CHOL    R384460  25.659  14.433   3.726
 6888CHOL    R484461  25.500  14.550   3.638
 6888CHOL    R584462  25.516  14.392   3.784
 6888CHOL    C184463  25.301  14.330   3.871
 6888CHOL    C284464  25.086  14.268   3.959
 6889CHOL   ROH84465  24.496   2.961   2.422
 6889CHOL    R184466  24.366   3.025   2.490
 6889CHOL    R284467  24.332   3.256   2.490
 6889CHOL    R384468  24.220   3.097   2.566
 6889CHOL    R484469  24.218   3.312   2.549
 6889CHOL    R584470  24.090   3.161   2.634
 6889CHOL    C184471  23.895   3.257   2.736
 6889CHOL    C284472  23.700   3.353   2.838
 6890CHOL   ROH84473  18.861  22.261   0.723
 6890CHOL    R184474  18.778  22.152   0.806
 6890CHOL    R284475  18.748  21.936   0.724
 6890CHOL    R384476  18.685  22.029   0.899
 6890CHOL    R484477  18.676  21.841   0.796
 6890CHOL    R584478  18.603  21.920   0.983
 6890CHOL    C184479  18.478  21.757   1.107
 6890CHOL    C284480  18.354  21.594   1.232
 6891CHOL   ROH84481  -7.329  14.070   7.500
 6891CHOL    R184482  -7.175  14.035   7.526
 6891CHOL    R284483  -7.072  14.091   7.728
 6891CHOL    R384484  -7.002  13.996   7.556
 6891CHOL    R484485  -6.937  14.060   7.751
 6891CHOL    R584486  -6.848  13.960   7.582
 6891CHOL    C184487  -6.617  13.908   7.621
 6891CHOL    C284488  -6.386  13.855   7.661
 6892CHOL   ROH84489  23.239  21.866   9.696
 6892CHOL    R184490  23.118  21.762   9.698
 6892CHOL    R284491  22.941  21.780   9.547
 6892CHOL    R384492  22.981  21.645   9.701
 6892CHOL    R484493  22.835  21.688   9.549
 6892CHOL    R584494  22.860  21.541   9.704
 6892CHOL    C184495  22.677  21.384   9.707
 6892CHOL    C284496  22.495  21.228   9.711
 6893CHOL   ROH84497  -5.302  17.617   4.559
 6893CHOL    R184498  -5.165  17.552   4.609
 6893CHOL    R284499  -5.009  17.678   4.730
 6893CHOL    R384500  -5.010  17.479   4.666
 6893CHOL    R484501  -4.889  17.621   4.774
 6893CHOL    R584502  -4.872  17.415   4.716
 6893CHOL    C184503  -4.666  17.317   4.791
 6893CHOL    C284504  -4.460  17.220   4.867
 6894CHOL   ROH84505  12.891  -6.811   4.506
 6894CHOL    R184506  12.860  -6.662   4.554
 6894CHOL    R284507  12.871  -6.482   4.405
 6894CHOL    R384508  12.826  -6.493   4.609
 6894CHOL    R484509  12.844  -6.352   4.448
 6894CHOL    R584510  12.796  -6.344   4.657
 6894CHOL    C184511  12.750  -6.120   4.730
 6894CHOL    C284512  12.704  -5.896   4.803
 6895CHOL   ROH84513  20.654  24.051   7.769
 6895CHOL    R184514  20.562  23.921   7.785
 6895CHOL    R284515  20.407  23.864   7.620
 6895CHOL    R384516  20.457  23.776   7.802
 6895CHOL    R484517  20.326  23.750   7.634
 6895CHOL    R584518  20.365  23.646   7.818
 6895CHOL    C184519  20.226  23.452   7.842
 6895CHOL    C284520  20.088  23.257   7.865
 6896CHOL   ROH84521  14.910  -4.448  19.173
 6896CHOL    R184522  14.865  -4.319  19.090
 6896CHOL    R284523  14.985  -4.120  19.102
 6896CHOL    R384524  14.814  -4.174  18.996
 6896CHOL    R484525  14.945  -4.007  19.029
 6896CHOL    R584526  14.768  -4.045  18.912
 6896CHOL    C184527  14.701  -3.852  18.787
 6896CHOL    C284528  14.633  -3.659  18.662
 6897CHOL   ROH84529  14.805  14.566  -6.594
 6897CHOL    R184530  14.763  14.524  -6.445
 6897CHOL    R284531  14.546  14.454  -6.397
 6897CHOL    R384532  14.716  14.477  -6.278
 6897CHOL    R484533  14.509  14.417  -6.267
 6897CHOL    R584534  14.674  14.435  -6.129
 6897CHOL    C184535  14.611  14.371  -5.907
 6897CHOL    C284536  14.548  14.308  -5.684
 6898CHOL   ROH84537   4.758  11.509  26.856
 6898CHOL    R184538   4.801  11.495  26.702
 6898CHOL    R284539   4.852  11.287  26.611
 6898CHOL    R384540   4.849  11.479  26.530
 6898CHOL    R484541   4.889  11.274  26.476
 6898CHOL    R584542   4.891  11.465  26.376
 6898CHOL    C184543   4.956  11.444  26.146
 6898CHOL    C284544   5.020  11.423  25.915
 6899CHOL   ROH84545  -3.152  -1.544   5.932
 6899CHOL    R184546  -3.034  -1.442   5.968
 6899CHOL    R284547  -2.974  -1.403   6.190
 6899CHOL    R384548  -2.901  -1.328   6.009
 6899CHOL    R484549  -2.870  -1.313   6.222
 6899CHOL    R584550  -2.783  -1.226   6.045
 6899CHOL    C184551  -2.607  -1.073   6.099
 6899CHOL    C284552  -2.430  -0.921   6.153
 6900CHOL   ROH84553  25.598  16.643   4.759
 6900CHOL    R184554  25.458  16.579   4.801
 6900CHOL    R284555  25.257  16.670   4.725
 6900CHOL    R384556  25.299  16.506   4.848
 6900CHOL    R484557  25.134  16.614   4.762
 6900CHOL    R584558  25.159  16.442   4.889
 6900CHOL    C184559  24.948  16.346   4.952
 6900CHOL    C284560  24.738  16.249   5.015
 6901CHOL   ROH84561  -7.824   8.539  11.927
 6901CHOL    R184562  -7.666   8.554  11.906
 6901CHOL    R284563  -7.517   8.509  12.080
 6901CHOL    R384564  -7.488   8.571  11.882
 6901CHOL    R484565  -7.379   8.522  12.061
 6901CHOL    R584566  -7.331   8.586  11.861
 6901CHOL    C184567  -7.094   8.609  11.830
 6901CHOL    C284568  -6.857   8.632  11.799
 6902CHOL   ROH84569  -2.762  -1.951  14.127
 6902CHOL    R184570  -2.649  -1.844  14.090
 6902CHOL    R284571  -2.462  -1.815  14.226
 6902CHOL    R384572  -2.522  -1.723  14.048
 6902CHOL    R484573  -2.363  -1.722  14.193
 6902CHOL    R584574  -2.409  -1.616  14.012
 6902CHOL    C184575  -2.240  -1.455  13.956
 6902CHOL    C284576  -2.070  -1.294  13.901
 6903CHOL   ROH84577   2.909  24.580   2.400
 6903CHOL    R184578   2.975  24.451   2.467
 6903CHOL    R284579   3.112  24.470   2.655
 6903CHOL    R384580   3.049  24.305   2.543
 6903CHOL    R484581   3.170  24.357   2.714
 6903CHOL    R584582   3.115  24.176   2.610
 6903CHOL    C184583   3.215  23.982   2.712
 6903CHOL    C284584   3.314  23.788   2.813
 6904CHOL   ROH84585  23.791  18.777  16.867
 6904CHOL    R184586  23.669  18.692  16.808
 6904CHOL    R284587  23.634  18.674  16.578
 6904CHOL    R384588  23.531  18.597  16.742
 6904CHOL    R484589  23.527  18.600  16.527
 6904CHOL    R584590  23.409  18.512  16.683
 6904CHOL    C184591  23.225  18.386  16.595
 6904CHOL    C284592  23.041  18.259  16.507
 6905CHOL   ROH84593  -2.546  22.283  13.721
 6905CHOL    R184594  -2.432  22.176  13.684
 6905CHOL    R284595  -2.263  22.229  13.532
 6905CHOL    R384596  -2.305  22.057  13.642
 6905CHOL    R484597  -2.164  22.136  13.500
 6905CHOL    R584598  -2.191  21.950  13.606
 6905CHOL    C184599  -2.021  21.790  13.550
 6905CHOL    C284600  -1.850  21.630  13.495
 6906CHOL   ROH84601   7.509  -0.553  -4.327
 6906CHOL    R184602   7.530  -0.457  -4.201
 6906CHOL    R284603   7.693  -0.503  -4.040
 6906CHOL    R384604   7.554  -0.348  -4.059
 6906CHOL    R484605   7.711  -0.418  -3.930
 6906CHOL    R584606   7.574  -0.252  -3.934
 6906CHOL    C184607   7.606  -0.107  -3.745
 6906CHOL    C284608   7.637   0.038  -3.556
 6907CHOL   ROH84609  19.007   8.693  -5.305
 6907CHOL    R184610  18.927   8.706  -5.167
 6907CHOL    R284611  18.704   8.774  -5.164
 6907CHOL    R384612  18.837   8.722  -5.012
 6907CHOL    R484613  18.634   8.786  -5.044
 6907CHOL    R584614  18.756   8.735  -4.874
 6907CHOL    C184615  18.636   8.755  -4.668
 6907CHOL    C284616  18.516   8.775  -4.461
 6908CHOL   ROH84617  -4.983  16.658   2.729
 6908CHOL    R184618  -4.848  16.598   2.791
 6908CHOL    R284619  -4.765  16.677   2.994
 6908CHOL    R384620  -4.697  16.531   2.862
 6908CHOL    R484621  -4.647  16.625   3.049
 6908CHOL    R584622  -4.562  16.471   2.924
 6908CHOL    C184623  -4.361  16.381   3.018
 6908CHOL    C284624  -4.159  16.291   3.111
 6909CHOL   ROH84625  10.702   4.434  -6.968
 6909CHOL    R184626  10.697   4.483  -6.816
 6909CHOL    R284627  10.657   4.707  -6.763
 6909CHOL    R384628  10.691   4.538  -6.645
 6909CHOL    R484629  10.653   4.750  -6.630
 6909CHOL    R584630  10.686   4.587  -6.493
 6909CHOL    C184631  10.679   4.661  -6.264
 6909CHOL    C284632  10.672   4.735  -6.036
 6910CHOL   ROH84633  23.073  -1.309  13.896
 6910CHOL    R184634  22.954  -1.209  13.860
 6910CHOL    R284635  22.997  -0.992  13.784
 6910CHOL    R384636  22.819  -1.096  13.819
 6910CHOL    R484637  22.893  -0.905  13.753
 6910CHOL    R584638  22.700  -0.995  13.783
 6910CHOL    C184639  22.521  -0.845  13.729
 6910CHOL    C284640  22.342  -0.695  13.675
 6911CHOL   ROH84641  12.344  15.762  -6.746
 6911CHOL    R184642  12.321  15.709  -6.597
 6911CHOL    R284643  12.464  15.551  -6.502
 6911CHOL    R384644  12.296  15.650  -6.429
 6911CHOL    R484645  12.445  15.505  -6.372
 6911CHOL    R584646  12.273  15.597  -6.279
 6911CHOL    C184647  12.239  15.518  -6.056
 6911CHOL    C284648  12.205  15.439  -5.832
 6912CHOL   ROH84649  19.441  14.024  -4.583
 6912CHOL    R184650  19.354  13.987  -4.454
 6912CHOL    R284651  19.121  13.988  -4.463
 6912CHOL    R384652  19.256  13.945  -4.309
 6912CHOL    R484653  19.044  13.955  -4.350
 6912CHOL    R584654  19.168  13.908  -4.180
 6912CHOL    C184655  19.038  13.852  -3.987
 6912CHOL    C284656  18.907  13.796  -3.794
 6913CHOL   ROH84657  10.662  26.081  17.676
 6913CHOL    R184658  10.655  25.937  17.606
 6913CHOL    R284659  10.671  25.916  17.374
 6913CHOL    R384660  10.647  25.776  17.527
 6913CHOL    R484661  10.664  25.791  17.313
 6913CHOL    R584662  10.639  25.632  17.456
 6913CHOL    C184663  10.629  25.417  17.351
 6913CHOL    C284664  10.618  25.202  17.246
 6914CHOL   ROH84665  -1.793  23.199  13.152
 6914CHOL    R184666  -1.688  23.082  13.123
 6914CHOL    R284667  -1.458  23.119  13.146
 6914CHOL    R384668  -1.569  22.951  13.090
 6914CHOL    R484669  -1.366  23.017  13.120
 6914CHOL    R584670  -1.464  22.834  13.062
 6914CHOL    C184671  -1.305  22.659  13.018
 6914CHOL    C284672  -1.147  22.484  12.975
 6915CHOL   ROH84673  13.672  27.264  12.328
 6915CHOL    R184674  13.640  27.109  12.305
 6915CHOL    R284675  13.812  26.953  12.282
 6915CHOL    R384676  13.604  26.935  12.278
 6915CHOL    R484677  13.784  26.817  12.262
 6915CHOL    R584678  13.573  26.779  12.255
 6915CHOL    C184679  13.525  26.547  12.220
 6915CHOL    C284680  13.477  26.314  12.185
 6916CHOL   ROH84681  20.205  20.534  -0.005
 6916CHOL    R184682  20.112  20.435   0.079
 6916CHOL    R284683  19.934  20.322  -0.021
 6916CHOL    R384684  20.006  20.324   0.175
 6916CHOL    R484685  19.852  20.236   0.053
 6916CHOL    R584686  19.913  20.226   0.259
 6916CHOL    C184687  19.773  20.077   0.386
 6916CHOL    C284688  19.633  19.929   0.512
 6917CHOL   ROH84689  -4.878  11.552  19.832
 6917CHOL    R184690  -4.747  11.538  19.741
 6917CHOL    R284691  -4.595  11.714  19.722
 6917CHOL    R384692  -4.601  11.523  19.638
 6917CHOL    R484693  -4.481  11.702  19.642
 6917CHOL    R584694  -4.470  11.510  19.547
 6917CHOL    C184695  -4.274  11.489  19.409
 6917CHOL    C284696  -4.078  11.469  19.272
 6918CHOL   ROH84697  10.928  15.377  26.871
 6918CHOL    R184698  10.916  15.325  26.720
 6918CHOL    R284699  11.033  15.137  26.648
 6918CHOL    R384700  10.904  15.268  26.550
 6918CHOL    R484701  11.023  15.092  26.516
 6918CHOL    R584702  10.892  15.216  26.399
 6918CHOL    C184703  10.875  15.139  26.172
 6918CHOL    C284704  10.857  15.061  25.946
 6919CHOL   ROH84705  17.604  -6.080  10.431
 6919CHOL    R184706  17.534  -5.936  10.426
 6919CHOL    R284707  17.658  -5.743  10.384
 6919CHOL    R384708  17.455  -5.775  10.420
 6919CHOL    R484709  17.596  -5.618  10.379
 6919CHOL    R584710  17.384  -5.631  10.416
 6919CHOL    C184711  17.279  -5.415  10.408
 6919CHOL    C284712  17.174  -5.200  10.401
 6920CHOL   ROH84713   1.498  20.346  -2.052
 6920CHOL    R184714   1.574  20.253  -1.946
 6920CHOL    R284715   1.804  20.216  -1.962
 6920CHOL    R384716   1.659  20.149  -1.827
 6920CHOL    R484717   1.870  20.135  -1.869
 6920CHOL    R584718   1.735  20.056  -1.720
 6920CHOL    C184719   1.849  19.918  -1.561
 6920CHOL    C284720   1.963  19.779  -1.402
 6921CHOL   ROH84721  12.962  27.327   7.127
 6921CHOL    R184722  12.933  27.172   7.155
 6921CHOL    R284723  13.093  27.037   7.257
 6921CHOL    R384724  12.901  26.998   7.186
 6921CHOL    R484725  13.068  26.901   7.281
 6921CHOL    R584726  12.873  26.843   7.214
 6921CHOL    C184727  12.830  26.610   7.255
 6921CHOL    C284728  12.787  26.377   7.297
 6922CHOL   ROH84729  21.702   8.326  -3.332
 6922CHOL    R184730  21.596   8.339  -3.213
 6922CHOL    R284731  21.438   8.511  -3.211
 6922CHOL    R384732  21.477   8.354  -3.079
 6922CHOL    R484733  21.346   8.522  -3.107
 6922CHOL    R584734  21.370   8.367  -2.960
 6922CHOL    C184735  21.211   8.386  -2.781
 6922CHOL    C284736  21.052   8.405  -2.603
 6923CHOL   ROH84737  -0.233  17.570  22.476
 6923CHOL    R184738  -0.142  17.503  22.362
 6923CHOL    R284739   0.061  17.402  22.415
 6923CHOL    R384740  -0.040  17.429  22.234
 6923CHOL    R484741   0.140  17.343  22.316
 6923CHOL    R584742   0.051  17.362  22.121
 6923CHOL    C184743   0.187  17.262  21.950
 6923CHOL    C284744   0.323  17.162  21.779
 6924CHOL   ROH84745  26.571   5.227  14.036
 6924CHOL    R184746  26.421   5.271  14.000
 6924CHOL    R284747  26.358   5.495  14.005
 6924CHOL    R384748  26.253   5.321  13.959
 6924CHOL    R484749  26.227   5.534  13.973
 6924CHOL    R584750  26.104   5.365  13.923
 6924CHOL    C184751  25.879   5.431  13.869
 6924CHOL    C284752  25.655   5.497  13.815
 6925CHOL   ROH84753  11.693  21.293  23.622
 6925CHOL    R184754  11.675  21.190  23.501
 6925CHOL    R284755  11.858  21.081  23.407
 6925CHOL    R384756  11.654  21.075  23.364
 6925CHOL    R484757  11.842  20.991  23.301
 6925CHOL    R584758  11.635  20.972  23.243
 6925CHOL    C184759  11.608  20.818  23.061
 6925CHOL    C284760  11.580  20.664  22.879
 6926CHOL   ROH84761  15.789  -1.163  -2.691
 6926CHOL    R184762  15.739  -1.060  -2.579
 6926CHOL    R284763  15.780  -0.831  -2.599
 6926CHOL    R384764  15.683  -0.945  -2.453
 6926CHOL    R484765  15.736  -0.742  -2.501
 6926CHOL    R584766  15.633  -0.842  -2.341
 6926CHOL    C184767  15.558  -0.688  -2.173
 6926CHOL    C284768  15.483  -0.534  -2.005
 6927CHOL   ROH84769  20.443  24.339  10.537
 6927CHOL    R184770  20.353  24.207  10.535
 6927CHOL    R284771  20.380  24.046  10.368
 6927CHOL    R384772  20.251  24.059  10.532
 6927CHOL    R484773  20.301  23.930  10.367
 6927CHOL    R584774  20.161  23.927  10.530
 6927CHOL    C184775  20.026  23.729  10.527
 6927CHOL    C284776  19.890  23.531  10.523
 6928CHOL   ROH84777   5.520  -1.053  -3.413
 6928CHOL    R184778   5.559  -0.953  -3.294
 6928CHOL    R284779   5.472  -0.982  -3.080
 6928CHOL    R384780   5.603  -0.841  -3.160
 6928CHOL    R484781   5.506  -0.895  -2.976
 6928CHOL    R584782   5.642  -0.742  -3.041
 6928CHOL    C184783   5.701  -0.592  -2.863
 6928CHOL    C284784   5.759  -0.442  -2.685
 6929CHOL   ROH84785  20.742  -3.709   6.302
 6929CHOL    R184786  20.645  -3.586   6.335
 6929CHOL    R284787  20.586  -3.432   6.170
 6929CHOL    R384788  20.535  -3.449   6.372
 6929CHOL    R484789  20.501  -3.325   6.199
 6929CHOL    R584790  20.438  -3.326   6.405
 6929CHOL    C184791  20.292  -3.142   6.454
 6929CHOL    C284792  20.146  -2.958   6.504
 6930CHOL   ROH84793  -1.060   1.971  -1.626
 6930CHOL    R184794  -0.965   2.044  -1.520
 6930CHOL    R284795  -0.735   2.006  -1.518
 6930CHOL    R384796  -0.859   2.127  -1.401
 6930CHOL    R484797  -0.652   2.070  -1.425
 6930CHOL    R584798  -0.764   2.200  -1.294
 6930CHOL    C184799  -0.622   2.310  -1.135
 6930CHOL    C284800  -0.480   2.420  -0.976
 6931CHOL   ROH84801   4.468  18.437  -4.867
 6931CHOL    R184802   4.517  18.366  -4.732
 6931CHOL    R284803   4.404  18.399  -4.531
 6931CHOL    R384804   4.572  18.285  -4.581
 6931CHOL    R484805   4.447  18.337  -4.413
 6931CHOL    R584806   4.621  18.214  -4.447
 6931CHOL    C184807   4.694  18.107  -4.245
 6931CHOL    C284808   4.768  18.000  -4.043
 6932CHOL   ROH84809  -0.752   8.732  -4.322
 6932CHOL    R184810  -0.656   8.740  -4.194
 6932CHOL    R284811  -0.745   8.757  -3.979
 6932CHOL    R384812  -0.549   8.748  -4.050
 6932CHOL    R484813  -0.661   8.764  -3.867
 6932CHOL    R584814  -0.453   8.756  -3.922
 6932CHOL    C184815  -0.309   8.767  -3.730
 6932CHOL    C284816  -0.166   8.778  -3.538
 6933CHOL   ROH84817  21.056  18.429  20.949
 6933CHOL    R184818  20.956  18.356  20.848
 6933CHOL    R284819  21.035  18.204  20.690
 6933CHOL    R384820  20.844  18.274  20.734
 6933CHOL    R484821  20.948  18.140  20.601
 6933CHOL    R584822  20.744  18.201  20.632
 6933CHOL    C184823  20.594  18.092  20.481
 6933CHOL    C284824  20.444  17.982  20.329
 6934CHOL   ROH84825   7.231   1.996  -5.853
 6934CHOL    R184826   7.251   2.065  -5.710
 6934CHOL    R284827   7.340   1.946  -5.530
 6934CHOL    R384828   7.272   2.143  -5.549
 6934CHOL    R484829   7.357   2.006  -5.405
 6934CHOL    R584830   7.292   2.212  -5.406
 6934CHOL    C184831   7.321   2.315  -5.191
 6934CHOL    C284832   7.351   2.418  -4.977
 6935CHOL   ROH84833  25.326  18.359   7.222
 6935CHOL    R184834  25.187  18.283   7.247
 6935CHOL    R284835  25.102  18.133   7.090
 6935CHOL    R384836  25.031  18.198   7.275
 6935CHOL    R484837  24.981  18.067   7.112
 6935CHOL    R584838  24.892  18.122   7.301
 6935CHOL    C184839  24.684  18.009   7.338
 6935CHOL    C284840  24.476  17.895   7.376
 6936CHOL   ROH84841  24.901  14.970   1.700
 6936CHOL    R184842  24.767  14.926   1.776
 6936CHOL    R284843  24.586  14.839   1.658
 6936CHOL    R384844  24.616  14.878   1.861
 6936CHOL    R484845  24.468  14.801   1.725
 6936CHOL    R584846  24.482  14.834   1.937
 6936CHOL    C184847  24.282  14.769   2.051
 6936CHOL    C284848  24.081  14.703   2.165
 6937CHOL   ROH84849  25.889  11.888   2.310
 6937CHOL    R184850  25.746  11.872   2.380
 6937CHOL    R284851  25.611  11.687   2.334
 6937CHOL    R384852  25.585  11.853   2.458
 6937CHOL    R484853  25.486  11.673   2.395
 6937CHOL    R584854  25.442  11.836   2.528
 6937CHOL    C184855  25.227  11.812   2.633
 6937CHOL    C284856  25.013  11.787   2.737
 6938CHOL   ROH84857  19.514  24.918   9.589
 6938CHOL    R184858  19.430  24.782   9.592
 6938CHOL    R284859  19.465  24.624   9.760
 6938CHOL    R384860  19.337  24.628   9.595
 6938CHOL    R484861  19.392  24.504   9.763
 6938CHOL    R584862  19.253  24.491   9.598
 6938CHOL    C184863  19.128  24.287   9.603
 6938CHOL    C284864  19.002  24.082   9.608
 6939CHOL   ROH84865  -4.796   5.023  18.998
 6939CHOL    R184866  -4.666   5.066  18.915
 6939CHOL    R284867  -4.453   5.051  19.008
 6939CHOL    R384868  -4.521   5.115  18.821
 6939CHOL    R484869  -4.340   5.089  18.935
 6939CHOL    R584870  -4.391   5.159  18.738
 6939CHOL    C184871  -4.197   5.224  18.613
 6939CHOL    C284872  -4.002   5.289  18.488
 6940CHOL   ROH84873  -5.262   9.730  19.404
 6940CHOL    R184874  -5.128   9.731  19.317
 6940CHOL    R284875  -4.938   9.614  19.386
 6940CHOL    R384876  -4.977   9.732  19.218
 6940CHOL    R484877  -4.821   9.615  19.309
 6940CHOL    R584878  -4.843   9.734  19.131
 6940CHOL    C184879  -4.642   9.735  19.000
 6940CHOL    C284880  -4.441   9.737  18.869
 6941CHOL   ROH84881  22.660   0.776   1.558
 6941CHOL    R184882  22.547   0.858   1.636
 6941CHOL    R284883  22.596   1.059   1.743
 6941CHOL    R384884  22.420   0.949   1.724
 6941CHOL    R484885  22.497   1.130   1.812
 6941CHOL    R584886  22.306   1.031   1.803
 6941CHOL    C184887  22.137   1.153   1.920
 6941CHOL    C284888  21.967   1.276   2.037
 6942CHOL   ROH84889  19.860  -1.889  18.735
 6942CHOL    R184890  19.770  -1.785  18.652
 6942CHOL    R284891  19.816  -1.557  18.657
 6942CHOL    R384892  19.670  -1.669  18.559
 6942CHOL    R484893  19.738  -1.466  18.584
 6942CHOL    R584894  19.580  -1.566  18.476
 6942CHOL    C184895  19.446  -1.410  18.352
 6942CHOL    C284896  19.311  -1.255  18.227
 6943CHOL   ROH84897   1.131  20.831  -1.320
 6943CHOL    R184898   1.210  20.733  -1.222
 6943CHOL    R284899   1.442  20.712  -1.234
 6943CHOL    R384900   1.299  20.622  -1.111
 6943CHOL    R484901   1.511  20.625  -1.147
 6943CHOL    R584902   1.377  20.523  -1.012
 6943CHOL    C184903   1.496  20.376  -0.865
 6943CHOL    C284904   1.614  20.228  -0.717
 6944CHOL   ROH84905  26.437  15.594  13.491
 6944CHOL    R184906  26.288  15.547  13.458
 6944CHOL    R284907  26.245  15.336  13.367
 6944CHOL    R384908  26.119  15.494  13.422
 6944CHOL    R484909  26.115  15.295  13.339
 6944CHOL    R584910  25.970  15.447  13.389
 6944CHOL    C184911  25.746  15.376  13.340
 6944CHOL    C284912  25.522  15.306  13.291
 6945CHOL   ROH84913  25.124   9.851   0.731
 6945CHOL    R184914  24.989   9.851   0.817
 6945CHOL    R284915  24.873   9.653   0.857
 6945CHOL    R384916  24.837   9.851   0.913
 6945CHOL    R484917  24.755   9.653   0.933
 6945CHOL    R584918  24.702   9.851   0.999
 6945CHOL    C184919  24.499   9.851   1.128
 6945CHOL    C284920  24.297   9.851   1.256
 6946CHOL   ROH84921  -3.972  -1.128  12.100
 6946CHOL    R184922  -3.848  -1.028  12.080
 6946CHOL    R284923  -3.671  -1.025  12.232
 6946CHOL    R384924  -3.710  -0.916  12.058
 6946CHOL    R484925  -3.563  -0.938  12.215
 6946CHOL    R584926  -3.586  -0.816  12.039
 6946CHOL    C184927  -3.401  -0.666  12.009
 6946CHOL    C284928  -3.215  -0.516  11.979
 6947CHOL   ROH84929  -0.893  24.107  12.274
 6947CHOL    R184930  -0.798  23.979  12.255
 6947CHOL    R284931  -0.809  23.800  12.404
 6947CHOL    R384932  -0.691  23.836  12.235
 6947CHOL    R484933  -0.726  23.688  12.387
 6947CHOL    R584934  -0.597  23.709  12.216
 6947CHOL    C184935  -0.454  23.517  12.188
 6947CHOL    C284936  -0.312  23.326  12.160
 6948CHOL   ROH84937   5.083  23.777  -0.278
 6948CHOL    R184938   5.124  23.653  -0.186
 6948CHOL    R284939   5.242  23.685   0.013
 6948CHOL    R384940   5.171  23.513  -0.082
 6948CHOL    R484941   5.278  23.576   0.094
 6948CHOL    R584942   5.212  23.389   0.010
 6948CHOL    C184943   5.274  23.203   0.148
 6948CHOL    C284944   5.336  23.017   0.286
 6949CHOL   ROH84945  22.295  22.783   8.615
 6949CHOL    R184946  22.184  22.668   8.627
 6949CHOL    R284947  22.219  22.458   8.532
 6949CHOL    R384948  22.060  22.539   8.642
 6949CHOL    R484949  22.122  22.357   8.543
 6949CHOL    R584950  21.950  22.424   8.654
 6949CHOL    C184951  21.784  22.252   8.673
 6949CHOL    C284952  21.618  22.079   8.691
 6950CHOL   ROH84953   8.261  12.270  -7.708
 6950CHOL    R184954   8.275  12.251  -7.550
 6950CHOL    R284955   8.128  12.357  -7.403
 6950CHOL    R384956   8.291  12.230  -7.372
 6950CHOL    R484957   8.141  12.341  -7.264
 6950CHOL    R584958   8.305  12.212  -7.213
 6950CHOL    C184959   8.326  12.183  -6.976
 6950CHOL    C284960   8.347  12.155  -6.739
 6951CHOL   ROH84961  -1.990  17.805  -0.948
 6951CHOL    R184962  -1.884  17.734  -0.851
 6951CHOL    R284963  -1.699  17.851  -0.771
 6951CHOL    R384964  -1.765  17.655  -0.742
 6951CHOL    R484965  -1.606  17.789  -0.686
 6951CHOL    R584966  -1.659  17.584  -0.646
 6951CHOL    C184967  -1.499  17.479  -0.500
 6951CHOL    C284968  -1.340  17.373  -0.355
 6952CHOL   ROH84969  -0.607  24.422  11.130
 6952CHOL    R184970  -0.514  24.292  11.125
 6952CHOL    R284971  -0.322  24.285  10.993
 6952CHOL    R384972  -0.410  24.145  11.120
 6952CHOL    R484973  -0.241  24.171  10.989
 6952CHOL    R584974  -0.317  24.015  11.115
 6952CHOL    C184975  -0.179  23.819  11.109
 6952CHOL    C284976  -0.040  23.623  11.102
 6953CHOL   ROH84977   1.958  -0.337  22.204
 6953CHOL    R184978   2.033  -0.246  22.096
 6953CHOL    R284979   2.189  -0.086  22.162
 6953CHOL    R384980   2.118  -0.144  21.974
 6953CHOL    R484981   2.255  -0.006  22.067
 6953CHOL    R584982   2.194  -0.053  21.866
 6953CHOL    C184983   2.307   0.083  21.704
 6953CHOL    C284984   2.420   0.220  21.542
 6954CHOL   ROH84985  22.326  10.429  -2.808
 6954CHOL    R184986  22.211  10.424  -2.696
 6954CHOL    R284987  22.059  10.599  -2.674
 6954CHOL    R384988  22.083  10.419  -2.571
 6954CHOL    R484989  21.958  10.595  -2.577
 6954CHOL    R584990  21.968  10.414  -2.459
 6954CHOL    C184991  21.796  10.408  -2.292
 6954CHOL    C284992  21.624  10.401  -2.125
 6955CHOL   ROH84993  22.811  21.993  12.362
 6955CHOL    R184994  22.695  21.886  12.335
 6955CHOL    R284995  22.535  21.923  12.169
 6955CHOL    R384996  22.564  21.767  12.305
 6955CHOL    R484997  22.433  21.830  12.145
 6955CHOL    R584998  22.448  21.660  12.278
 6955CHOL    C184999  22.273  21.500  12.237
 6955CHOL    C285000  22.099  21.340  12.196
 6956CHOL   ROH85001  18.452  18.335  -3.295
 6956CHOL    R185002  18.374  18.261  -3.176
 6956CHOL    R285003  18.264  18.059  -3.213
 6956CHOL    R385004  18.286  18.179  -3.043
 6956CHOL    R485005  18.195  17.994  -3.109
 6956CHOL    R585006  18.207  18.105  -2.925
 6956CHOL    C185007  18.090  17.995  -2.747
 6956CHOL    C285008  17.973  17.884  -2.569
 6957CHOL   ROH85009   2.460  -2.223  20.682
 6957CHOL    R185010   2.526  -2.114  20.586
 6957CHOL    R285011   2.633  -1.926  20.673
 6957CHOL    R385012   2.600  -1.990  20.477
 6957CHOL    R485013   2.691  -1.830  20.588
 6957CHOL    R585014   2.666  -1.881  20.381
 6957CHOL    C185015   2.764  -1.717  20.236
 6957CHOL    C285016   2.863  -1.553  20.091
 6958CHOL   ROH85017  19.846  19.925  -1.021
 6958CHOL    R185018  19.756  19.833  -0.926
 6958CHOL    R285019  19.840  19.637  -0.834
 6958CHOL    R385020  19.655  19.731  -0.818
 6958CHOL    R485021  19.762  19.557  -0.750
 6958CHOL    R585022  19.564  19.639  -0.723
 6958CHOL    C185023  19.429  19.502  -0.580
 6958CHOL    C285024  19.294  19.364  -0.437
 6959CHOL   ROH85025  24.980   1.038  13.204
 6959CHOL    R185026  24.845   1.119  13.174
 6959CHOL    R285027  24.800   1.202  12.960
 6959CHOL    R385028  24.694   1.209  13.140
 6959CHOL    R485029  24.683   1.272  12.934
 6959CHOL    R585030  24.559   1.290  13.109
 6959CHOL    C185031  24.357   1.411  13.064
 6959CHOL    C285032  24.155   1.532  13.019
 6960CHOL   ROH85033  27.007   6.238   6.739
 6960CHOL    R185034  26.853   6.268   6.768
 6960CHOL    R285035  26.751   6.462   6.687
 6960CHOL    R385036  26.679   6.302   6.801
 6960CHOL    R485037  26.615   6.488   6.712
 6960CHOL    R585038  26.524   6.332   6.830
 6960CHOL    C185039  26.293   6.378   6.874
 6960CHOL    C285040  26.061   6.423   6.917
 6961CHOL   ROH85041   3.941   7.027  26.549
 6961CHOL    R185042   3.991   7.056  26.400
 6961CHOL    R285043   4.064   6.882  26.262
 6961CHOL    R385044   4.047   7.089  26.232
 6961CHOL    R485045   4.108   6.908  26.131
 6961CHOL    R585046   4.097   7.117  26.083
 6961CHOL    C185047   4.173   7.161  25.859
 6961CHOL    C285048   4.248   7.204  25.636
 6962CHOL   ROH85049  21.116   1.887  21.117
 6962CHOL    R185050  21.015   1.958  21.015
 6962CHOL    R285051  21.084   2.136  20.882
 6962CHOL    R385052  20.901   2.037  20.901
 6962CHOL    R485053  20.995   2.198  20.793
 6962CHOL    R585054  20.800   2.107  20.799
 6962CHOL    C185055  20.648   2.213  20.646
 6962CHOL    C285056  20.496   2.319  20.494
 6963CHOL   ROH85057  11.898  23.628  21.215
 6963CHOL    R185058  11.875  23.506  21.114
 6963CHOL    R285059  12.044  23.349  21.075
 6963CHOL    R385060  11.850  23.369  21.000
 6963CHOL    R485061  12.024  23.243  20.987
 6963CHOL    R585062  11.827  23.247  20.899
 6963CHOL    C185063  11.793  23.064  20.747
 6963CHOL    C285064  11.759  22.881  20.596
 6964CHOL   ROH85065  -0.415  20.585  -0.155
 6964CHOL    R185066  -0.323  20.488  -0.068
 6964CHOL    R285067  -0.095  20.466  -0.113
 6964CHOL    R385068  -0.219  20.378   0.031
 6964CHOL    R485069  -0.014  20.381  -0.036
 6964CHOL    R585070  -0.126  20.281   0.118
 6964CHOL    C185071   0.012  20.135   0.249
 6964CHOL    C285072   0.150  19.989   0.380
 6965CHOL   ROH85073  14.662  -6.963  12.887
 6965CHOL    R185074  14.618  -6.812  12.859
 6965CHOL    R285075  14.701  -6.637  12.988
 6965CHOL    R385076  14.568  -6.642  12.827
 6965CHOL    R485077  14.663  -6.504  12.963
 6965CHOL    R585078  14.524  -6.490  12.799
 6965CHOL    C185079  14.458  -6.264  12.757
 6965CHOL    C285080  14.392  -6.037  12.715
 6966CHOL   ROH85081   8.494  -1.889  -3.346
 6966CHOL    R185082   8.508  -1.781  -3.229
 6966CHOL    R285083   8.656  -1.815  -3.052
 6966CHOL    R385084   8.524  -1.660  -3.097
 6966CHOL    R485085   8.669  -1.721  -2.949
 6966CHOL    R585086   8.538  -1.552  -2.980
 6966CHOL    C185087   8.560  -1.390  -2.804
 6966CHOL    C285088   8.581  -1.228  -2.629
 6967CHOL   ROH85089  25.311  18.894   9.686
 6967CHOL    R185090  25.172  18.814   9.691
 6967CHOL    R285091  25.037  18.797   9.502
 6967CHOL    R385092  25.016  18.725   9.697
 6967CHOL    R485093  24.915  18.727   9.507
 6967CHOL    R585094  24.878  18.646   9.702
 6967CHOL    C185095  24.669  18.526   9.710
 6967CHOL    C285096  24.461  18.407   9.718
 6968CHOL   ROH85097   0.998   0.123  21.874
 6968CHOL    R185098   1.080   0.209  21.767
 6968CHOL    R285099   1.296   0.284  21.814
 6968CHOL    R385100   1.173   0.306  21.647
 6968CHOL    R485101   1.368   0.359  21.720
 6968CHOL    R585102   1.255   0.392  21.540
 6968CHOL    C185103   1.378   0.521  21.380
 6968CHOL    C285104   1.502   0.650  21.219
 6969CHOL   ROH85105  18.650  21.432  20.483
 6969CHOL    R185106  18.570  21.328  20.392
 6969CHOL    R285107  18.682  21.176  20.255
 6969CHOL    R385108  18.479  21.210  20.290
 6969CHOL    R485109  18.612  21.085  20.176
 6969CHOL    R585110  18.399  21.105  20.199
 6969CHOL    C185111  18.279  20.949  20.063
 6969CHOL    C285112  18.158  20.792  19.927
 6970CHOL   ROH85113  11.157  -3.673  -1.517
 6970CHOL    R185114  11.145  -3.550  -1.415
 6970CHOL    R285115  11.283  -3.537  -1.227
 6970CHOL    R385116  11.133  -3.412  -1.300
 6970CHOL    R485117  11.273  -3.429  -1.138
 6970CHOL    R585118  11.121  -3.289  -1.199
 6970CHOL    C185119  11.104  -3.105  -1.046
 6970CHOL    C285120  11.086  -2.920  -0.893
 6971CHOL   ROH85121   9.560  27.681  12.178
 6971CHOL    R185122   9.560  27.522  12.159
 6971CHOL    R285123   9.751  27.411  12.083
 6971CHOL    R385124   9.561  27.343  12.138
 6971CHOL    R485125   9.751  27.272  12.066
 6971CHOL    R585126   9.562  27.184  12.119
 6971CHOL    C185127   9.562  26.946  12.090
 6971CHOL    C285128   9.563  26.708  12.061
 6972CHOL   ROH85129  10.994   2.179  -6.074
 6972CHOL    R185130  10.985   2.248  -5.930
 6972CHOL    R285131  11.165   2.368  -5.843
 6972CHOL    R385132  10.974   2.327  -5.768
 6972CHOL    R485133  11.157   2.428  -5.717
 6972CHOL    R585134  10.965   2.396  -5.625
 6972CHOL    C185135  10.951   2.500  -5.409
 6972CHOL    C285136  10.937   2.604  -5.193
 6973CHOL   ROH85137   7.313  16.545  -6.490
 6973CHOL    R185138   7.336  16.485  -6.343
 6973CHOL    R285139   7.451  16.607  -6.181
 6973CHOL    R385140   7.362  16.418  -6.179
 6973CHOL    R485141   7.471  16.555  -6.052
 6973CHOL    R585142   7.385  16.358  -6.032
 6973CHOL    C185143   7.420  16.268  -5.812
 6973CHOL    C285144   7.454  16.178  -5.592
 6974CHOL   ROH85145  22.738  -1.555  14.311
 6974CHOL    R185146  22.620  -1.454  14.272
 6974CHOL    R285147  22.517  -1.464  14.063
 6974CHOL    R385148  22.487  -1.340  14.229
 6974CHOL    R485149  22.414  -1.376  14.030
 6974CHOL    R585150  22.370  -1.240  14.190
 6974CHOL    C185151  22.193  -1.088  14.133
 6974CHOL    C285152  22.016  -0.937  14.075
 6975CHOL   ROH85153  22.361  -0.248   2.298
 6975CHOL    R185154  22.250  -0.157   2.368
 6975CHOL    R285155  22.303   0.054   2.452
 6975CHOL    R385156  22.124  -0.055   2.447
 6975CHOL    R485157  22.205   0.134   2.513
 6975CHOL    R585158  22.013   0.036   2.516
 6975CHOL    C185159  21.846   0.173   2.621
 6975CHOL    C285160  21.679   0.310   2.726
 6976CHOL   ROH85161  -3.976  18.277   2.327
 6976CHOL    R185162  -3.849  18.206   2.394
 6976CHOL    R285163  -3.779  18.264   2.609
 6976CHOL    R385164  -3.707  18.127   2.470
 6976CHOL    R485165  -3.669  18.203   2.668
 6976CHOL    R585166  -3.580  18.056   2.537
 6976CHOL    C185167  -3.390  17.950   2.639
 6976CHOL    C285168  -3.200  17.844   2.740
 6977CHOL   ROH85169  17.518  25.062  15.637
 6977CHOL    R185170  17.448  24.929  15.582
 6977CHOL    R285171  17.439  24.883  15.354
 6977CHOL    R385172  17.370  24.778  15.521
 6977CHOL    R485173  17.378  24.766  15.306
 6977CHOL    R585174  17.301  24.645  15.467
 6977CHOL    C185175  17.196  24.445  15.385
 6977CHOL    C285176  17.092  24.245  15.303
 6978CHOL   ROH85177   9.028  -6.348   2.792
 6978CHOL    R185178   9.038  -6.202   2.856
 6978CHOL    R285179   9.242  -6.089   2.866
 6978CHOL    R385180   9.049  -6.038   2.929
 6978CHOL    R485181   9.251  -5.961   2.923
 6978CHOL    R585182   9.060  -5.892   2.994
 6978CHOL    C185183   9.075  -5.672   3.090
 6978CHOL    C285184   9.090  -5.453   3.187
 6979CHOL   ROH85185   6.633  -5.225  18.735
 6979CHOL    R185186   6.661  -5.089  18.656
 6979CHOL    R285187   6.815  -4.933  18.735
 6979CHOL    R385188   6.692  -4.936  18.566
 6979CHOL    R485189   6.840  -4.814  18.665
 6979CHOL    R585190   6.719  -4.800  18.487
 6979CHOL    C185191   6.761  -4.595  18.368
 6979CHOL    C285192   6.803  -4.391  18.249
 6980CHOL   ROH85193  26.552   7.203  15.688
 6980CHOL    R185194  26.403   7.230  15.635
 6980CHOL    R285195  26.278   7.060  15.537
 6980CHOL    R385196  26.236   7.260  15.576
 6980CHOL    R485197  26.148   7.083  15.491
 6980CHOL    R585198  26.087   7.288  15.523
 6980CHOL    C185199  25.865   7.328  15.445
 6980CHOL    C285200  25.642   7.369  15.366
 6981CHOL   ROH85201   4.174  -5.920   4.139
 6981CHOL    R185202   4.223  -5.777   4.190
 6981CHOL    R285203   4.388  -5.759   4.355
 6981CHOL    R385204   4.279  -5.616   4.248
 6981CHOL    R485205   4.431  -5.633   4.400
 6981CHOL    R585206   4.328  -5.472   4.300
 6981CHOL    C185207   4.403  -5.258   4.377
 6981CHOL    C285208   4.477  -5.043   4.454
 6982CHOL   ROH85209  19.208  14.181  -4.694
 6982CHOL    R185210  19.122  14.142  -4.565
 6982CHOL    R285211  18.890  14.121  -4.577
 6982CHOL    R385212  19.025  14.098  -4.419
 6982CHOL    R485213  18.815  14.087  -4.464
 6982CHOL    R585214  18.940  14.059  -4.290
 6982CHOL    C185215  18.811  14.001  -4.096
 6982CHOL    C285216  18.682  13.943  -3.902
 6983CHOL   ROH85217   0.495  18.107  -2.951
 6983CHOL    R185218   0.579  18.038  -2.834
 6983CHOL    R285219   0.778  18.131  -2.757
 6983CHOL    R385220   0.673  17.959  -2.702
 6983CHOL    R485221   0.852  18.070  -2.655
 6983CHOL    R585222   0.757  17.890  -2.585
 6983CHOL    C185223   0.883  17.786  -2.409
 6983CHOL    C285224   1.009  17.682  -2.233
 6984CHOL   ROH85225  -5.798   9.803   1.361
 6984CHOL    R185226  -5.657   9.806   1.436
 6984CHOL    R285227  -5.572   9.616   1.541
 6984CHOL    R385228  -5.498   9.810   1.521
 6984CHOL    R485229  -5.449   9.619   1.607
 6984CHOL    R585230  -5.357   9.813   1.596
 6984CHOL    C185231  -5.145   9.819   1.709
 6984CHOL    C285232  -4.934   9.824   1.822
 6985CHOL   ROH85233  17.965  -4.921   4.499
 6985CHOL    R185234  17.894  -4.786   4.548
 6985CHOL    R285235  17.979  -4.664   4.728
 6985CHOL    R385236  17.814  -4.635   4.603
 6985CHOL    R485237  17.916  -4.546   4.771
 6985CHOL    R585238  17.742  -4.500   4.652
 6985CHOL    C185239  17.636  -4.298   4.725
 6985CHOL    C285240  17.529  -4.096   4.799
 6986CHOL   ROH85241  -2.356  -0.108  18.190
 6986CHOL    R185242  -2.246  -0.018  18.116
 6986CHOL    R285243  -2.044  -0.110  18.045
 6986CHOL    R385244  -2.123   0.083  18.032
 6986CHOL    R485245  -1.948  -0.032  17.980
 6986CHOL    R585246  -2.013   0.172  17.958
 6986CHOL    C185247  -1.848   0.307  17.847
 6986CHOL    C285248  -1.684   0.442  17.735
 6987CHOL   ROH85249  19.316  19.511  -1.851
 6987CHOL    R185250  19.231  19.426  -1.746
 6987CHOL    R285251  19.329  19.250  -1.627
 6987CHOL    R385252  19.135  19.329  -1.627
 6987CHOL    R485253  19.254  19.175  -1.535
 6987CHOL    R585254  19.050  19.244  -1.522
 6987CHOL    C185255  18.923  19.116  -1.364
 6987CHOL    C285256  18.796  18.988  -1.206
 6988CHOL   ROH85257   0.515  11.173  -5.158
 6988CHOL    R185258   0.601  11.161  -5.024
 6988CHOL    R285259   0.539  11.276  -4.831
 6988CHOL    R385260   0.698  11.148  -4.873
 6988CHOL    R485261   0.614  11.266  -4.713
 6988CHOL    R585262   0.785  11.137  -4.739
 6988CHOL    C185263   0.914  11.119  -4.537
 6988CHOL    C285264   1.043  11.101  -4.336
 6989CHOL   ROH85265  20.465   6.160  -3.904
 6989CHOL    R185266  20.372   6.195  -3.779
 6989CHOL    R285267  20.166   6.089  -3.749
 6989CHOL    R385268  20.267   6.234  -3.637
 6989CHOL    R485269  20.085   6.119  -3.639
 6989CHOL    R585270  20.174   6.269  -3.512
 6989CHOL    C185271  20.034   6.321  -3.324
 6989CHOL    C285272  19.895   6.373  -3.136
 6990CHOL   ROH85273  17.830  25.478   6.201
 6990CHOL    R185274  17.760  25.338   6.231
 6990CHOL    R285275  17.863  25.137   6.173
 6990CHOL    R385276  17.680  25.179   6.265
 6990CHOL    R485277  17.801  25.014   6.199
 6990CHOL    R585278  17.610  25.039   6.295
 6990CHOL    C185279  17.504  24.828   6.340
 6990CHOL    C285280  17.399  24.618   6.385
 6991CHOL   ROH85281   0.174  24.497   6.609
 6991CHOL    R185282   0.262  24.366   6.637
 6991CHOL    R285283   0.494  24.379   6.654
 6991CHOL    R385284   0.360  24.219   6.670
 6991CHOL    R485285   0.571  24.264   6.679
 6991CHOL    R585286   0.448  24.088   6.698
 6991CHOL    C185287   0.580  23.892   6.741
 6991CHOL    C285288   0.711  23.695   6.783
 6992CHOL   ROH85289  22.703  21.864   6.373
 6992CHOL    R185290  22.584  21.763   6.408
 6992CHOL    R285291  22.436  21.690   6.243
 6992CHOL    R385292  22.449  21.650   6.448
 6992CHOL    R485293  22.332  21.602   6.274
 6992CHOL    R585294  22.330  21.549   6.483
 6992CHOL    C185295  22.151  21.399   6.536
 6992CHOL    C285296  21.972  21.248   6.589
 6993CHOL   ROH85297  22.003   2.472  -0.695
 6993CHOL    R185298  21.895   2.540  -0.598
 6993CHOL    R285299  21.873   2.772  -0.588
 6993CHOL    R385300  21.775   2.617  -0.489
 6993CHOL    R485301  21.779   2.832  -0.504
 6993CHOL    R585302  21.667   2.685  -0.392
 6993CHOL    C185303  21.506   2.787  -0.247
 6993CHOL    C285304  21.344   2.889  -0.102
 6994CHOL   ROH85305  -0.265  -0.992   0.182
 6994CHOL    R185306  -0.180  -0.894   0.275
 6994CHOL    R285307  -0.089  -0.968   0.477
 6994CHOL    R385308  -0.084  -0.783   0.380
 6994CHOL    R485309  -0.015  -0.881   0.558
 6994CHOL    R585310   0.002  -0.684   0.473
 6994CHOL    C185311   0.129  -0.537   0.612
 6994CHOL    C285312   0.257  -0.389   0.751
 6995CHOL   ROH85313   8.411   5.943  -7.351
 6995CHOL    R185314   8.421   5.980  -7.196
 6995CHOL    R285315   8.610   6.087  -7.110
 6995CHOL    R385316   8.433   6.022  -7.021
 6995CHOL    R485317   8.619   6.119  -6.974
 6995CHOL    R585318   8.443   6.059  -6.866
 6995CHOL    C185319   8.458   6.115  -6.632
 6995CHOL    C285320   8.474   6.170  -6.399
 6996CHOL   ROH85321  -4.025  -0.564  13.801
 6996CHOL    R185322  -3.899  -0.472  13.764
 6996CHOL    R285323  -3.715  -0.458  13.907
 6996CHOL    R385324  -3.758  -0.368  13.723
 6996CHOL    R485325  -3.605  -0.377  13.875
 6996CHOL    R585326  -3.632  -0.276  13.686
 6996CHOL    C185327  -3.444  -0.138  13.632
 6996CHOL    C285328  -3.256  -0.000  13.577
 6997CHOL   ROH85329   9.359  22.407  22.736
 6997CHOL    R185330   9.367  22.296  22.621
 6997CHOL    R285331   9.412  22.073  22.671
 6997CHOL    R385332   9.376  22.172  22.491
 6997CHOL    R485333   9.419  21.977  22.570
 6997CHOL    R585334   9.384  22.062  22.376
 6997CHOL    C185335   9.396  21.896  22.202
 6997CHOL    C285336   9.408  21.730  22.029
 6998CHOL   ROH85337   5.566  13.581  -7.050
 6998CHOL    R185338   5.604  13.549  -6.898
 6998CHOL    R285339   5.440  13.532  -6.734
 6998CHOL    R385340   5.648  13.513  -6.727
 6998CHOL    R485341   5.473  13.505  -6.601
 6998CHOL    R585342   5.686  13.481  -6.575
 6998CHOL    C185343   5.744  13.434  -6.347
 6998CHOL    C285344   5.801  13.386  -6.119
 6999CHOL   ROH85345  10.571  25.411   0.939
 6999CHOL    R185346  10.564  25.274   1.021
 6999CHOL    R285347  10.695  25.091   0.960
 6999CHOL    R385348  10.556  25.120   1.113
 6999CHOL    R485349  10.689  24.971   1.032
 6999CHOL    R585350  10.549  24.983   1.195
 6999CHOL    C185351  10.538  24.777   1.319
 6999CHOL    C285352  10.527  24.571   1.442
 7000CHOL   ROH85353   9.480  -3.714  -1.514
 7000CHOL    R185354   9.484  -3.590  -1.412
 7000CHOL    R285355   9.666  -3.558  -1.271
 7000CHOL    R385356   9.488  -3.452  -1.298
 7000CHOL    R485357   9.670  -3.450  -1.181
 7000CHOL    R585358   9.492  -3.328  -1.196
 7000CHOL    C185359   9.498  -3.143  -1.043
 7000CHOL    C285360   9.504  -2.957  -0.891
 7001CHOL   ROH85361   2.548  -4.945  16.493
 7001CHOL    R185362   2.612  -4.811  16.434
 7001CHOL    R285363   2.841  -4.798  16.388
 7001CHOL    R385364   2.685  -4.660  16.369
 7001CHOL    R485365   2.897  -4.680  16.336
 7001CHOL    R585366   2.749  -4.526  16.310
 7001CHOL    C185367   2.846  -4.324  16.222
 7001CHOL    C285368   2.943  -4.123  16.134
 7002CHOL   ROH85369  12.706  -7.666   9.215
 7002CHOL    R185370  12.683  -7.508   9.220
 7002CHOL    R285371  12.729  -7.386   9.413
 7002CHOL    R385372  12.657  -7.330   9.225
 7002CHOL    R485373  12.709  -7.247   9.417
 7002CHOL    R585374  12.634  -7.172   9.229
 7002CHOL    C185375  12.600  -6.934   9.236
 7002CHOL    C285376  12.566  -6.697   9.243
 7003CHOL   ROH85377  10.286  19.519  25.063
 7003CHOL    R185378  10.281  19.433  24.928
 7003CHOL    R285379  10.431  19.472  24.755
 7003CHOL    R385380  10.274  19.336  24.777
 7003CHOL    R485381  10.426  19.397  24.637
 7003CHOL    R585382  10.269  19.250  24.642
 7003CHOL    C185383  10.261  19.120  24.441
 7003CHOL    C285384  10.253  18.991  24.239
 7004CHOL   ROH85385  14.503  -4.958   1.312
 7004CHOL    R185386  14.460  -4.825   1.390
 7004CHOL    R285387  14.597  -4.636   1.390
 7004CHOL    R385388  14.411  -4.675   1.477
 7004CHOL    R485389  14.559  -4.520   1.458
 7004CHOL    R585390  14.368  -4.542   1.554
 7004CHOL    C185391  14.302  -4.342   1.671
 7004CHOL    C285392  14.237  -4.143   1.787
 7005CHOL   ROH85393   8.287  22.488  22.537
 7005CHOL    R185394   8.305  22.377  22.423
 7005CHOL    R285395   8.460  22.405  22.251
 7005CHOL    R385396   8.324  22.252  22.295
 7005CHOL    R485397   8.475  22.308  22.151
 7005CHOL    R585398   8.342  22.141  22.181
 7005CHOL    C185399   8.368  21.974  22.010
 7005CHOL    C285400   8.395  21.808  21.839
 7006CHOL   ROH85401  14.228  27.048   7.131
 7006CHOL    R185402  14.189  26.895   7.159
 7006CHOL    R285403  14.289  26.722   7.039
 7006CHOL    R385404  14.144  26.724   7.189
 7006CHOL    R485405  14.254  26.589   7.063
 7006CHOL    R585406  14.105  26.571   7.217
 7006CHOL    C185407  14.046  26.342   7.258
 7006CHOL    C285408  13.987  26.113   7.300
 7007CHOL   ROH85409  13.001   7.452  -7.501
 7007CHOL    R185410  12.973   7.476  -7.345
 7007CHOL    R285411  12.948   7.692  -7.260
 7007CHOL    R385412  12.942   7.504  -7.170
 7007CHOL    R485413  12.923   7.714  -7.124
 7007CHOL    R585414  12.914   7.529  -7.014
 7007CHOL    C185415  12.872   7.565  -6.781
 7007CHOL    C285416  12.830   7.602  -6.547
 7008CHOL   ROH85417   3.185  -4.605  17.797
 7008CHOL    R185418   3.245  -4.474  17.726
 7008CHOL    R285419   3.467  -4.411  17.759
 7008CHOL    R385420   3.312  -4.328  17.647
 7008CHOL    R485421   3.519  -4.297  17.697
 7008CHOL    R585422   3.372  -4.197  17.576
 7008CHOL    C185423   3.461  -4.001  17.470
 7008CHOL    C285424   3.551  -3.805  17.364
 7009CHOL   ROH85425  23.020  21.701  12.599
 7009CHOL    R185426  22.903  21.596  12.571
 7009CHOL    R285427  22.898  21.389  12.678
 7009CHOL    R385428  22.770  21.478  12.540
 7009CHOL    R485429  22.796  21.297  12.654
 7009CHOL    R585430  22.653  21.373  12.512
 7009CHOL    C185431  22.477  21.216  12.470
 7009CHOL    C285432  22.301  21.058  12.428
 7010CHOL   ROH85433  25.381  18.125   6.846
 7010CHOL    R185434  25.242  18.051   6.874
 7010CHOL    R285435  25.151  17.904   6.717
 7010CHOL    R385436  25.085  17.968   6.905
 7010CHOL    R485437  25.029  17.839   6.741
 7010CHOL    R585438  24.946  17.894   6.933
 7010CHOL    C185439  24.737  17.783   6.974
 7010CHOL    C285440  24.528  17.672   7.016
 7011CHOL   ROH85441  -1.491  18.874  -0.661
 7011CHOL    R185442  -1.388  18.795  -0.567
 7011CHOL    R285443  -1.163  18.855  -0.558
 7011CHOL    R385444  -1.273  18.706  -0.461
 7011CHOL    R485445  -1.073  18.785  -0.476
 7011CHOL    R585446  -1.171  18.626  -0.368
 7011CHOL    C185447  -1.017  18.508  -0.227
 7011CHOL    C285448  -0.863  18.389  -0.086
 7012CHOL   ROH85449  27.286  10.040  13.742
 7012CHOL    R185450  27.129  10.037  13.713
 7012CHOL    R285451  27.018  10.228  13.637
 7012CHOL    R385452  26.952  10.035  13.680
 7012CHOL    R485453  26.880  10.226  13.611
 7012CHOL    R585454  26.794  10.032  13.651
 7012CHOL    C185455  26.559  10.028  13.607
 7012CHOL    C285456  26.323  10.024  13.564
 7013CHOL   ROH85457  -5.413   9.646   0.689
 7013CHOL    R185458  -5.276   9.650   0.772
 7013CHOL    R285459  -5.193   9.852   0.855
 7013CHOL    R385460  -5.122   9.656   0.865
 7013CHOL    R485461  -5.073   9.856   0.927
 7013CHOL    R585462  -4.985   9.660   0.947
 7013CHOL    C185463  -4.780   9.667   1.072
 7013CHOL    C285464  -4.575   9.673   1.196
 7014CHOL   ROH85465  10.783  -6.055  17.811
 7014CHOL    R185466  10.777  -5.912  17.739
 7014CHOL    R285467  10.911  -5.866  17.553
 7014CHOL    R385468  10.770  -5.752  17.657
 7014CHOL    R485469  10.906  -5.741  17.490
 7014CHOL    R585470  10.764  -5.610  17.584
 7014CHOL    C185471  10.755  -5.396  17.476
 7014CHOL    C285472  10.746  -5.182  17.367
 7015CHOL   ROH85473   9.130  -2.921  -2.390
 7015CHOL    R185474   9.138  -2.805  -2.280
 7015CHOL    R285475   9.216  -2.592  -2.334
 7015CHOL    R385476   9.147  -2.676  -2.155
 7015CHOL    R485477   9.222  -2.491  -2.238
 7015CHOL    R585478   9.155  -2.560  -2.045
 7015CHOL    C185479   9.166  -2.387  -1.879
 7015CHOL    C285480   9.178  -2.213  -1.714
 7016CHOL   ROH85481  14.836  23.610  20.302
 7016CHOL    R185482  14.794  23.487  20.209
 7016CHOL    R285483  14.810  23.267  20.285
 7016CHOL    R385484  14.746  23.349  20.104
 7016CHOL    R485485  14.773  23.160  20.204
 7016CHOL    R585486  14.704  23.226  20.010
 7016CHOL    C185487  14.640  23.042  19.871
 7016CHOL    C285488  14.576  22.857  19.731
 7017CHOL   ROH85489   1.310  -1.656  20.455
 7017CHOL    R185490   1.387  -1.552  20.360
 7017CHOL    R285491   1.594  -1.465  20.421
 7017CHOL    R385492   1.473  -1.436  20.254
 7017CHOL    R485493   1.661  -1.374  20.339
 7017CHOL    R585494   1.550  -1.332  20.159
 7017CHOL    C185495   1.664  -1.176  20.017
 7017CHOL    C285496   1.779  -1.021  19.875
 7018CHOL   ROH85497  24.996  12.190  19.204
 7018CHOL    R185498  24.860  12.171  19.123
 7018CHOL    R285499  24.815  11.972  19.008
 7018CHOL    R385500  24.706  12.149  19.031
 7018CHOL    R485501  24.696  11.955  18.937
 7018CHOL    R585502  24.569  12.130  18.950
 7018CHOL    C185503  24.365  12.100  18.828
 7018CHOL    C285504  24.160  12.071  18.706
 7019CHOL   ROH85505  25.100  13.994   1.549
 7019CHOL    R185506  24.964  13.959   1.626
 7019CHOL    R285507  24.767  13.918   1.508
 7019CHOL    R385508  24.811  13.920   1.712
 7019CHOL    R485509  24.648  13.887   1.575
 7019CHOL    R585510  24.675  13.885   1.788
 7019CHOL    C185511  24.471  13.833   1.903
 7019CHOL    C285512  24.267  13.780   2.018
 7020CHOL   ROH85513  -4.312  20.848  10.683
 7020CHOL    R185514  -4.186  20.750  10.674
 7020CHOL    R285515  -3.969  20.831  10.690
 7020CHOL    R385516  -4.045  20.639  10.663
 7020CHOL    R485517  -3.858  20.745  10.682
 7020CHOL    R585518  -3.919  20.540  10.654
 7020CHOL    C185519  -3.730  20.393  10.639
 7020CHOL    C285520  -3.542  20.245  10.625
 7021CHOL   ROH85521   8.745  -2.704  -2.580
 7021CHOL    R185522   8.756  -2.590  -2.468
 7021CHOL    R285523   8.815  -2.372  -2.525
 7021CHOL    R385524   8.769  -2.462  -2.342
 7021CHOL    R485525   8.825  -2.272  -2.427
 7021CHOL    R585526   8.780  -2.348  -2.230
 7021CHOL    C185527   8.798  -2.178  -2.063
 7021CHOL    C285528   8.815  -2.007  -1.895
 7022CHOL   ROH85529  -4.527  19.985  13.310
 7022CHOL    R185530  -4.400  19.893  13.278
 7022CHOL    R285531  -4.183  19.975  13.305
 7022CHOL    R385532  -4.257  19.790  13.242
 7022CHOL    R485533  -4.072  19.895  13.277
 7022CHOL    R585534  -4.129  19.698  13.210
 7022CHOL    C185535  -3.939  19.561  13.163
 7022CHOL    C285536  -3.748  19.423  13.115
 7023CHOL   ROH85537  -7.135  13.015   5.613
 7023CHOL    R185538  -6.982  12.988   5.653
 7023CHOL    R285539  -6.906  13.028   5.869
 7023CHOL    R385540  -6.811  12.958   5.697
 7023CHOL    R485541  -6.772  13.005   5.904
 7023CHOL    R585542  -6.658  12.930   5.737
 7023CHOL    C185543  -6.429  12.890   5.797
 7023CHOL    C285544  -6.200  12.849   5.856
 7024CHOL   ROH85545  16.690  25.880  14.413
 7024CHOL    R185546  16.631  25.737  14.370
 7024CHOL    R285547  16.772  25.568  14.292
 7024CHOL    R385548  16.565  25.577  14.323
 7024CHOL    R485549  16.720  25.444  14.255
 7024CHOL    R585550  16.506  25.435  14.280
 7024CHOL    C185551  16.418  25.221  14.216
 7024CHOL    C285552  16.330  25.007  14.152
 7025CHOL   ROH85553  18.667  -5.530   9.581
 7025CHOL    R185554  18.589  -5.390   9.584
 7025CHOL    R285555  18.705  -5.188   9.596
 7025CHOL    R385556  18.501  -5.234   9.587
 7025CHOL    R485557  18.636  -5.066   9.598
 7025CHOL    R585558  18.423  -5.094   9.590
 7025CHOL    C185559  18.306  -4.885   9.594
 7025CHOL    C285560  18.189  -4.675   9.598
 7026CHOL   ROH85561  18.967  -1.511  20.062
 7026CHOL    R185562  18.884  -1.409  19.970
 7026CHOL    R285563  18.843  -1.456  19.746
 7026CHOL    R385564  18.792  -1.294  19.868
 7026CHOL    R485565  18.770  -1.367  19.666
 7026CHOL    R585566  18.709  -1.192  19.776
 7026CHOL    C185567  18.585  -1.039  19.639
 7026CHOL    C285568  18.461  -0.886  19.501
 7027CHOL   ROH85569   9.263   3.433  26.477
 7027CHOL    R185570   9.273   3.491  26.328
 7027CHOL    R285571   9.385   3.375  26.161
 7027CHOL    R385572   9.283   3.557  26.161
 7027CHOL    R485573   9.393   3.426  26.031
 7027CHOL    R585574   9.293   3.615  26.012
 7027CHOL    C185575   9.307   3.703  25.790
 7027CHOL    C285576   9.322   3.791  25.567
 7028CHOL   ROH85577  24.289  11.803  20.334
 7028CHOL    R185578  24.161  11.788  20.239
 7028CHOL    R285579  24.140  11.914  20.044
 7028CHOL    R385580  24.017  11.771  20.132
 7028CHOL    R485581  24.028  11.901  19.961
 7028CHOL    R585582  23.889  11.756  20.038
 7028CHOL    C185583  23.697  11.733  19.895
 7028CHOL    C285584  23.505  11.711  19.753
 7029CHOL   ROH85585  20.449  23.947   6.304
 7029CHOL    R185586  20.356  23.820   6.332
 7029CHOL    R285587  20.222  23.730   6.165
 7029CHOL    R385588  20.251  23.677   6.365
 7029CHOL    R485589  20.140  23.619   6.190
 7029CHOL    R585590  20.159  23.550   6.393
 7029CHOL    C185591  20.019  23.359   6.436
 7029CHOL    C285592  19.880  23.169   6.478
 7030CHOL   ROH85593   4.523  12.573  26.674
 7030CHOL    R185594   4.567  12.553  26.521
 7030CHOL    R285595   4.672  12.357  26.451
 7030CHOL    R385596   4.616  12.532  26.350
 7030CHOL    R485597   4.710  12.340  26.317
 7030CHOL    R585598   4.660  12.512  26.197
 7030CHOL    C185599   4.726  12.483  25.968
 7030CHOL    C285600   4.792  12.453  25.739
 7031CHOL   ROH85601  14.455  14.376  -6.743
 7031CHOL    R185602  14.416  14.336  -6.593
 7031CHOL    R285603  14.205  14.249  -6.544
 7031CHOL    R385604  14.371  14.290  -6.425
 7031CHOL    R485605  14.170  14.214  -6.413
 7031CHOL    R585606  14.332  14.249  -6.275
 7031CHOL    C185607  14.273  14.189  -6.050
 7031CHOL    C285608  14.214  14.128  -5.826
 7032CHOL   ROH85609  19.160   3.481  -3.829
 7032CHOL    R185610  19.076   3.538  -3.705
 7032CHOL    R285611  19.154   3.718  -3.579
 7032CHOL    R385612  18.981   3.601  -3.566
 7032CHOL    R485613  19.080   3.767  -3.471
 7032CHOL    R585614  18.897   3.658  -3.443
 7032CHOL    C185615  18.771   3.743  -3.257
 7032CHOL    C285616  18.645   3.828  -3.071
 7033CHOL   ROH85617  -4.681   2.765   2.324
 7033CHOL    R185618  -4.550   2.830   2.389
 7033CHOL    R285619  -4.360   2.700   2.431
 7033CHOL    R385620  -4.403   2.902   2.462
 7033CHOL    R485621  -4.246   2.757   2.488
 7033CHOL    R585622  -4.271   2.967   2.527
 7033CHOL    C185623  -4.075   3.064   2.624
 7033CHOL    C285624  -3.878   3.161   2.722
 7034CHOL   ROH85625   3.236  14.695  -5.976
 7034CHOL    R185626   3.297  14.653  -5.834
 7034CHOL    R285627   3.218  14.749  -5.636
 7034CHOL    R385628   3.365  14.605  -5.674
 7034CHOL    R485629   3.271  14.712  -5.512
 7034CHOL    R585630   3.426  14.562  -5.533
 7034CHOL    C185631   3.516  14.499  -5.320
 7034CHOL    C285632   3.607  14.435  -5.107
 7035CHOL   ROH85633   3.951  -3.126  -0.631
 7035CHOL    R185634   4.006  -3.011  -0.534
 7035CHOL    R285635   3.968  -3.020  -0.304
 7035CHOL    R385636   4.069  -2.882  -0.425
 7035CHOL    R485637   4.017  -2.919  -0.220
 7035CHOL    R585638   4.124  -2.768  -0.329
 7035CHOL    C185639   4.207  -2.595  -0.183
 7035CHOL    C285640   4.290  -2.423  -0.038
 7036CHOL   ROH85641   7.002  -4.083  20.572
 7036CHOL    R185642   7.027  -3.957  20.476
 7036CHOL    R285643   7.214  -3.820  20.505
 7036CHOL    R385644   7.055  -3.815  20.369
 7036CHOL    R485645   7.236  -3.710  20.421
 7036CHOL    R585646   7.080  -3.690  20.274
 7036CHOL    C185647   7.117  -3.501  20.130
 7036CHOL    C285648   7.155  -3.312  19.987
 7037CHOL   ROH85649  23.531  20.672   5.981
 7037CHOL    R185650  23.406  20.579   6.017
 7037CHOL    R285651  23.404  20.353   5.958
 7037CHOL    R385652  23.266  20.474   6.058
 7037CHOL    R485653  23.294  20.272   5.990
 7037CHOL    R585654  23.141  20.381   6.094
 7037CHOL    C185655  22.954  20.241   6.149
 7037CHOL    C285656  22.767  20.101   6.203
 7038CHOL   ROH85657  16.200  23.162  -0.329
 7038CHOL    R185658  16.139  23.044  -0.241
 7038CHOL    R285659  16.013  22.873  -0.339
 7038CHOL    R385660  16.070  22.910  -0.141
 7038CHOL    R485661  15.960  22.770  -0.262
 7038CHOL    R585662  16.009  22.792  -0.053
 7038CHOL    C185663  15.917  22.614   0.079
 7038CHOL    C285664  15.825  22.437   0.212
 7039CHOL   ROH85665   5.946  18.405  25.234
 7039CHOL    R185666   5.979  18.326  25.099
 7039CHOL    R285667   6.174  18.370  24.979
 7039CHOL    R385668   6.016  18.238  24.946
 7039CHOL    R485669   6.203  18.301  24.860
 7039CHOL    R585670   6.049  18.159  24.811
 7039CHOL    C185671   6.098  18.041  24.608
 7039CHOL    C285672   6.147  17.923  24.405
 7040CHOL   ROH85673  -5.827  14.549   2.847
 7040CHOL    R185674  -5.685  14.506   2.907
 7040CHOL    R285675  -5.643  14.519   3.136
 7040CHOL    R385676  -5.526  14.457   2.976
 7040CHOL    R485677  -5.520  14.481   3.189
 7040CHOL    R585678  -5.385  14.414   3.036
 7040CHOL    C185679  -5.172  14.348   3.127
 7040CHOL    C285680  -4.960  14.283   3.217
 7041CHOL   ROH85681  10.723  -7.829   9.945
 7041CHOL    R185682  10.718  -7.669   9.943
 7041CHOL    R285683  10.882  -7.545   9.835
 7041CHOL    R385684  10.712  -7.489   9.942
 7041CHOL    R485685  10.878  -7.405   9.833
 7041CHOL    R585686  10.707  -7.329   9.940
 7041CHOL    C185687  10.699  -7.090   9.938
 7041CHOL    C285688  10.691  -6.850   9.935
 7042CHOL   ROH85689  22.440  21.558   4.865
 7042CHOL    R185690  22.324  21.458   4.911
 7042CHOL    R285691  22.284  21.260   4.794
 7042CHOL    R385692  22.194  21.344   4.963
 7042CHOL    R485693  22.183  21.172   4.835
 7042CHOL    R585694  22.078  21.244   5.009
 7042CHOL    C185695  21.905  21.093   5.077
 7042CHOL    C285696  21.731  20.943   5.146
 7043CHOL   ROH85697   4.939  16.881  25.742
 7043CHOL    R185698   4.983  16.819  25.602
 7043CHOL    R285699   5.198  16.735  25.570
 7043CHOL    R385700   5.033  16.748  25.443
 7043CHOL    R485701   5.237  16.680  25.447
 7043CHOL    R585702   5.077  16.686  25.303
 7043CHOL    C185703   5.143  16.592  25.092
 7043CHOL    C285704   5.209  16.499  24.882
 7044CHOL   ROH85705  -2.019   6.584  22.796
 7044CHOL    R185706  -1.915   6.618  22.679
 7044CHOL    R285707  -1.688   6.641  22.724
 7044CHOL    R385708  -1.799   6.657  22.547
 7044CHOL    R485709  -1.597   6.671  22.621
 7044CHOL    R585710  -1.695   6.691  22.430
 7044CHOL    C185711  -1.539   6.742  22.255
 7044CHOL    C285712  -1.384   6.794  22.080
 7045CHOL   ROH85713  11.084  -7.812  10.048
 7045CHOL    R185714  11.076  -7.652  10.045
 7045CHOL    R285715  11.255  -7.524   9.968
 7045CHOL    R385716  11.068  -7.472  10.043
 7045CHOL    R485717  11.249  -7.385   9.965
 7045CHOL    R585718  11.060  -7.312  10.040
 7045CHOL    C185719  11.048  -7.073  10.036
 7045CHOL    C285720  11.037  -6.833  10.032
 7046CHOL   ROH85721  -7.730  13.215  10.448
 7046CHOL    R185722  -7.573  13.184  10.445
 7046CHOL    R285723  -7.477  13.034  10.596
 7046CHOL    R385724  -7.396  13.149  10.441
 7046CHOL    R485725  -7.340  13.007  10.593
 7046CHOL    R585726  -7.240  13.119  10.438
 7046CHOL    C185727  -7.004  13.072  10.433
 7046CHOL    C285728  -6.769  13.026  10.428
 7047CHOL   ROH85729  22.071  -2.941  11.602
 7047CHOL    R185730  21.962  -2.825  11.585
 7047CHOL    R285731  21.987  -2.661  11.420
 7047CHOL    R385732  21.840  -2.694  11.565
 7047CHOL    R485733  21.892  -2.560  11.405
 7047CHOL    R585734  21.732  -2.578  11.547
 7047CHOL    C185735  21.569  -2.404  11.521
 7047CHOL    C285736  21.406  -2.230  11.495
 7048CHOL   ROH85737  10.133  -6.642  16.511
 7048CHOL    R185738  10.132  -6.493  16.453
 7048CHOL    R285739  10.252  -6.323  16.557
 7048CHOL    R385740  10.131  -6.325  16.387
 7048CHOL    R485741  10.251  -6.192  16.506
 7048CHOL    R585742  10.130  -6.177  16.328
 7048CHOL    C185743  10.129  -5.953  16.241
 7048CHOL    C285744  10.128  -5.730  16.153
 7049CHOL   ROH85745  -6.261  17.713  10.202
 7049CHOL    R185746  -6.116  17.646  10.198
 7049CHOL    R285747  -6.062  17.467  10.338
 7049CHOL    R385748  -5.953  17.570  10.193
 7049CHOL    R485749  -5.935  17.408  10.335
 7049CHOL    R585750  -5.807  17.503  10.189
 7049CHOL    C185751  -5.590  17.402  10.183
 7049CHOL    C285752  -5.372  17.301  10.177
 7050CHOL   ROH85753  15.907  -4.906   2.175
 7050CHOL    R185754  15.851  -4.772   2.243
 7050CHOL    R285755  15.964  -4.569   2.218
 7050CHOL    R385756  15.789  -4.621   2.319
 7050CHOL    R485757  15.916  -4.452   2.278
 7050CHOL    R585758  15.733  -4.487   2.386
 7050CHOL    C185759  15.649  -4.287   2.488
 7050CHOL    C285760  15.566  -4.086   2.590
 7051CHOL   ROH85761   6.855   4.731  26.646
 7051CHOL    R185762   6.882   4.782  26.497
 7051CHOL    R285763   6.967   4.638  26.334
 7051CHOL    R385764   6.913   4.839  26.329
 7051CHOL    R485765   6.991   4.682  26.204
 7051CHOL    R585766   6.940   4.890  26.179
 7051CHOL    C185767   6.981   4.966  25.956
 7051CHOL    C285768   7.022   5.043  25.732
 7052CHOL   ROH85769   8.209   0.692  25.065
 7052CHOL    R185770   8.224   0.772  24.927
 7052CHOL    R285771   8.335   0.977  24.918
 7052CHOL    R385772   8.240   0.862  24.772
 7052CHOL    R485773   8.348   1.047  24.798
 7052CHOL    R585774   8.255   0.941  24.634
 7052CHOL    C185775   8.277   1.061  24.427
 7052CHOL    C285776   8.299   1.181  24.220
 7053CHOL   ROH85777   7.391  27.564  12.107
 7053CHOL    R185778   7.411  27.406  12.089
 7053CHOL    R285779   7.495  27.275  12.262
 7053CHOL    R385780   7.432  27.229  12.068
 7053CHOL    R485781   7.512  27.137  12.246
 7053CHOL    R585782   7.452  27.071  12.050
 7053CHOL    C185783   7.481  26.834  12.023
 7053CHOL    C285784   7.511  26.598  11.995
 7054CHOL   ROH85785  26.483   3.448   9.515
 7054CHOL    R185786  26.334   3.507   9.519
 7054CHOL    R285787  26.275   3.694   9.393
 7054CHOL    R385788  26.167   3.573   9.524
 7054CHOL    R485789  26.145   3.745   9.397
 7054CHOL    R585790  26.018   3.631   9.529
 7054CHOL    C185791  25.795   3.720   9.535
 7054CHOL    C285792  25.572   3.808   9.541
 7055CHOL   ROH85793  17.701   2.023  23.864
 7055CHOL    R185794  17.628   2.093  23.740
 7055CHOL    R285795  17.735   2.257  23.614
 7055CHOL    R385796  17.545   2.173  23.602
 7055CHOL    R485797  17.671   2.319  23.506
 7055CHOL    R585798  17.471   2.243  23.478
 7055CHOL    C185799  17.361   2.349  23.293
 7055CHOL    C285800  17.251   2.454  23.107
 7056CHOL   ROH85801   8.129   7.728  27.543
 7056CHOL    R185802   8.146   7.747  27.385
 7056CHOL    R285803   8.343   7.685  27.277
 7056CHOL    R385804   8.165   7.768  27.207
 7056CHOL    R485805   8.358   7.702  27.139
 7056CHOL    R585806   8.182   7.788  27.050
 7056CHOL    C185807   8.207   7.816  26.813
 7056CHOL    C285808   8.232   7.845  26.576
 7057CHOL   ROH85809  17.679  19.361  22.977
 7057CHOL    R185810  17.608  19.279  22.859
 7057CHOL    R285811  17.584  19.372  22.646
 7057CHOL    R385812  17.528  19.187  22.727
 7057CHOL    R485813  17.522  19.300  22.543
 7057CHOL    R585814  17.457  19.105  22.609
 7057CHOL    C185815  17.350  18.983  22.432
 7057CHOL    C285816  17.244  18.860  22.256
 7058CHOL   ROH85817  -6.327   3.374   6.613
 7058CHOL    R185818  -6.182   3.435   6.641
 7058CHOL    R285819  -6.031   3.326   6.781
 7058CHOL    R385820  -6.018   3.504   6.672
 7058CHOL    R485821  -5.903   3.379   6.805
 7058CHOL    R585822  -5.873   3.564   6.700
 7058CHOL    C185823  -5.655   3.656   6.741
 7058CHOL    C285824  -5.437   3.747   6.783
 7059CHOL   ROH85825  21.967  23.140  10.420
 7059CHOL    R185826  21.860  23.021  10.414
 7059CHOL    R285827  21.805  22.919  10.212
 7059CHOL    R385828  21.740  22.887  10.408
 7059CHOL    R485829  21.711  22.815  10.207
 7059CHOL    R585830  21.633  22.768  10.403
 7059CHOL    C185831  21.473  22.590  10.394
 7059CHOL    C285832  21.312  22.412  10.386
 7060CHOL   ROH85833  -0.144  -0.732  20.133
 7060CHOL    R185834  -0.054  -0.638  20.040
 7060CHOL    R285835   0.170  -0.597  20.092
 7060CHOL    R385836   0.048  -0.533  19.935
 7060CHOL    R485837   0.249  -0.515  20.010
 7060CHOL    R585838   0.138  -0.439  19.841
 7060CHOL    C185839   0.273  -0.299  19.702
 7060CHOL    C285840   0.409  -0.159  19.562
 7061CHOL   ROH85841  25.452   7.322   1.632
 7061CHOL    R185842  25.312   7.343   1.706
 7061CHOL    R285843  25.164   7.165   1.734
 7061CHOL    R385844  25.154   7.366   1.790
 7061CHOL    R485845  25.041   7.183   1.799
 7061CHOL    R585846  25.014   7.387   1.864
 7061CHOL    C185847  24.804   7.418   1.975
 7061CHOL    C285848  24.594   7.449   2.087
 7062CHOL   ROH85849  -4.505   5.146  19.490
 7062CHOL    R185850  -4.379   5.188  19.401
 7062CHOL    R285851  -4.162   5.175  19.486
 7062CHOL    R385852  -4.237   5.235  19.301
 7062CHOL    R485853  -4.052   5.212  19.408
 7062CHOL    R585854  -4.111   5.277  19.212
 7062CHOL    C185855  -3.921   5.340  19.078
 7062CHOL    C285856  -3.732   5.403  18.944
 7063CHOL   ROH85857  10.729  26.545   3.282
 7063CHOL    R185858  10.716  26.397   3.341
 7063CHOL    R285859  10.733  26.211   3.202
 7063CHOL    R385860  10.702  26.230   3.407
 7063CHOL    R485861  10.722  26.081   3.253
 7063CHOL    R585862  10.689  26.082   3.466
 7063CHOL    C185863  10.670  25.860   3.554
 7063CHOL    C285864  10.651  25.638   3.643
 7064CHOL   ROH85865   4.431  -2.191  21.821
 7064CHOL    R185866   4.479  -2.081  21.716
 7064CHOL    R285867   4.545  -1.868  21.786
 7064CHOL    R385868   4.533  -1.956  21.597
 7064CHOL    R485869   4.587  -1.772  21.694
 7064CHOL    R585870   4.582  -1.846  21.492
 7064CHOL    C185871   4.654  -1.680  21.333
 7064CHOL    C285872   4.726  -1.515  21.175
 7065CHOL   ROH85873   4.072  -6.242  14.657
 7065CHOL    R185874   4.124  -6.097  14.615
 7065CHOL    R285875   4.350  -6.041  14.633
 7065CHOL    R385876   4.183  -5.933  14.569
 7065CHOL    R485877   4.396  -5.914  14.597
 7065CHOL    R585878   4.236  -5.788  14.527
 7065CHOL    C185879   4.314  -5.570  14.465
 7065CHOL    C285880   4.392  -5.352  14.402
 7066CHOL   ROH85881  17.927  22.037  -0.420
 7066CHOL    R185882  17.851  21.927  -0.332
 7066CHOL    R285883  17.767  21.733  -0.429
 7066CHOL    R385884  17.765  21.804  -0.233
 7066CHOL    R485885  17.700  21.637  -0.352
 7066CHOL    R585886  17.689  21.694  -0.145
 7066CHOL    C185887  17.575  21.529  -0.013
 7066CHOL    C285888  17.461  21.365   0.119
 7067CHOL   ROH85889  -0.645  18.449  21.573
 7067CHOL    R185890  -0.552  18.375  21.466
 7067CHOL    R285891  -0.320  18.403  21.470
 7067CHOL    R385892  -0.446  18.292  21.346
 7067CHOL    R485893  -0.238  18.339  21.376
 7067CHOL    R585894  -0.353  18.218  21.240
 7067CHOL    C185895  -0.213  18.107  21.079
 7067CHOL    C285896  -0.073  17.996  20.919
 7068CHOL   ROH85897  12.420  -1.135  23.579
 7068CHOL    R185898  12.396  -1.031  23.460
 7068CHOL    R285899  12.575  -0.937  23.344
 7068CHOL    R385900  12.368  -0.914  23.326
 7068CHOL    R485901  12.553  -0.846  23.240
 7068CHOL    R585902  12.344  -0.810  23.207
 7068CHOL    C185903  12.307  -0.654  23.028
 7068CHOL    C285904  12.270  -0.498  22.850
 7069CHOL   ROH85905  24.698   2.867   2.920
 7069CHOL    R185906  24.566   2.931   2.983
 7069CHOL    R285907  24.459   3.111   2.880
 7069CHOL    R385908  24.417   3.004   3.054
 7069CHOL    R485909  24.343   3.167   2.935
 7069CHOL    R585910  24.285   3.069   3.118
 7069CHOL    C185911  24.087   3.165   3.212
 7069CHOL    C285912  23.889   3.262   3.307
 7070CHOL   ROH85913  19.148  -4.893  13.178
 7070CHOL    R185914  19.065  -4.759  13.149
 7070CHOL    R285915  19.154  -4.590  13.016
 7070CHOL    R385916  18.972  -4.609  13.116
 7070CHOL    R485917  19.082  -4.473  12.990
 7070CHOL    R585918  18.889  -4.475  13.087
 7070CHOL    C185919  18.765  -4.275  13.043
 7070CHOL    C285920  18.640  -4.075  12.999
 7071CHOL   ROH85921  16.058   0.601  -4.007
 7071CHOL    R185922  16.004   0.688  -3.884
 7071CHOL    R285923  15.962   0.916  -3.908
 7071CHOL    R385924  15.944   0.786  -3.746
 7071CHOL    R485925  15.915   0.993  -3.801
 7071CHOL    R585926  15.890   0.873  -3.623
 7071CHOL    C185927  15.809   1.004  -3.439
 7071CHOL    C285928  15.729   1.135  -3.254
 7072CHOL   ROH85929  -1.809  -1.614   2.865
 7072CHOL    R185930  -1.703  -1.511   2.926
 7072CHOL    R285931  -1.546  -1.580   3.085
 7072CHOL    R385932  -1.584  -1.395   2.995
 7072CHOL    R485933  -1.454  -1.490   3.138
 7072CHOL    R585934  -1.478  -1.293   3.057
 7072CHOL    C185935  -1.318  -1.138   3.148
 7072CHOL    C285936  -1.159  -0.984   3.240
 7073CHOL   ROH85937  12.094  25.913   2.249
 7073CHOL    R185938  12.069  25.770   2.316
 7073CHOL    R285939  12.197  25.585   2.253
 7073CHOL    R385940  12.042  25.608   2.390
 7073CHOL    R485941  12.176  25.459   2.311
 7073CHOL    R585942  12.017  25.465   2.457
 7073CHOL    C185943  11.980  25.250   2.557
 7073CHOL    C285944  11.943  25.035   2.657
 7074CHOL   ROH85945   7.963  -1.101  -3.962
 7074CHOL    R185946   7.981  -1.000  -3.839
 7074CHOL    R285947   8.137  -1.041  -3.671
 7074CHOL    R385948   8.001  -0.886  -3.702
 7074CHOL    R485949   8.153  -0.953  -3.564
 7074CHOL    R585950   8.019  -0.784  -3.579
 7074CHOL    C185951   8.046  -0.633  -3.395
 7074CHOL    C285952   8.073  -0.481  -3.211
 7075CHOL   ROH85953  -2.871  22.186  12.889
 7075CHOL    R185954  -2.754  22.080  12.861
 7075CHOL    R285955  -2.542  22.109  12.953
 7075CHOL    R385956  -2.623  21.961  12.830
 7075CHOL    R485957  -2.440  22.016  12.929
 7075CHOL    R585958  -2.506  21.856  12.802
 7075CHOL    C185959  -2.332  21.697  12.760
 7075CHOL    C285960  -2.157  21.538  12.718
 7076CHOL   ROH85961  14.395  -4.321  19.609
 7076CHOL    R185962  14.357  -4.195  19.518
 7076CHOL    R285963  14.467  -3.991  19.545
 7076CHOL    R385964  14.314  -4.052  19.417
 7076CHOL    R485965  14.434  -3.880  19.466
 7076CHOL    R585966  14.276  -3.926  19.326
 7076CHOL    C185967  14.220  -3.736  19.190
 7076CHOL    C285968  14.163  -3.547  19.054
 7077CHOL   ROH85969   9.010  27.444  13.629
 7077CHOL    R185970   9.014  27.287  13.598
 7077CHOL    R285971   9.158  27.145  13.715
 7077CHOL    R385972   9.020  27.111  13.562
 7077CHOL    R485973   9.162  27.008  13.687
 7077CHOL    R585974   9.024  26.954  13.531
 7077CHOL    C185975   9.031  26.719  13.484
 7077CHOL    C285976   9.037  26.484  13.437
 7078CHOL   ROH85977  25.147  18.371  13.747
 7078CHOL    R185978  25.010  18.295  13.714
 7078CHOL    R285979  24.876  18.363  13.535
 7078CHOL    R385980  24.856  18.210  13.676
 7078CHOL    R485981  24.756  18.297  13.506
 7078CHOL    R585982  24.719  18.135  13.642
 7078CHOL    C185983  24.514  18.021  13.592
 7078CHOL    C285984  24.308  17.907  13.542
 7079CHOL   ROH85985  -7.731   6.950  10.454
 7079CHOL    R185986  -7.574   6.981  10.446
 7079CHOL    R285987  -7.424   6.875  10.590
 7079CHOL    R385988  -7.398   7.015  10.437
 7079CHOL    R485989  -7.287   6.902  10.583
 7079CHOL    R585990  -7.241   7.046  10.429
 7079CHOL    C185991  -7.006   7.091  10.417
 7079CHOL    C285992  -6.771   7.137  10.405
 7080CHOL   ROH85993  21.982  22.671  13.002
 7080CHOL    R185994  21.872  22.560  12.968
 7080CHOL    R285995  21.894  22.341  13.046
 7080CHOL    R385996  21.748  22.435  12.930
 7080CHOL    R485997  21.797  22.244  13.017
 7080CHOL    R585998  21.637  22.325  12.897
 7080CHOL    C185999  21.472  22.158  12.846
 7080CHOL    C286000  21.307  21.992  12.795
 7081CHOL   ROH86001   4.465  -6.382   5.263
 7081CHOL    R186002   4.511  -6.235   5.306
 7081CHOL    R286003   4.674  -6.120   5.184
 7081CHOL    R386004   4.564  -6.070   5.354
 7081CHOL    R486005   4.714  -5.991   5.221
 7081CHOL    R586006   4.610  -5.922   5.397
 7081CHOL    C186007   4.680  -5.702   5.461
 7081CHOL    C286008   4.749  -5.481   5.525
 7082CHOL   ROH86009  -0.230  22.934  16.978
 7082CHOL    R186010  -0.141  22.816  16.917
 7082CHOL    R286011   0.034  22.722  17.040
 7082CHOL    R386012  -0.040  22.683  16.849
 7082CHOL    R486013   0.112  22.619  16.987
 7082CHOL    R586014   0.049  22.565  16.788
 7082CHOL    C186015   0.183  22.389  16.697
 7082CHOL    C286016   0.317  22.212  16.606
 7083CHOL   ROH86017  -7.340  11.877  14.389
 7083CHOL    R186018  -7.186  11.863  14.349
 7083CHOL    R286019  -7.022  11.837  14.513
 7083CHOL    R386020  -7.012  11.848  14.305
 7083CHOL    R486021  -6.887  11.824  14.479
 7083CHOL    R586022  -6.858  11.834  14.266
 7083CHOL    C186023  -6.626  11.813  14.206
 7083CHOL    C286024  -6.394  11.793  14.147
 7084CHOL   ROH86025   7.748  -6.248  17.082
 7084CHOL    R186026   7.767  -6.103  17.018
 7084CHOL    R286027   7.898  -5.941  17.123
 7084CHOL    R386028   7.788  -5.939  16.946
 7084CHOL    R486029   7.915  -5.814  17.067
 7084CHOL    R586030   7.807  -5.794  16.882
 7084CHOL    C186031   7.835  -5.576  16.785
 7084CHOL    C286032   7.864  -5.358  16.689
 7085CHOL   ROH86033  -5.829  18.229   7.497
 7085CHOL    R186034  -5.687  18.159   7.522
 7085CHOL    R286035  -5.489  18.266   7.463
 7085CHOL    R386036  -5.528  18.080   7.549
 7085CHOL    R486037  -5.365  18.204   7.485
 7085CHOL    R586038  -5.386  18.010   7.574
 7085CHOL    C186039  -5.174  17.904   7.611
 7085CHOL    C286040  -4.962  17.799   7.648
 7086CHOL   ROH86041   5.197  10.272  27.076
 7086CHOL    R186042   5.237  10.261  26.921
 7086CHOL    R286043   5.460  10.268  26.854
 7086CHOL    R386044   5.282  10.249  26.748
 7086CHOL    R486045   5.495  10.259  26.719
 7086CHOL    R586046   5.322  10.238  26.593
 7086CHOL    C186047   5.381  10.222  26.361
 7086CHOL    C286048   5.441  10.205  26.129
 7087CHOL   ROH86049  25.013  14.740  18.132
 7087CHOL    R186050  24.876  14.699  18.061
 7087CHOL    R286051  24.807  14.476  18.052
 7087CHOL    R386052  24.721  14.653  17.980
 7087CHOL    R486053  24.687  14.440  17.989
 7087CHOL    R586054  24.584  14.612  17.909
 7087CHOL    C186055  24.378  14.551  17.802
 7087CHOL    C286056  24.172  14.489  17.695
 7088CHOL   ROH86057   0.054  -0.051  -1.022
 7088CHOL    R186058   0.139   0.040  -0.921
 7088CHOL    R286059   0.088   0.046  -0.694
 7088CHOL    R386060   0.235   0.142  -0.808
 7088CHOL    R486061   0.162   0.126  -0.605
 7088CHOL    R586062   0.319   0.233  -0.707
 7088CHOL    C186063   0.447   0.369  -0.556
 7088CHOL    C286064   0.574   0.505  -0.405
 7089CHOL   ROH86065  13.295  10.815  -7.608
 7089CHOL    R186066  13.262  10.804  -7.452
 7089CHOL    R286067  13.043  10.823  -7.374
 7089CHOL    R386068  13.225  10.792  -7.276
 7089CHOL    R486069  13.014  10.814  -7.237
 7089CHOL    R586070  13.192  10.782  -7.120
 7089CHOL    C186071  13.143  10.765  -6.886
 7089CHOL    C286072  13.093  10.749  -6.652
 7090CHOL   ROH86073  18.938   2.381  -3.430
 7090CHOL    R186074  18.853   2.446  -3.311
 7090CHOL    R286075  18.907   2.657  -3.226
 7090CHOL    R386076  18.758   2.519  -3.177
 7090CHOL    R486077  18.833   2.714  -3.122
 7090CHOL    R586078  18.673   2.585  -3.058
 7090CHOL    C186079  18.546   2.682  -2.879
 7090CHOL    C286080  18.419   2.780  -2.701
 7091CHOL   ROH86081  20.197   1.247  21.537
 7091CHOL    R186082  20.103   1.324  21.433
 7091CHOL    R286083  20.168   1.350  21.210
 7091CHOL    R386084  19.998   1.411  21.315
 7091CHOL    R486085  20.086   1.417  21.119
 7091CHOL    R586086  19.905   1.488  21.211
 7091CHOL    C186087  19.764   1.604  21.055
 7091CHOL    C286088  19.624   1.719  20.898
 7092CHOL   ROH86089   5.525  -4.013  20.157
 7092CHOL    R186090   5.565  -3.889  20.065
 7092CHOL    R286091   5.726  -3.735  20.133
 7092CHOL    R386092   5.610  -3.749  19.960
 7092CHOL    R486093   5.761  -3.626  20.052
 7092CHOL    R586094   5.649  -3.625  19.868
 7092CHOL    C186095   5.709  -3.438  19.729
 7092CHOL    C286096   5.769  -3.252  19.591
 7093CHOL   ROH86097  26.382   9.456  16.781
 7093CHOL    R186098  26.235   9.461  16.718
 7093CHOL    R286099  26.193   9.378  16.504
 7093CHOL    R386100  26.070   9.466  16.647
 7093CHOL    R486101  26.065   9.382  16.449
 7093CHOL    R586102  25.922   9.471  16.584
 7093CHOL    C186103  25.702   9.478  16.489
 7093CHOL    C286104  25.481   9.485  16.395
 7094CHOL   ROH86105  10.225   4.864  -7.114
 7094CHOL    R186106  10.224   4.910  -6.961
 7094CHOL    R286107  10.333   5.105  -6.894
 7094CHOL    R386108  10.223   4.963  -6.789
 7094CHOL    R486109  10.332   5.146  -6.760
 7094CHOL    R586110  10.222   5.009  -6.636
 7094CHOL    C186111  10.221   5.079  -6.406
 7094CHOL    C286112  10.219   5.148  -6.176
 7095CHOL   ROH86113  16.693   5.738  -5.938
 7095CHOL    R186114  16.630   5.774  -5.795
 7095CHOL    R286115  16.493   5.960  -5.767
 7095CHOL    R386116  16.560   5.814  -5.634
 7095CHOL    R486117  16.438   5.991  -5.642
 7095CHOL    R586118  16.497   5.849  -5.492
 7095CHOL    C186119  16.404   5.903  -5.277
 7095CHOL    C286120  16.310   5.957  -5.063
 7096CHOL   ROH86121   2.345  18.741  -3.742
 7096CHOL    R186122   2.414  18.667  -3.618
 7096CHOL    R286123   2.611  18.749  -3.524
 7096CHOL    R386124   2.491  18.584  -3.478
 7096CHOL    R486125   2.671  18.684  -3.415
 7096CHOL    R586126   2.559  18.510  -3.354
 7096CHOL    C186127   2.662  18.399  -3.168
 7096CHOL    C286128   2.765  18.288  -2.982
 7097CHOL   ROH86129  14.034  -6.894  13.991
 7097CHOL    R186130  13.996  -6.743  13.953
 7097CHOL    R286131  14.094  -6.638  13.769
 7097CHOL    R386132  13.954  -6.574  13.911
 7097CHOL    R486133  14.060  -6.506  13.736
 7097CHOL    R586134  13.916  -6.423  13.873
 7097CHOL    C186135  13.859  -6.197  13.816
 7097CHOL    C286136  13.803  -5.971  13.760
 7098CHOL   ROH86137  17.530  22.265  -0.471
 7098CHOL    R186138  17.457  22.154  -0.382
 7098CHOL    R286139  17.377  21.957  -0.479
 7098CHOL    R386140  17.374  22.028  -0.283
 7098CHOL    R486141  17.312  21.859  -0.401
 7098CHOL    R586142  17.301  21.917  -0.194
 7098CHOL    C186143  17.191  21.750  -0.061
 7098CHOL    C286144  17.081  21.583   0.072
 7099CHOL   ROH86145  16.213  17.800  -4.808
 7099CHOL    R186146  16.157  17.730  -4.676
 7099CHOL    R286147  16.141  17.498  -4.660
 7099CHOL    R386148  16.093  17.651  -4.527
 7099CHOL    R486149  16.092  17.436  -4.544
 7099CHOL    R586150  16.037  17.581  -4.394
 7099CHOL    C186151  15.953  17.476  -4.196
 7099CHOL    C286152  15.868  17.371  -3.998
 7100CHOL   ROH86153  21.530  10.481  23.404
 7100CHOL    R186154  21.425  10.473  23.284
 7100CHOL    R286155  21.486  10.533  23.067
 7100CHOL    R386156  21.307  10.463  23.148
 7100CHOL    R486157  21.394  10.525  22.961
 7100CHOL    R586158  21.202  10.455  23.028
 7100CHOL    C186159  21.045  10.442  22.847
 7100CHOL    C286160  20.887  10.429  22.666
 7101CHOL   ROH86161   8.240  27.692   8.435
 7101CHOL    R186162   8.253  27.533   8.448
 7101CHOL    R286163   8.397  27.412   8.311
 7101CHOL    R386164   8.267  27.354   8.463
 7101CHOL    R486165   8.408  27.273   8.322
 7101CHOL    R586166   8.280  27.195   8.476
 7101CHOL    C186167   8.298  26.957   8.496
 7101CHOL    C286168   8.317  26.719   8.516
 7102CHOL   ROH86169  11.520  27.742   9.580
 7102CHOL    R186170  11.507  27.583   9.582
 7102CHOL    R286171  11.670  27.447   9.485
 7102CHOL    R386172  11.491  27.403   9.584
 7102CHOL    R486173  11.658  27.308   9.487
 7102CHOL    R586174  11.478  27.244   9.586
 7102CHOL    C186175  11.458  27.005   9.589
 7102CHOL    C286176  11.438  26.766   9.592
 7103CHOL   ROH86177  -7.762  10.767   7.375
 7103CHOL    R186178  -7.605  10.758   7.404
 7103CHOL    R286179  -7.523  10.631   7.582
 7103CHOL    R386180  -7.428  10.747   7.437
 7103CHOL    R486181  -7.386  10.623   7.608
 7103CHOL    R586182  -7.271  10.738   7.466
 7103CHOL    C186183  -7.035  10.724   7.510
 7103CHOL    C286184  -6.800  10.710   7.553
 7104CHOL   ROH86185  17.336  25.457  14.834
 7104CHOL    R186186  17.270  25.319  14.786
 7104CHOL    R286187  17.289  25.247  14.565
 7104CHOL    R386188  17.196  25.164  14.733
 7104CHOL    R486189  17.231  25.126  14.524
 7104CHOL    R586190  17.130  25.026  14.686
 7104CHOL    C186191  17.030  24.820  14.614
 7104CHOL    C286192  16.931  24.613  14.543
 7105CHOL   ROH86193  16.788  25.255  16.022
 7105CHOL    R186194  16.727  25.119  15.965
 7105CHOL    R286195  16.770  25.050  15.746
 7105CHOL    R386196  16.658  24.965  15.901
 7105CHOL    R486197  16.717  24.931  15.696
 7105CHOL    R586198  16.597  24.829  15.843
 7105CHOL    C186199  16.505  24.624  15.758
 7105CHOL    C286200  16.414  24.419  15.672
 7106CHOL   ROH86201  -6.606  16.936   9.820
 7106CHOL    R186202  -6.458  16.875   9.819
 7106CHOL    R286203  -6.271  17.013   9.839
 7106CHOL    R386204  -6.292  16.806   9.819
 7106CHOL    R486205  -6.142  16.959   9.838
 7106CHOL    R586206  -6.144  16.745   9.818
 7106CHOL    C186207  -5.922  16.653   9.817
 7106CHOL    C286208  -5.700  16.561   9.816
 7107CHOL   ROH86209   4.862  -6.172  15.726
 7107CHOL    R186210   4.909  -6.028  15.675
 7107CHOL    R286211   5.037  -6.004  15.482
 7107CHOL    R386212   4.962  -5.865  15.618
 7107CHOL    R486213   5.078  -5.878  15.437
 7107CHOL    R586214   5.009  -5.721  15.568
 7107CHOL    C186215   5.079  -5.505  15.491
 7107CHOL    C286216   5.149  -5.288  15.415
 7108CHOL   ROH86217  27.598  10.237   8.511
 7108CHOL    R186218  27.438  10.237   8.522
 7108CHOL    R286219  27.315  10.427   8.467
 7108CHOL    R386220  27.259  10.237   8.533
 7108CHOL    R486221  27.175  10.427   8.476
 7108CHOL    R586222  27.099  10.237   8.544
 7108CHOL    C186223  26.859  10.238   8.560
 7108CHOL    C286224  26.620  10.238   8.576
 7109CHOL   ROH86225  10.130  26.520  16.743
 7109CHOL    R186226  10.128  26.372  16.682
 7109CHOL    R286227  10.247  26.199  16.783
 7109CHOL    R386228  10.126  26.206  16.613
 7109CHOL    R486229  10.245  26.069  16.729
 7109CHOL    R586230  10.124  26.058  16.551
 7109CHOL    C186231  10.120  25.836  16.460
 7109CHOL    C286232  10.117  25.614  16.368
 7110CHOL   ROH86233  24.684   2.177   3.666
 7110CHOL    R186234  24.552   2.247   3.722
 7110CHOL    R286235  24.547   2.476   3.766
 7110CHOL    R386236  24.403   2.327   3.785
 7110CHOL    R486237  24.431   2.538   3.815
 7110CHOL    R586238  24.271   2.397   3.841
 7110CHOL    C186239  24.072   2.503   3.925
 7110CHOL    C286240  23.874   2.608   4.009
 7111CHOL   ROH86241  19.855   5.208  -4.050
 7111CHOL    R186242  19.766   5.251  -3.924
 7111CHOL    R286243  19.557   5.154  -3.886
 7111CHOL    R386244  19.667   5.299  -3.782
 7111CHOL    R486245  19.480   5.192  -3.775
 7111CHOL    R586246  19.578   5.342  -3.656
 7111CHOL    C186247  19.445   5.406  -3.467
 7111CHOL    C286248  19.312   5.471  -3.278
 7112CHOL   ROH86249  17.761  25.896  10.552
 7112CHOL    R186250  17.688  25.754  10.548
 7112CHOL    R286251  17.810  25.556  10.570
 7112CHOL    R386252  17.606  25.593  10.543
 7112CHOL    R486253  17.746  25.431  10.566
 7112CHOL    R586254  17.533  25.451  10.538
 7112CHOL    C186255  17.424  25.237  10.532
 7112CHOL    C286256  17.315  25.024  10.526
 7113CHOL   ROH86257  19.748  -0.610  20.307
 7113CHOL    R186258  19.660  -0.514  20.214
 7113CHOL    R286259  19.761  -0.350  20.081
 7113CHOL    R386260  19.562  -0.406  20.108
 7113CHOL    R486261  19.684  -0.267  20.000
 7113CHOL    R586262  19.474  -0.311  20.015
 7113CHOL    C186263  19.342  -0.167  19.875
 7113CHOL    C286264  19.211  -0.023  19.735
 7114CHOL   ROH86265   7.519  -5.272  18.921
 7114CHOL    R186266   7.540  -5.135  18.840
 7114CHOL    R286267   7.730  -5.101  18.709
 7114CHOL    R386268   7.564  -4.982  18.750
 7114CHOL    R486269   7.748  -4.982  18.639
 7114CHOL    R586270   7.585  -4.845  18.669
 7114CHOL    C186271   7.616  -4.640  18.548
 7114CHOL    C286272   7.647  -4.435  18.427
 7115CHOL   ROH86273  -7.721   7.146  11.124
 7115CHOL    R186274  -7.564   7.174  11.110
 7115CHOL    R286275  -7.413   7.094  11.269
 7115CHOL    R386276  -7.387   7.206  11.095
 7115CHOL    R486277  -7.276   7.119  11.257
 7115CHOL    R586278  -7.230   7.234  11.081
 7115CHOL    C186279  -6.995   7.276  11.060
 7115CHOL    C286280  -6.760   7.318  11.040
 7116CHOL   ROH86281  18.894  19.950  21.711
 7116CHOL    R186282  18.811  19.864  21.605
 7116CHOL    R286283  18.913  19.778  21.414
 7116CHOL    R386284  18.717  19.768  21.485
 7116CHOL    R486285  18.841  19.702  21.321
 7116CHOL    R586286  18.634  19.682  21.379
 7116CHOL    C186287  18.509  19.553  21.219
 7116CHOL    C286288  18.384  19.425  21.059
 7117CHOL   ROH86289   8.090  22.672  -2.443
 7117CHOL    R186290   8.106  22.557  -2.333
 7117CHOL    R286291   8.237  22.591  -2.143
 7117CHOL    R386292   8.125  22.428  -2.209
 7117CHOL    R486293   8.251  22.490  -2.046
 7117CHOL    R586294   8.141  22.313  -2.099
 7117CHOL    C186295   8.165  22.140  -1.934
 7117CHOL    C286296   8.190  21.967  -1.769
 7118CHOL   ROH86297  19.603   1.414  22.160
 7118CHOL    R186298  19.514   1.490  22.051
 7118CHOL    R286299  19.591   1.518  21.832
 7118CHOL    R386300  19.414   1.574  21.927
 7118CHOL    R486301  19.513   1.584  21.737
 7118CHOL    R586302  19.325   1.650  21.818
 7118CHOL    C186303  19.192   1.763  21.654
 7118CHOL    C286304  19.058   1.877  21.490
 7119CHOL   ROH86305  -8.023   9.344   9.740
 7119CHOL    R186306  -7.863   9.350   9.740
 7119CHOL    R286307  -7.749   9.510   9.865
 7119CHOL    R386308  -7.683   9.356   9.741
 7119CHOL    R486309  -7.609   9.515   9.865
 7119CHOL    R586310  -7.523   9.362   9.741
 7119CHOL    C186311  -7.284   9.370   9.741
 7119CHOL    C286312  -7.044   9.378   9.742
 7120CHOL   ROH86313  16.934  -4.330  17.980
 7120CHOL    R186314  16.873  -4.200  17.909
 7120CHOL    R286315  17.008  -4.015  17.863
 7120CHOL    R386316  16.805  -4.053  17.830
 7120CHOL    R486317  16.955  -3.901  17.801
 7120CHOL    R586318  16.745  -3.923  17.759
 7120CHOL    C186319  16.654  -3.728  17.654
 7120CHOL    C286320  16.563  -3.532  17.548
 7121CHOL   ROH86321  13.779  27.352  11.420
 7121CHOL    R186322  13.746  27.196  11.406
 7121CHOL    R286323  13.893  27.034  11.486
 7121CHOL    R386324  13.708  27.021  11.390
 7121CHOL    R486325  13.864  26.898  11.474
 7121CHOL    R586326  13.675  26.865  11.376
 7121CHOL    C186327  13.625  26.631  11.354
 7121CHOL    C286328  13.575  26.397  11.333
 7122CHOL   ROH86329  10.515  27.728   8.162
 7122CHOL    R186330  10.510  27.569   8.177
 7122CHOL    R286331  10.689  27.451   8.268
 7122CHOL    R386332  10.504  27.390   8.194
 7122CHOL    R486333  10.685  27.312   8.281
 7122CHOL    R586334  10.499  27.231   8.208
 7122CHOL    C186335  10.491  26.992   8.231
 7122CHOL    C286336  10.484  26.753   8.253
 7123CHOL   ROH86337   9.210   1.514  25.603
 7123CHOL    R186338   9.218   1.589  25.462
 7123CHOL    R286339   9.378   1.754  25.423
 7123CHOL    R386340   9.228   1.672  25.303
 7123CHOL    R486341   9.385   1.819  25.299
 7123CHOL    R586342   9.236   1.747  25.161
 7123CHOL    C186343   9.248   1.859  24.950
 7123CHOL    C286344   9.261   1.971  24.738
 7124CHOL   ROH86345  11.904  18.241  -5.739
 7124CHOL    R186346  11.884  18.168  -5.598
 7124CHOL    R286347  12.048  18.026  -5.513
 7124CHOL    R386348  11.863  18.086  -5.439
 7124CHOL    R486349  12.031  17.962  -5.389
 7124CHOL    R586350  11.843  18.014  -5.298
 7124CHOL    C186351  11.814  17.904  -5.086
 7124CHOL    C286352  11.784  17.795  -4.875
 7125CHOL   ROH86353  16.549  17.689  -4.720
 7125CHOL    R186354  16.489  17.620  -4.589
 7125CHOL    R286355  16.470  17.388  -4.574
 7125CHOL    R386356  16.423  17.542  -4.441
 7125CHOL    R486357  16.418  17.327  -4.459
 7125CHOL    R586358  16.363  17.473  -4.309
 7125CHOL    C186359  16.274  17.369  -4.112
 7125CHOL    C286360  16.184  17.265  -3.915
 7126CHOL   ROH86361  17.874   3.219  -4.512
 7126CHOL    R186362  17.800   3.275  -4.382
 7126CHOL    R286363  17.795   3.504  -4.336
 7126CHOL    R386364  17.716   3.339  -4.236
 7126CHOL    R486365  17.730   3.554  -4.223
 7126CHOL    R586366  17.642   3.396  -4.105
 7126CHOL    C186367  17.531   3.480  -3.910
 7126CHOL    C286368  17.419   3.565  -3.715
 7127CHOL   ROH86369  -4.581   6.549   0.004
 7127CHOL    R186370  -4.452   6.577   0.094
 7127CHOL    R286371  -4.314   6.402   0.163
 7127CHOL    R386372  -4.306   6.608   0.195
 7127CHOL    R486373  -4.200   6.426   0.241
 7127CHOL    R586374  -4.176   6.636   0.285
 7127CHOL    C186375  -3.982   6.678   0.419
 7127CHOL    C286376  -3.788   6.720   0.554
 7128CHOL   ROH86377  -7.413  14.378   8.664
 7128CHOL    R186378  -7.258  14.339   8.678
 7128CHOL    R286379  -7.193  14.127   8.749
 7128CHOL    R386380  -7.084  14.296   8.693
 7128CHOL    R486381  -7.058  14.093   8.762
 7128CHOL    R586382  -6.929  14.257   8.707
 7128CHOL    C186383  -6.697  14.200   8.728
 7128CHOL    C286384  -6.465  14.142   8.748
 7129CHOL   ROH86385   1.220  17.982  23.310
 7129CHOL    R186386   1.302  17.913  23.191
 7129CHOL    R286387   1.509  17.812  23.231
 7129CHOL    R386388   1.394  17.835  23.058
 7129CHOL    R486389   1.580  17.752  23.127
 7129CHOL    R586390   1.476  17.766  22.939
 7129CHOL    C186391   1.599  17.662  22.761
 7129CHOL    C286392   1.722  17.559  22.583
 7130CHOL   ROH86393   4.684  16.780  -5.746
 7130CHOL    R186394   4.731  16.718  -5.606
 7130CHOL    R286395   4.765  16.855  -5.420
 7130CHOL    R386396   4.783  16.649  -5.448
 7130CHOL    R486397   4.805  16.801  -5.297
 7130CHOL    R586398   4.830  16.587  -5.308
 7130CHOL    C186399   4.900  16.495  -5.098
 7130CHOL    C286400   4.970  16.403  -4.888
 7131CHOL   ROH86401  -1.641  23.180  13.703
 7131CHOL    R186402  -1.537  23.064  13.667
 7131CHOL    R286403  -1.390  22.980  13.827
 7131CHOL    R386404  -1.420  22.933  13.626
 7131CHOL    R486405  -1.299  22.878  13.796
 7131CHOL    R586406  -1.317  22.817  13.590
 7131CHOL    C186407  -1.161  22.643  13.536
 7131CHOL    C286408  -1.005  22.469  13.482
 7132CHOL   ROH86409  26.843  13.269  14.198
 7132CHOL    R186410  26.691  13.240  14.158
 7132CHOL    R286411  26.565  13.399  14.042
 7132CHOL    R386412  26.520  13.207  14.113
 7132CHOL    R486413  26.432  13.373  14.007
 7132CHOL    R586414  26.367  13.179  14.073
 7132CHOL    C186415  26.139  13.135  14.012
 7132CHOL    C286416  25.911  13.092  13.952
 7133CHOL   ROH86417  -2.277  13.478  22.521
 7133CHOL    R186418  -2.172  13.445  22.405
 7133CHOL    R286419  -2.006  13.284  22.436
 7133CHOL    R386420  -2.053  13.407  22.275
 7133CHOL    R486421  -1.914  13.254  22.335
 7133CHOL    R586422  -1.948  13.374  22.159
 7133CHOL    C186423  -1.790  13.324  21.985
 7133CHOL    C286424  -1.632  13.274  21.811
 7134CHOL   ROH86425   4.121  -5.026  17.765
 7134CHOL    R186426   4.174  -4.892  17.696
 7134CHOL    R286427   4.284  -4.898  17.490
 7134CHOL    R386428   4.235  -4.741  17.618
 7134CHOL    R486429   4.331  -4.781  17.430
 7134CHOL    R586430   4.288  -4.607  17.549
 7134CHOL    C186431   4.368  -4.406  17.445
 7134CHOL    C286432   4.448  -4.205  17.342
 7135CHOL   ROH86433   3.191   4.145  25.458
 7135CHOL    R186434   3.252   4.196  25.319
 7135CHOL    R286435   3.311   4.420  25.289
 7135CHOL    R386436   3.320   4.253  25.163
 7135CHOL    R486437   3.365   4.464  25.168
 7135CHOL    R586438   3.381   4.305  25.024
 7135CHOL    C186439   3.472   4.381  24.816
 7135CHOL    C286440   3.563   4.458  24.607
 7136CHOL   ROH86441  11.282  21.979  -3.171
 7136CHOL    R186442  11.272  21.872  -3.052
 7136CHOL    R286443  11.464  21.788  -2.950
 7136CHOL    R386444  11.261  21.752  -2.919
 7136CHOL    R486445  11.455  21.695  -2.846
 7136CHOL    R586446  11.251  21.645  -2.801
 7136CHOL    C186447  11.235  21.485  -2.623
 7136CHOL    C286448  11.220  21.324  -2.445
 7137CHOL   ROH86449  -5.123   5.375  18.647
 7137CHOL    R186450  -4.990   5.414  18.567
 7137CHOL    R286451  -4.782   5.410  18.673
 7137CHOL    R386452  -4.840   5.457  18.478
 7137CHOL    R486453  -4.665   5.444  18.603
 7137CHOL    R586454  -4.706   5.496  18.398
 7137CHOL    C186455  -4.507   5.554  18.278
 7137CHOL    C286456  -4.307   5.612  18.159
 7138CHOL   ROH86457  21.504  -1.966   3.519
 7138CHOL    R186458  21.399  -1.859   3.576
 7138CHOL    R286459  21.472  -1.668   3.688
 7138CHOL    R386460  21.282  -1.739   3.640
 7138CHOL    R486461  21.381  -1.574   3.737
 7138CHOL    R586462  21.177  -1.632   3.696
 7138CHOL    C186463  21.020  -1.472   3.782
 7138CHOL    C286464  20.863  -1.311   3.867
 7139CHOL   ROH86465  19.566  24.510  13.700
 7139CHOL    R186466  19.477  24.382  13.664
 7139CHOL    R286467  19.568  24.201  13.550
 7139CHOL    R386468  19.377  24.238  13.624
 7139CHOL    R486469  19.490  24.088  13.518
 7139CHOL    R586470  19.288  24.110  13.588
 7139CHOL    C186471  19.155  23.917  13.535
 7139CHOL    C286472  19.021  23.725  13.481
 7140CHOL   ROH86473   6.745  22.066  -2.797
 7140CHOL    R186474   6.772  21.955  -2.685
 7140CHOL    R286475   6.965  21.959  -2.555
 7140CHOL    R386476   6.801  21.830  -2.559
 7140CHOL    R486477   6.988  21.862  -2.457
 7140CHOL    R586478   6.828  21.719  -2.447
 7140CHOL    C186479   6.868  21.552  -2.279
 7140CHOL    C286480   6.908  21.385  -2.111
 7141CHOL   ROH86481  -0.626   6.470  23.910
 7141CHOL    R186482  -0.531   6.506  23.786
 7141CHOL    R286483  -0.309   6.568  23.819
 7141CHOL    R386484  -0.425   6.546  23.647
 7141CHOL    R486485  -0.226   6.599  23.711
 7141CHOL    R586486  -0.330   6.582  23.523
 7141CHOL    C186487  -0.188   6.636  23.337
 7141CHOL    C286488  -0.046   6.690  23.151
 7142CHOL   ROH86489   1.439   9.910  -5.790
 7142CHOL    R186490   1.519   9.907  -5.651
 7142CHOL    R286491   1.483   9.738  -5.495
 7142CHOL    R386492   1.609   9.904  -5.495
 7142CHOL    R486493   1.553   9.735  -5.374
 7142CHOL    R586494   1.688   9.902  -5.356
 7142CHOL    C186495   1.808   9.897  -5.148
 7142CHOL    C286496   1.928   9.893  -4.940
 7143CHOL   ROH86497  15.179  -6.273  14.985
 7143CHOL    R186498  15.130  -6.128  14.938
 7143CHOL    R286499  15.231  -5.935  15.022
 7143CHOL    R386500  15.076  -5.965  14.886
 7143CHOL    R486501  15.188  -5.808  14.981
 7143CHOL    R586502  15.027  -5.819  14.839
 7143CHOL    C186503  14.954  -5.602  14.769
 7143CHOL    C286504  14.881  -5.384  14.699
 7144CHOL   ROH86505   9.876  27.710  11.909
 7144CHOL    R186506   9.874  27.551  11.892
 7144CHOL    R286507  10.067  27.435  11.833
 7144CHOL    R386508   9.872  27.372  11.873
 7144CHOL    R486509  10.066  27.296  11.818
 7144CHOL    R586510   9.871  27.213  11.856
 7144CHOL    C186511   9.868  26.974  11.831
 7144CHOL    C286512   9.865  26.736  11.805
 7145CHOL   ROH86513  19.620  -4.710  12.587
 7145CHOL    R186514  19.533  -4.578  12.563
 7145CHOL    R286515  19.626  -4.366  12.594
 7145CHOL    R386516  19.435  -4.429  12.536
 7145CHOL    R486517  19.550  -4.250  12.573
 7145CHOL    R586518  19.348  -4.297  12.513
 7145CHOL    C186519  19.218  -4.098  12.477
 7145CHOL    C286520  19.088  -3.900  12.441
 7146CHOL   ROH86521   2.288  13.249  25.762
 7146CHOL    R186522   2.353  13.221  25.618
 7146CHOL    R286523   2.499  13.374  25.521
 7146CHOL    R386524   2.426  13.189  25.457
 7146CHOL    R486525   2.556  13.350  25.395
 7146CHOL    R586526   2.490  13.161  25.313
 7146CHOL    C186527   2.588  13.119  25.097
 7146CHOL    C286528   2.685  13.077  24.882
 7147CHOL   ROH86529  11.748  -7.404   6.018
 7147CHOL    R186530  11.732  -7.249   6.052
 7147CHOL    R286531  11.786  -7.166   6.263
 7147CHOL    R386532  11.713  -7.074   6.091
 7147CHOL    R486533  11.772  -7.030   6.293
 7147CHOL    R586534  11.696  -6.919   6.125
 7147CHOL    C186535  11.672  -6.685   6.176
 7147CHOL    C286536  11.647  -6.452   6.228
 7148CHOL   ROH86537  -2.588  22.005   5.526
 7148CHOL    R186538  -2.482  21.892   5.566
 7148CHOL    R286539  -2.265  21.894   5.480
 7148CHOL    R386540  -2.363  21.765   5.612
 7148CHOL    R486541  -2.173  21.795   5.516
 7148CHOL    R586542  -2.257  21.652   5.653
 7148CHOL    C186543  -2.098  21.483   5.713
 7148CHOL    C286544  -1.939  21.313   5.774
 7149CHOL   ROH86545   3.123  24.563   2.167
 7149CHOL    R186546   3.186  24.434   2.237
 7149CHOL    R286547   3.323  24.454   2.425
 7149CHOL    R386548   3.258  24.289   2.316
 7149CHOL    R486549   3.379  24.341   2.486
 7149CHOL    R586550   3.321  24.160   2.386
 7149CHOL    C186551   3.416  23.966   2.490
 7149CHOL    C286552   3.511  23.772   2.595
 7150CHOL   ROH86553  23.143   8.388  -1.870
 7150CHOL    R186554  23.022   8.397  -1.766
 7150CHOL    R286555  22.874   8.577  -1.771
 7150CHOL    R386556  22.885   8.408  -1.649
 7150CHOL    R486557  22.767   8.585  -1.680
 7150CHOL    R586558  22.764   8.417  -1.546
 7150CHOL    C186559  22.582   8.431  -1.390
 7150CHOL    C286560  22.400   8.445  -1.234
 7151CHOL   ROH86561  10.743  -0.166  24.598
 7151CHOL    R186562  10.735  -0.076  24.466
 7151CHOL    R286563  10.907   0.071  24.410
 7151CHOL    R386564  10.726   0.026  24.318
 7151CHOL    R486565  10.900   0.150  24.295
 7151CHOL    R586566  10.717   0.116  24.186
 7151CHOL    C186567  10.705   0.251  23.988
 7151CHOL    C286568  10.693   0.387  23.790
 7152CHOL   ROH86569  25.899   3.933   4.851
 7152CHOL    R186570  25.755   3.987   4.894
 7152CHOL    R286571  25.715   4.215   4.923
 7152CHOL    R386572  25.592   4.048   4.942
 7152CHOL    R486573  25.589   4.262   4.960
 7152CHOL    R586574  25.447   4.101   4.985
 7152CHOL    C186575  25.231   4.182   5.049
 7152CHOL    C286576  25.014   4.263   5.113
 7153CHOL   ROH86577  11.621  -6.455   3.064
 7153CHOL    R186578  11.608  -6.309   3.128
 7153CHOL    R286579  11.681  -6.120   3.013
 7153CHOL    R386580  11.593  -6.145   3.201
 7153CHOL    R486581  11.669  -5.992   3.069
 7153CHOL    R586582  11.579  -5.999   3.265
 7153CHOL    C186583  11.560  -5.780   3.361
 7153CHOL    C286584  11.540  -5.561   3.458
 7154CHOL   ROH86585  24.469  -0.107   8.244
 7154CHOL    R186586  24.337  -0.018   8.260
 7154CHOL    R286587  24.199   0.027   8.078
 7154CHOL    R386588  24.189   0.083   8.279
 7154CHOL    R486589  24.084   0.105   8.092
 7154CHOL    R586590  24.057   0.173   8.295
 7154CHOL    C186591  23.860   0.307   8.319
 7154CHOL    C286592  23.662   0.441   8.344
 7155CHOL   ROH86593  -3.094  -1.667  13.909
 7155CHOL    R186594  -2.978  -1.563  13.873
 7155CHOL    R286595  -2.794  -1.535  14.014
 7155CHOL    R386596  -2.847  -1.445  13.833
 7155CHOL    R486597  -2.692  -1.444  13.983
 7155CHOL    R586598  -2.731  -1.341  13.797
 7155CHOL    C186599  -2.557  -1.185  13.744
 7155CHOL    C286600  -2.383  -1.028  13.690
 7156CHOL   ROH86601  17.427  19.066  -3.459
 7156CHOL    R186602  17.358  18.987  -3.338
 7156CHOL    R286603  17.340  18.754  -3.342
 7156CHOL    R386604  17.280  18.898  -3.202
 7156CHOL    R486605  17.279  18.685  -3.236
 7156CHOL    R586606  17.211  18.819  -3.081
 7156CHOL    C186607  17.107  18.700  -2.900
 7156CHOL    C286608  17.004  18.582  -2.719
 7157CHOL   ROH86609   0.519  13.231  -4.872
 7157CHOL    R186610   0.605  13.206  -4.739
 7157CHOL    R286611   0.523  13.268  -4.530
 7157CHOL    R386612   0.701  13.177  -4.590
 7157CHOL    R486613   0.598  13.246  -4.414
 7157CHOL    R586614   0.787  13.152  -4.457
 7157CHOL    C186615   0.915  13.113  -4.258
 7157CHOL    C286616   1.043  13.075  -4.059
 7158CHOL   ROH86617  -3.684   4.802  20.394
 7158CHOL    R186618  -3.566   4.849  20.296
 7158CHOL    R286619  -3.395   4.988  20.373
 7158CHOL    R386620  -3.434   4.902  20.187
 7158CHOL    R486621  -3.292   5.029  20.287
 7158CHOL    R586622  -3.316   4.949  20.089
 7158CHOL    C186623  -3.139   5.020  19.943
 7158CHOL    C286624  -2.963   5.090  19.796
 7159CHOL   ROH86625  19.247  -1.375  -0.171
 7159CHOL    R186626  19.161  -1.275  -0.081
 7159CHOL    R286627  19.021  -1.116  -0.180
 7159CHOL    R386628  19.063  -1.161   0.020
 7159CHOL    R486629  18.945  -1.028  -0.101
 7159CHOL    R586630  18.977  -1.061   0.109
 7159CHOL    C186631  18.847  -0.910   0.244
 7159CHOL    C286632  18.718  -0.760   0.379
 7160CHOL   ROH86633  -6.971  11.281   4.279
 7160CHOL    R186634  -6.819  11.269   4.328
 7160CHOL    R286635  -6.755  11.343   4.540
 7160CHOL    R386636  -6.648  11.256   4.382
 7160CHOL    R486637  -6.622  11.333   4.582
 7160CHOL    R586638  -6.496  11.244   4.431
 7160CHOL    C186639  -6.268  11.227   4.504
 7160CHOL    C286640  -6.040  11.209   4.577
 7161CHOL   ROH86641  18.233  23.116  18.563
 7161CHOL    R186642  18.155  22.998  18.488
 7161CHOL    R286643  18.181  22.776  18.553
 7161CHOL    R386644  18.067  22.866  18.404
 7161CHOL    R486645  18.113  22.673  18.488
 7161CHOL    R586646  17.988  22.748  18.329
 7161CHOL    C186647  17.871  22.571  18.217
 7161CHOL    C286648  17.754  22.395  18.104
 7162CHOL   ROH86649  15.934  26.703   9.005
 7162CHOL    R186650  15.876  26.554   9.014
 7162CHOL    R286651  15.857  26.421   8.823
 7162CHOL    R386652  15.810  26.387   9.023
 7162CHOL    R486653  15.806  26.291   8.830
 7162CHOL    R586654  15.752  26.238   9.032
 7162CHOL    C186655  15.664  26.015   9.045
 7162CHOL    C286656  15.576  25.792   9.058
 7163CHOL   ROH86657   3.361  -5.464   3.718
 7163CHOL    R186658   3.417  -5.324   3.772
 7163CHOL    R286659   3.456  -5.290   3.999
 7163CHOL    R386660   3.480  -5.167   3.832
 7163CHOL    R486661   3.505  -5.168   4.046
 7163CHOL    R586662   3.537  -5.027   3.885
 7163CHOL    C186663   3.621  -4.817   3.966
 7163CHOL    C286664   3.705  -4.607   4.046
 7164CHOL   ROH86665   3.823   1.181  24.314
 7164CHOL    R186666   3.878   1.258  24.185
 7164CHOL    R286667   3.956   1.478  24.201
 7164CHOL    R386668   3.940   1.345  24.040
 7164CHOL    R486669   4.004   1.545  24.088
 7164CHOL    R586670   3.995   1.422  23.911
 7164CHOL    C186671   4.078   1.538  23.718
 7164CHOL    C286672   4.160   1.654  23.525
 7165CHOL   ROH86673   5.282  23.218  20.957
 7165CHOL    R186674   5.322  23.101  20.855
 7165CHOL    R286675   5.451  23.146  20.666
 7165CHOL    R386676   5.366  22.970  20.740
 7165CHOL    R486677   5.486  23.043  20.577
 7165CHOL    R586678   5.406  22.853  20.639
 7165CHOL    C186679   5.466  22.678  20.486
 7165CHOL    C286680   5.525  22.503  20.333
 7166CHOL   ROH86681  27.024   7.379  14.162
 7166CHOL    R186682  26.870   7.403  14.126
 7166CHOL    R286683  26.760   7.267  13.972
 7166CHOL    R386684  26.697   7.430  14.086
 7166CHOL    R486685  26.626   7.288  13.940
 7166CHOL    R586686  26.542   7.454  14.050
 7166CHOL    C186687  26.311   7.489  13.997
 7166CHOL    C286688  26.080   7.525  13.943
 7167CHOL   ROH86689  17.464   5.819  -5.603
 7167CHOL    R186690  17.396   5.854  -5.462
 7167CHOL    R286691  17.384   6.074  -5.386
 7167CHOL    R386692  17.320   5.893  -5.304
 7167CHOL    R486693  17.325   6.105  -5.263
 7167CHOL    R586694  17.253   5.928  -5.164
 7167CHOL    C186695  17.151   5.980  -4.953
 7167CHOL    C286696  17.049   6.033  -4.742
 7168CHOL   ROH86697  -6.848  14.364  14.610
 7168CHOL    R186698  -6.698  14.325  14.570
 7168CHOL    R286699  -6.522  14.356  14.720
 7168CHOL    R386700  -6.529  14.280  14.525
 7168CHOL    R486701  -6.391  14.322  14.685
 7168CHOL    R586702  -6.379  14.241  14.486
 7168CHOL    C186703  -6.155  14.182  14.426
 7168CHOL    C286704  -5.930  14.123  14.366
 7169CHOL   ROH86705  -5.384   5.654   1.629
 7169CHOL    R186706  -5.246   5.687   1.704
 7169CHOL    R286707  -5.236   5.851   1.869
 7169CHOL    R386708  -5.092   5.724   1.788
 7169CHOL    R486709  -5.115   5.880   1.934
 7169CHOL    R586710  -4.954   5.757   1.863
 7169CHOL    C186711  -4.748   5.806   1.975
 7169CHOL    C286712  -4.541   5.856   2.087
 7170CHOL   ROH86713  26.221   2.825   9.526
 7170CHOL    R186714  26.075   2.890   9.531
 7170CHOL    R286715  26.024   3.079   9.404
 7170CHOL    R386716  25.911   2.964   9.537
 7170CHOL    R486717  25.896   3.136   9.408
 7170CHOL    R586718  25.765   3.030   9.542
 7170CHOL    C186719  25.546   3.128   9.550
 7170CHOL    C286720  25.327   3.226   9.557
 7171CHOL   ROH86721  -7.637  13.129   8.327
 7171CHOL    R186722  -7.481  13.102   8.346
 7171CHOL    R286723  -7.405  12.912   8.458
 7171CHOL    R386724  -7.304  13.072   8.368
 7171CHOL    R486725  -7.268  12.888   8.475
 7171CHOL    R586726  -7.148  13.045   8.387
 7171CHOL    C186727  -6.913  13.004   8.417
 7171CHOL    C286728  -6.679  12.963   8.446
 7172CHOL   ROH86729   3.739  17.124  -5.241
 7172CHOL    R186730   3.794  17.060  -5.105
 7172CHOL    R286731   3.865  17.195  -4.929
 7172CHOL    R386732   3.856  16.988  -4.952
 7172CHOL    R486733   3.913  17.139  -4.810
 7172CHOL    R586734   3.911  16.924  -4.816
 7172CHOL    C186735   3.993  16.828  -4.612
 7172CHOL    C286736   4.075  16.732  -4.408
 7173CHOL   ROH86737   2.163  11.123  26.013
 7173CHOL    R186738   2.227  11.109  25.867
 7173CHOL    R286739   2.282  11.298  25.742
 7173CHOL    R386740   2.298  11.093  25.702
 7173CHOL    R486741   2.338  11.286  25.614
 7173CHOL    R586742   2.361  11.079  25.556
 7173CHOL    C186743   2.457  11.059  25.337
 7173CHOL    C286744   2.552  11.038  25.117
 7174CHOL   ROH86745   4.127  -2.285  21.579
 7174CHOL    R186746   4.178  -2.174  21.475
 7174CHOL    R286747   4.247  -1.964  21.548
 7174CHOL    R386748   4.235  -2.050  21.358
 7174CHOL    R486749   4.291  -1.867  21.457
 7174CHOL    R586750   4.286  -1.939  21.254
 7174CHOL    C186751   4.362  -1.773  21.099
 7174CHOL    C286752   4.438  -1.607  20.943
 7175CHOL   ROH86753  25.060   6.287   1.266
 7175CHOL    R186754  24.924   6.318   1.344
 7175CHOL    R286755  24.717   6.292   1.239
 7175CHOL    R386756  24.770   6.353   1.431
 7175CHOL    R486757  24.598   6.319   1.307
 7175CHOL    R586758  24.634   6.384   1.509
 7175CHOL    C186759  24.430   6.431   1.626
 7175CHOL    C286760  24.225   6.477   1.742
 7176CHOL   ROH86761   2.402  23.839   1.560
 7176CHOL    R186762   2.472  23.715   1.634
 7176CHOL    R286763   2.610  23.748   1.819
 7176CHOL    R386764   2.550  23.576   1.717
 7176CHOL    R486765   2.671  23.640   1.883
 7176CHOL    R586766   2.620  23.453   1.790
 7176CHOL    C186767   2.725  23.267   1.901
 7176CHOL    C286768   2.829  23.081   2.012
 7177CHOL   ROH86769   6.112  25.075  18.751
 7177CHOL    R186770   6.145  24.939  18.673
 7177CHOL    R286771   6.315  24.931  18.513
 7177CHOL    R386772   6.182  24.787  18.584
 7177CHOL    R486773   6.344  24.813  18.445
 7177CHOL    R586774   6.216  24.652  18.506
 7177CHOL    C186775   6.265  24.448  18.388
 7177CHOL    C286776   6.315  24.245  18.271
 7178CHOL   ROH86777   1.656  24.496  16.224
 7178CHOL    R186778   1.730  24.365  16.169
 7178CHOL    R286779   1.907  24.383  16.018
 7178CHOL    R386780   1.814  24.219  16.107
 7178CHOL    R486781   1.972  24.268  15.970
 7178CHOL    R586782   1.888  24.088  16.052
 7178CHOL    C186783   1.999  23.892  15.969
 7178CHOL    C286784   2.111  23.696  15.887
 7179CHOL   ROH86785  13.315  11.186  -7.574
 7179CHOL    R186786  13.282  11.172  -7.418
 7179CHOL    R286787  13.134  11.009  -7.341
 7179CHOL    R386788  13.245  11.156  -7.243
 7179CHOL    R486789  13.105  10.997  -7.204
 7179CHOL    R586790  13.212  11.142  -7.087
 7179CHOL    C186791  13.163  11.121  -6.853
 7179CHOL    C286792  13.114  11.100  -6.619
 7180CHOL   ROH86793  22.353   5.983  -2.202
 7180CHOL    R186794  22.243   6.022  -2.092
 7180CHOL    R286795  22.051   6.140  -2.151
 7180CHOL    R386796  22.120   6.066  -1.969
 7180CHOL    R486797  21.955   6.174  -2.055
 7180CHOL    R586798  22.010   6.105  -1.859
 7180CHOL    C186799  21.845   6.163  -1.694
 7180CHOL    C286800  21.681   6.221  -1.530
 7181CHOL   ROH86801  21.887  -0.889  17.449
 7181CHOL    R186802  21.781  -0.788  17.384
 7181CHOL    R286803  21.786  -0.560  17.434
 7181CHOL    R386804  21.663  -0.675  17.310
 7181CHOL    R486805  21.693  -0.472  17.377
 7181CHOL    R586806  21.557  -0.574  17.244
 7181CHOL    C186807  21.399  -0.423  17.146
 7181CHOL    C286808  21.240  -0.272  17.048
 7182CHOL   ROH86809   9.932  26.860  15.855
 7182CHOL    R186810   9.931  26.709  15.803
 7182CHOL    R286811  10.084  26.553  15.884
 7182CHOL    R386812   9.929  26.539  15.744
 7182CHOL    R486813  10.083  26.420  15.838
 7182CHOL    R586814   9.928  26.387  15.692
 7182CHOL    C186815   9.925  26.161  15.614
 7182CHOL    C286816   9.923  25.934  15.536
 7183CHOL   ROH86817  25.452  16.719  15.489
 7183CHOL    R186818  25.311  16.661  15.440
 7183CHOL    R286819  25.178  16.779  15.289
 7183CHOL    R386820  25.153  16.595  15.384
 7183CHOL    R486821  25.055  16.729  15.246
 7183CHOL    R586822  25.012  16.537  15.335
 7183CHOL    C186823  24.802  16.450  15.260
 7183CHOL    C286824  24.591  16.362  15.186
 7184CHOL   ROH86825  22.654  -2.453   9.100
 7184CHOL    R186826  22.539  -2.342   9.108
 7184CHOL    R286827  22.350  -2.354   8.972
 7184CHOL    R386828  22.410  -2.216   9.118
 7184CHOL    R486829  22.250  -2.256   8.979
 7184CHOL    R586830  22.296  -2.105   9.126
 7184CHOL    C186831  22.123  -1.938   9.138
 7184CHOL    C286832  21.951  -1.771   9.151
 7185CHOL   ROH86833  26.820  14.112  13.573
 7185CHOL    R186834  26.668  14.077  13.539
 7185CHOL    R286835  26.589  13.858  13.550
 7185CHOL    R386836  26.496  14.038  13.500
 7185CHOL    R486837  26.456  13.827  13.520
 7185CHOL    R586838  26.344  14.003  13.466
 7185CHOL    C186839  26.116  13.951  13.415
 7185CHOL    C286840  25.887  13.898  13.363
 7186CHOL   ROH86841   4.825   5.953  -6.746
 7186CHOL    R186842   4.869   5.987  -6.596
 7186CHOL    R286843   4.905   5.818  -6.440
 7186CHOL    R386844   4.918   6.026  -6.427
 7186CHOL    R486845   4.943   5.848  -6.308
 7186CHOL    R586846   4.962   6.061  -6.277
 7186CHOL    C186847   5.027   6.112  -6.052
 7186CHOL    C286848   5.093   6.164  -5.827
 7187CHOL   ROH86849  24.434  17.111  17.512
 7187CHOL    R186850  24.301  17.049  17.447
 7187CHOL    R286851  24.269  17.050  17.216
 7187CHOL    R386852  24.152  16.980  17.374
 7187CHOL    R486853  24.153  16.996  17.159
 7187CHOL    R586854  24.020  16.918  17.309
 7187CHOL    C186855  23.821  16.826  17.212
 7187CHOL    C286856  23.622  16.734  17.114
 7188CHOL   ROH86857  -2.829  22.487  11.471
 7188CHOL    R186858  -2.715  22.376  11.460
 7188CHOL    R286859  -2.509  22.404  11.566
 7188CHOL    R386860  -2.586  22.251  11.447
 7188CHOL    R486861  -2.409  22.307  11.557
 7188CHOL    R586862  -2.471  22.139  11.436
 7188CHOL    C186863  -2.300  21.973  11.419
 7188CHOL    C286864  -2.128  21.806  11.402
 7189CHOL   ROH86865   3.502  -4.057   0.855
 7189CHOL    R186866   3.559  -3.933   0.938
 7189CHOL    R286867   3.759  -3.829   0.876
 7189CHOL    R386868   3.624  -3.794   1.032
 7189CHOL    R486869   3.809  -3.720   0.949
 7189CHOL    R586870   3.682  -3.670   1.115
 7189CHOL    C186871   3.768  -3.484   1.241
 7189CHOL    C286872   3.854  -3.298   1.366
 7190CHOL   ROH86873  -2.905  14.011  21.751
 7190CHOL    R186874  -2.792  13.976  21.643
 7190CHOL    R286875  -2.650  13.794  21.673
 7190CHOL    R386876  -2.665  13.937  21.522
 7190CHOL    R486877  -2.551  13.763  21.578
 7190CHOL    R586878  -2.553  13.902  21.414
 7190CHOL    C186879  -2.383  13.850  21.252
 7190CHOL    C286880  -2.214  13.798  21.090
 7191CHOL   ROH86881  16.800  -6.207  12.797
 7191CHOL    R186882  16.737  -6.062  12.771
 7191CHOL    R286883  16.796  -5.880  12.903
 7191CHOL    R386884  16.665  -5.900  12.742
 7191CHOL    R486885  16.741  -5.753  12.881
 7191CHOL    R586886  16.602  -5.755  12.716
 7191CHOL    C186887  16.507  -5.538  12.677
 7191CHOL    C286888  16.412  -5.321  12.638
 7192CHOL   ROH86889  11.088  27.773   9.511
 7192CHOL    R186890  11.078  27.613   9.514
 7192CHOL    R286891  11.254  27.481   9.436
 7192CHOL    R386892  11.067  27.434   9.516
 7192CHOL    R486893  11.245  27.341   9.439
 7192CHOL    R586894  11.057  27.274   9.519
 7192CHOL    C186895  11.042  27.034   9.523
 7192CHOL    C286896  11.027  26.795   9.527
 7193CHOL   ROH86897   1.599   4.924  -5.110
 7193CHOL    R186898   1.674   4.970  -4.977
 7193CHOL    R286899   1.867   4.861  -4.904
 7193CHOL    R386900   1.759   5.022  -4.826
 7193CHOL    R486901   1.933   4.902  -4.787
 7193CHOL    R586902   1.835   5.068  -4.693
 7193CHOL    C186903   1.948   5.137  -4.493
 7193CHOL    C286904   2.061   5.206  -4.293
 7194CHOL   ROH86905   3.745   0.641  23.941
 7194CHOL    R186906   3.800   0.724  23.816
 7194CHOL    R286907   3.947   0.903  23.845
 7194CHOL    R386908   3.863   0.816  23.674
 7194CHOL    R486909   3.995   0.975  23.735
 7194CHOL    R586910   3.918   0.899  23.549
 7194CHOL    C186911   4.001   1.023  23.361
 7194CHOL    C286912   4.084   1.147  23.173
 7195CHOL   ROH86913  14.968   4.108  -6.132
 7195CHOL    R186914  14.919   4.157  -5.988
 7195CHOL    R286915  14.764   4.331  -5.967
 7195CHOL    R386916  14.863   4.213  -5.826
 7195CHOL    R486917  14.720   4.374  -5.842
 7195CHOL    R586918  14.813   4.262  -5.683
 7195CHOL    C186919  14.739   4.337  -5.467
 7195CHOL    C286920  14.665   4.411  -5.251
 7196CHOL   ROH86921  13.561   8.575  -7.526
 7196CHOL    R186922  13.527   8.588  -7.370
 7196CHOL    R286923  13.519   8.797  -7.267
 7196CHOL    R386924  13.488   8.604  -7.195
 7196CHOL    R486925  13.489   8.809  -7.131
 7196CHOL    R586926  13.454   8.617  -7.039
 7196CHOL    C186927  13.403   8.637  -6.806
 7196CHOL    C286928  13.351   8.657  -6.572
 7197CHOL   ROH86929  18.571  23.220   1.764
 7197CHOL    R186930  18.491  23.104   1.841
 7197CHOL    R286931  18.338  22.969   1.728
 7197CHOL    R386932  18.402  22.974   1.927
 7197CHOL    R486933  18.268  22.868   1.796
 7197CHOL    R586934  18.323  22.858   2.004
 7197CHOL    C186935  18.203  22.685   2.119
 7197CHOL    C286936  18.084  22.511   2.234
 7198CHOL   ROH86937  16.238  26.577  11.199
 7198CHOL    R186938  16.176  26.430  11.189
 7198CHOL    R286939  16.263  26.254  11.315
 7198CHOL    R386940  16.106  26.265  11.179
 7198CHOL    R486941  16.209  26.125  11.307
 7198CHOL    R586942  16.044  26.118  11.169
 7198CHOL    C186943  15.950  25.897  11.155
 7198CHOL    C286944  15.857  25.676  11.140
 7199CHOL   ROH86945  -6.342  17.153   7.605
 7199CHOL    R186946  -6.197  17.091   7.629
 7199CHOL    R286947  -6.005  17.222   7.607
 7199CHOL    R386948  -6.033  17.021   7.656
 7199CHOL    R486949  -5.877  17.167   7.628
 7199CHOL    R586950  -5.887  16.958   7.680
 7199CHOL    C186951  -5.669  16.865   7.717
 7199CHOL    C286952  -5.451  16.772   7.753
 7200CHOL   ROH86953  22.979   4.826  -1.035
 7200CHOL    R186954  22.864   4.876  -0.935
 7200CHOL    R286955  22.691   5.014  -1.011
 7200CHOL    R386956  22.735   4.933  -0.824
 7200CHOL    R486957  22.591   5.057  -0.924
 7200CHOL    R586958  22.620   4.983  -0.724
 7200CHOL    C186959  22.448   5.058  -0.575
 7200CHOL    C286960  22.275   5.134  -0.425
 7201CHOL   ROH86961  11.064  27.206   5.426
 7201CHOL    R186962  11.051  27.051   5.466
 7201CHOL    R286963  11.171  26.963   5.645
 7201CHOL    R386964  11.037  26.878   5.510
 7201CHOL    R486965  11.160  26.828   5.680
 7201CHOL    R586966  11.024  26.723   5.550
 7201CHOL    C186967  11.006  26.491   5.610
 7201CHOL    C286968  10.987  26.259   5.669
 7202CHOL   ROH86969  -5.177   4.267   2.024
 7202CHOL    R186970  -5.042   4.316   2.094
 7202CHOL    R286971  -5.044   4.416   2.305
 7202CHOL    R386972  -4.889   4.372   2.172
 7202CHOL    R486973  -4.926   4.459   2.365
 7202CHOL    R586974  -4.754   4.421   2.241
 7202CHOL    C186975  -4.551   4.495   2.346
 7202CHOL    C286976  -4.348   4.569   2.450
 7203CHOL   ROH86977   4.286  19.467  24.014
 7203CHOL    R186978   4.335  19.379  23.890
 7203CHOL    R286979   4.469  19.190  23.922
 7203CHOL    R386980   4.390  19.279  23.751
 7203CHOL    R486981   4.512  19.113  23.814
 7203CHOL    R586982   4.439  19.191  23.627
 7203CHOL    C186983   4.512  19.058  23.441
 7203CHOL    C286984   4.586  18.925  23.255
 7204CHOL   ROH86985  16.136  26.638  10.884
 7204CHOL    R186986  16.075  26.490  10.877
 7204CHOL    R286987  16.202  26.311  10.801
 7204CHOL    R386988  16.005  26.325  10.869
 7204CHOL    R486989  16.149  26.182  10.795
 7204CHOL    R586990  15.944  26.177  10.862
 7204CHOL    C186991  15.852  25.956  10.851
 7204CHOL    C286992  15.760  25.734  10.841
 7205CHOL   ROH86993  -3.800  -1.367  11.923
 7205CHOL    R186994  -3.678  -1.265  11.905
 7205CHOL    R286995  -3.475  -1.300  12.014
 7205CHOL    R386996  -3.541  -1.149  11.885
 7205CHOL    R486997  -3.368  -1.211  11.998
 7205CHOL    R586998  -3.419  -1.047  11.867
 7205CHOL    C186999  -3.237  -0.893  11.841
 7205CHOL    C287000  -3.054  -0.740  11.814
 7206CHOL   ROH87001  21.477  -1.057  17.822
 7206CHOL    R187002  21.376  -0.955  17.751
 7206CHOL    R287003  21.411  -0.725  17.761
 7206CHOL    R387004  21.261  -0.841  17.672
 7206CHOL    R487005  21.322  -0.636  17.699
 7206CHOL    R587006  21.160  -0.739  17.602
 7206CHOL    C187007  21.008  -0.586  17.496
 7206CHOL    C287008  20.856  -0.434  17.390
 7207CHOL   ROH87009  16.882  22.311  20.811
 7207CHOL    R187010  16.821  22.198  20.716
 7207CHOL    R287011  16.923  21.990  20.695
 7207CHOL    R387012  16.751  22.071  20.609
 7207CHOL    R487013  16.869  21.891  20.612
 7207CHOL    R587014  16.690  21.958  20.513
 7207CHOL    C187015  16.598  21.789  20.371
 7207CHOL    C287016  16.506  21.619  20.228
 7208CHOL   ROH87017  -4.313  -0.446  13.016
 7208CHOL    R187018  -4.185  -0.355  12.987
 7208CHOL    R287019  -4.017  -0.329  13.146
 7208CHOL    R387020  -4.041  -0.252  12.953
 7208CHOL    R487021  -3.905  -0.249  13.120
 7208CHOL    R587022  -3.913  -0.161  12.924
 7208CHOL    C187023  -3.721  -0.023  12.880
 7208CHOL    C287024  -3.529   0.114  12.836
 7209CHOL   ROH87025  -1.247  20.625   0.846
 7209CHOL    R187026  -1.148  20.527   0.925
 7209CHOL    R287027  -1.199  20.454   1.141
 7209CHOL    R387028  -1.037  20.418   1.015
 7209CHOL    R487029  -1.113  20.369   1.210
 7209CHOL    R587030  -0.938  20.320   1.094
 7209CHOL    C187031  -0.790  20.174   1.213
 7209CHOL    C287032  -0.642  20.027   1.332
 7210CHOL   ROH87033  17.693   9.866  -6.069
 7210CHOL    R187034  17.622   9.868  -5.926
 7210CHOL    R287035  17.391   9.895  -5.907
 7210CHOL    R387036  17.542   9.870  -5.764
 7210CHOL    R487037  17.328   9.896  -5.781
 7210CHOL    R587038  17.470   9.872  -5.621
 7210CHOL    C187039  17.364   9.874  -5.406
 7210CHOL    C287040  17.257   9.877  -5.191
 7211CHOL   ROH87041   5.525  27.318   8.958
 7211CHOL    R187042   5.562  27.163   8.967
 7211CHOL    R287043   5.609  27.062   9.172
 7211CHOL    R387044   5.605  26.988   8.977
 7211CHOL    R487045   5.641  26.926   9.180
 7211CHOL    R587046   5.642  26.832   8.986
 7211CHOL    C187047   5.698  26.599   8.999
 7211CHOL    C287048   5.754  26.366   9.013
 7212CHOL   ROH87049   3.075  18.694  -4.143
 7212CHOL    R187050   3.136  18.621  -4.015
 7212CHOL    R287051   3.020  18.616  -3.813
 7212CHOL    R387052   3.205  18.539  -3.870
 7212CHOL    R487053   3.073  18.552  -3.700
 7212CHOL    R587054   3.266  18.465  -3.742
 7212CHOL    C187055   3.358  18.356  -3.549
 7212CHOL    C287056   3.449  18.246  -3.356
 7213CHOL   ROH87057  24.757   8.470  19.592
 7213CHOL    R187058  24.623   8.487  19.506
 7213CHOL    R287059  24.623   8.445  19.276
 7213CHOL    R387060  24.473   8.506  19.408
 7213CHOL    R487061  24.506   8.460  19.200
 7213CHOL    R587062  24.339   8.523  19.322
 7213CHOL    C187063  24.139   8.549  19.192
 7213CHOL    C287064  23.939   8.575  19.063
 7214CHOL   ROH87065   4.744  20.521  23.381
 7214CHOL    R187066   4.787  20.424  23.261
 7214CHOL    R287067   4.889  20.219  23.305
 7214CHOL    R387068   4.836  20.314  23.127
 7214CHOL    R487069   4.927  20.133  23.200
 7214CHOL    R587070   4.879  20.217  23.007
 7214CHOL    C187071   4.944  20.071  22.828
 7214CHOL    C287072   5.009  19.925  22.649
 7215CHOL   ROH87073  10.690   5.675  27.246
 7215CHOL    R187074  10.684   5.716  27.091
 7215CHOL    R287075  10.835   5.627  26.938
 7215CHOL    R387076  10.678   5.762  26.918
 7215CHOL    R487077  10.830   5.663  26.802
 7215CHOL    R587078  10.672   5.804  26.763
 7215CHOL    C187079  10.663   5.865  26.531
 7215CHOL    C287080  10.655   5.927  26.299
 7216CHOL   ROH87081  13.243  -0.805  -3.858
 7216CHOL    R187082  13.214  -0.709  -3.734
 7216CHOL    R287083  13.326  -0.506  -3.710
 7216CHOL    R387084  13.181  -0.601  -3.593
 7216CHOL    R487085  13.300  -0.421  -3.601
 7216CHOL    R587086  13.152  -0.505  -3.469
 7216CHOL    C187087  13.108  -0.360  -3.282
 7216CHOL    C287088  13.065  -0.216  -3.096
 7217CHOL   ROH87089  23.388  21.457   7.894
 7217CHOL    R187090  23.263  21.360   7.916
 7217CHOL    R287091  23.272  21.135   7.857
 7217CHOL    R387092  23.121  21.252   7.942
 7217CHOL    R487093  23.163  21.051   7.876
 7217CHOL    R587094  22.996  21.155   7.964
 7217CHOL    C187095  22.808  21.010   7.998
 7217CHOL    C287096  22.620  20.865   8.031
 7218CHOL   ROH87097  26.244  16.663  12.338
 7218CHOL    R187098  26.098  16.601  12.318
 7218CHOL    R287099  25.939  16.709  12.185
 7218CHOL    R387100  25.933  16.532  12.295
 7218CHOL    R487101  25.811  16.655  12.168
 7218CHOL    R587102  25.787  16.470  12.275
 7218CHOL    C187103  25.568  16.377  12.245
 7218CHOL    C287104  25.348  16.285  12.215
 7219CHOL   ROH87105   4.236  25.651  16.375
 7219CHOL    R187106   4.285  25.510  16.318
 7219CHOL    R287107   4.338  25.334  16.461
 7219CHOL    R387108   4.340  25.351  16.253
 7219CHOL    R487109   4.381  25.210  16.411
 7219CHOL    R587110   4.389  25.210  16.196
 7219CHOL    C187111   4.462  24.998  16.109
 7219CHOL    C287112   4.535  24.787  16.023
 7220CHOL   ROH87113   8.891  -6.535  16.674
 7220CHOL    R187114   8.901  -6.387  16.613
 7220CHOL    R287115   8.925  -6.202  16.753
 7220CHOL    R387116   8.912  -6.221  16.545
 7220CHOL    R487117   8.933  -6.073  16.700
 7220CHOL    R587118   8.923  -6.073  16.484
 7220CHOL    C187119   8.938  -5.852  16.394
 7220CHOL    C287120   8.953  -5.630  16.303
 7221CHOL   ROH87121  -0.065  -2.830  17.465
 7221CHOL    R187122   0.023  -2.716  17.395
 7221CHOL    R287123   0.141  -2.560  17.522
 7221CHOL    R387124   0.121  -2.588  17.316
 7221CHOL    R487125   0.218  -2.461  17.460
 7221CHOL    R587126   0.209  -2.474  17.245
 7221CHOL    C187127   0.341  -2.303  17.140
 7221CHOL    C287128   0.472  -2.132  17.035
 7222CHOL   ROH87129  13.767   3.230  -6.137
 7222CHOL    R187130  13.733   3.290  -5.993
 7222CHOL    R287131  13.902   3.351  -5.845
 7222CHOL    R387132  13.694   3.356  -5.830
 7222CHOL    R487133  13.873   3.403  -5.719
 7222CHOL    R587134  13.660   3.416  -5.685
 7222CHOL    C187135  13.609   3.505  -5.469
 7222CHOL    C287136  13.557   3.595  -5.252
 7223CHOL   ROH87137   9.935   1.779  25.770
 7223CHOL    R187138   9.938   1.853  25.628
 7223CHOL    R287139  10.079   2.034  25.590
 7223CHOL    R387140   9.941   1.936  25.468
 7223CHOL    R487141  10.082   2.099  25.466
 7223CHOL    R587142   9.944   2.009  25.326
 7223CHOL    C187143   9.948   2.120  25.114
 7223CHOL    C287144   9.952   2.231  24.901
 7224CHOL   ROH87145  10.789  26.419   2.985
 7224CHOL    R187146  10.776  26.272   3.046
 7224CHOL    R287147  10.783  26.083   2.909
 7224CHOL    R387148  10.761  26.106   3.116
 7224CHOL    R487149  10.772  25.955   2.963
 7224CHOL    R587150  10.747  25.959   3.177
 7224CHOL    C187151  10.728  25.738   3.269
 7224CHOL    C287152  10.708  25.517   3.361
 7225CHOL   ROH87153  -3.129  10.192  -2.232
 7225CHOL    R187154  -3.013  10.191  -2.122
 7225CHOL    R287155  -3.010  10.348  -1.949
 7225CHOL    R387156  -2.881  10.191  -1.999
 7225CHOL    R487157  -2.908  10.347  -1.853
 7225CHOL    R587158  -2.765  10.190  -1.889
 7225CHOL    C187159  -2.590  10.189  -1.725
 7225CHOL    C287160  -2.416  10.188  -1.561
 7226CHOL   ROH87161  22.367  22.727  10.956
 7226CHOL    R187162  22.256  22.613  10.944
 7226CHOL    R287163  22.290  22.426  10.808
 7226CHOL    R387164  22.130  22.484  10.929
 7226CHOL    R487165  22.192  22.326  10.797
 7226CHOL    R587166  22.019  22.370  10.917
 7226CHOL    C187167  21.852  22.199  10.898
 7226CHOL    C287168  21.685  22.027  10.880
 7227CHOL   ROH87169  -5.073  12.721   0.423
 7227CHOL    R187170  -4.938  12.700   0.506
 7227CHOL    R287171  -4.935  12.566   0.697
 7227CHOL    R387172  -4.786  12.676   0.600
 7227CHOL    R487173  -4.817  12.548   0.770
 7227CHOL    R587174  -4.652  12.655   0.683
 7227CHOL    C187175  -4.449  12.624   0.809
 7227CHOL    C287176  -4.247  12.593   0.934
 7228CHOL   ROH87177  -5.730   2.784   5.150
 7228CHOL    R187178  -5.589   2.850   5.188
 7228CHOL    R287179  -5.436   2.736   5.322
 7228CHOL    R387180  -5.431   2.924   5.231
 7228CHOL    R487181  -5.313   2.793   5.355
 7228CHOL    R587182  -5.290   2.990   5.269
 7228CHOL    C187183  -5.079   3.088   5.327
 7228CHOL    C287184  -4.868   3.187   5.384
 7229CHOL   ROH87185  11.770  24.949  19.471
 7229CHOL    R187186  11.747  24.817  19.384
 7229CHOL    R287187  11.907  24.647  19.378
 7229CHOL    R387188  11.721  24.669  19.285
 7229CHOL    R487189  11.887  24.532  19.302
 7229CHOL    R587190  11.698  24.537  19.198
 7229CHOL    C187191  11.663  24.339  19.067
 7229CHOL    C287192  11.629  24.141  18.936
 7230CHOL   ROH87193   7.582  -0.842  -4.113
 7230CHOL    R187194   7.603  -0.743  -3.989
 7230CHOL    R287195   7.762  -0.788  -3.825
 7230CHOL    R387196   7.627  -0.631  -3.850
 7230CHOL    R487197   7.781  -0.701  -3.717
 7230CHOL    R587198   7.647  -0.531  -3.726
 7230CHOL    C187199   7.679  -0.382  -3.541
 7230CHOL    C287200   7.710  -0.233  -3.355
 7231CHOL   ROH87201  -3.492   1.968   1.050
 7231CHOL    R187202  -3.375   2.040   1.131
 7231CHOL    R287203  -3.198   1.918   1.222
 7231CHOL    R387204  -3.243   2.122   1.222
 7231CHOL    R487205  -3.095   1.981   1.293
 7231CHOL    R587206  -3.126   2.195   1.303
 7231CHOL    C187207  -2.950   2.303   1.425
 7231CHOL    C287208  -2.774   2.412   1.547
 7232CHOL   ROH87209  -5.227   2.976  16.438
 7232CHOL    R187210  -5.091   3.042  16.385
 7232CHOL    R287211  -4.930   2.912  16.277
 7232CHOL    R387212  -4.938   3.115  16.325
 7232CHOL    R487213  -4.811   2.970  16.230
 7232CHOL    R587214  -4.803   3.181  16.271
 7232CHOL    C187215  -4.599   3.279  16.192
 7232CHOL    C287216  -4.395   3.378  16.112
 7233CHOL   ROH87217  -5.257  10.557   0.429
 7233CHOL    R187218  -5.122  10.554   0.515
 7233CHOL    R287219  -5.049  10.358   0.618
 7233CHOL    R387220  -4.970  10.552   0.611
 7233CHOL    R487221  -4.931  10.356   0.693
 7233CHOL    R587222  -4.835  10.549   0.697
 7233CHOL    C187223  -4.632  10.545   0.826
 7233CHOL    C287224  -4.430  10.541   0.954
 7234CHOL   ROH87225  -1.722  21.102   2.137
 7234CHOL    R187226  -1.620  21.000   2.206
 7234CHOL    R287227  -1.639  20.945   2.432
 7234CHOL    R387228  -1.505  20.884   2.283
 7234CHOL    R487229  -1.550  20.855   2.492
 7234CHOL    R587230  -1.403  20.782   2.352
 7234CHOL    C187231  -1.251  20.628   2.455
 7234CHOL    C287232  -1.098  20.475   2.558
 7235CHOL   ROH87233  -5.094   3.747   2.263
 7235CHOL    R187234  -4.959   3.803   2.329
 7235CHOL    R287235  -4.964   3.980   2.481
 7235CHOL    R387236  -4.808   3.865   2.403
 7235CHOL    R487237  -4.846   4.028   2.539
 7235CHOL    R587238  -4.673   3.920   2.470
 7235CHOL    C187239  -4.471   4.004   2.569
 7235CHOL    C287240  -4.269   4.087   2.668
 7236CHOL   ROH87241  -1.609  10.891  23.586
 7236CHOL    R187242  -1.507  10.880  23.463
 7236CHOL    R287243  -1.309  10.759  23.481
 7236CHOL    R387244  -1.393  10.868  23.325
 7236CHOL    R487245  -1.220  10.750  23.374
 7236CHOL    R587246  -1.291  10.857  23.202
 7236CHOL    C187247  -1.139  10.841  23.017
 7236CHOL    C287248  -0.987  10.825  22.832
 7237CHOL   ROH87249  21.297  14.254  22.815
 7237CHOL    R187250  21.196  14.214  22.697
 7237CHOL    R287251  21.132  14.370  22.536
 7237CHOL    R387252  21.082  14.170  22.565
 7237CHOL    R487253  21.044  14.336  22.433
 7237CHOL    R587254  20.981  14.130  22.447
 7237CHOL    C187255  20.829  14.070  22.271
 7237CHOL    C287256  20.678  14.011  22.095
 7238CHOL   ROH87257  -5.060   2.886  16.739
 7238CHOL    R187258  -4.926   2.952  16.683
 7238CHOL    R287259  -4.752   2.820  16.600
 7238CHOL    R387260  -4.775   3.027  16.619
 7238CHOL    R487261  -4.635   2.878  16.550
 7238CHOL    R587262  -4.641   3.093  16.563
 7238CHOL    C187263  -4.440   3.193  16.478
 7238CHOL    C287264  -4.239   3.293  16.393
 7239CHOL   ROH87265  -1.841   2.697  21.197
 7239CHOL    R187266  -1.738   2.761  21.092
 7239CHOL    R287267  -1.512   2.703  21.095
 7239CHOL    R387268  -1.623   2.832  20.974
 7239CHOL    R487269  -1.422   2.759  21.003
 7239CHOL    R587270  -1.520   2.895  20.869
 7239CHOL    C187271  -1.366   2.991  20.712
 7239CHOL    C287272  -1.212   3.086  20.554
 7240CHOL   ROH87273   7.859  15.872  -6.820
 7240CHOL    R187274   7.876  15.819  -6.670
 7240CHOL    R287275   7.957  15.958  -6.501
 7240CHOL    R387276   7.895  15.758  -6.501
 7240CHOL    R487277   7.972  15.911  -6.370
 7240CHOL    R587278   7.911  15.705  -6.351
 7240CHOL    C187279   7.937  15.625  -6.127
 7240CHOL    C287280   7.962  15.545  -5.902
 7241CHOL   ROH87281  27.038   5.082   9.790
 7241CHOL    R187282  26.884   5.125   9.791
 7241CHOL    R287283  26.771   5.172   9.593
 7241CHOL    R387284  26.710   5.172   9.793
 7241CHOL    R487285  26.636   5.210   9.594
 7241CHOL    R587286  26.556   5.215   9.794
 7241CHOL    C187287  26.325   5.279   9.796
 7241CHOL    C287288  26.093   5.343   9.798
 7242CHOL   ROH87289  20.788   7.232  -3.911
 7242CHOL    R187290  20.693   7.256  -3.785
 7242CHOL    R287291  20.601   7.467  -3.742
 7242CHOL    R387292  20.586   7.284  -3.642
 7242CHOL    R487293  20.518   7.488  -3.631
 7242CHOL    R587294  20.491   7.308  -3.516
 7242CHOL    C187295  20.348   7.344  -3.326
 7242CHOL    C287296  20.206   7.381  -3.137
 7243CHOL   ROH87297  26.624  13.973  14.459
 7243CHOL    R187298  26.474  13.939  14.416
 7243CHOL    R287299  26.410  13.721  14.365
 7243CHOL    R387300  26.304  13.901  14.369
 7243CHOL    R487301  26.279  13.691  14.328
 7243CHOL    R587302  26.154  13.866  14.326
 7243CHOL    C187303  25.928  13.815  14.262
 7243CHOL    C287304  25.703  13.764  14.198
 7244CHOL   ROH87305   4.197  -6.726   7.066
 7244CHOL    R187306   4.245  -6.576   7.093
 7244CHOL    R287307   4.462  -6.508   7.042
 7244CHOL    R387308   4.299  -6.407   7.123
 7244CHOL    R487309   4.504  -6.377   7.065
 7244CHOL    R587310   4.347  -6.256   7.150
 7244CHOL    C187311   4.418  -6.031   7.191
 7244CHOL    C287312   4.490  -5.806   7.232
 7245CHOL   ROH87313  16.644   7.280  26.188
 7245CHOL    R187314  16.585   7.306  26.042
 7245CHOL    R287315  16.704   7.431  25.885
 7245CHOL    R387316  16.519   7.335  25.877
 7245CHOL    R487317  16.652   7.453  25.756
 7245CHOL    R587318  16.460   7.361  25.730
 7245CHOL    C187319  16.371   7.401  25.511
 7245CHOL    C287320  16.282   7.440  25.291
 7246CHOL   ROH87321  17.209  -0.751  22.158
 7246CHOL    R187322  17.143  -0.654  22.050
 7246CHOL    R287323  17.085  -0.732  21.837
 7246CHOL    R387324  17.069  -0.544  21.927
 7246CHOL    R487325  17.028  -0.647  21.742
 7246CHOL    R587326  17.003  -0.447  21.819
 7246CHOL    C187327  16.903  -0.301  21.656
 7246CHOL    C287328  16.804  -0.155  21.494
 7247CHOL   ROH87329   5.368  26.067  16.221
 7247CHOL    R187330   5.410  25.923  16.165
 7247CHOL    R287331   5.504  25.899  15.953
 7247CHOL    R387332   5.456  25.761  16.102
 7247CHOL    R487333   5.540  25.773  15.904
 7247CHOL    R587334   5.498  25.617  16.047
 7247CHOL    C187335   5.560  25.401  15.963
 7247CHOL    C287336   5.623  25.185  15.879
 7248CHOL   ROH87337  18.240  -1.755  -0.614
 7248CHOL    R187338  18.166  -1.649  -0.520
 7248CHOL    R287339  17.986  -1.523  -0.600
 7248CHOL    R387340  18.083  -1.529  -0.415
 7248CHOL    R487341  17.921  -1.430  -0.518
 7248CHOL    R587342  18.009  -1.422  -0.321
 7248CHOL    C187343  17.897  -1.263  -0.180
 7248CHOL    C287344  17.786  -1.103  -0.040
 7249CHOL   ROH87345  14.954  -6.056  15.831
 7249CHOL    R187346  14.907  -5.912  15.779
 7249CHOL    R287347  14.907  -5.862  15.551
 7249CHOL    R387348  14.855  -5.750  15.719
 7249CHOL    R487349  14.866  -5.736  15.505
 7249CHOL    R587350  14.808  -5.607  15.667
 7249CHOL    C187351  14.739  -5.391  15.588
 7249CHOL    C287352  14.669  -5.175  15.510
 7250CHOL   ROH87353  -4.034   1.480   2.469
 7250CHOL    R187354  -3.910   1.558   2.532
 7250CHOL    R287355  -3.729   1.443   2.624
 7250CHOL    R387356  -3.770   1.646   2.603
 7250CHOL    R487357  -3.620   1.511   2.679
 7250CHOL    R587358  -3.646   1.725   2.666
 7250CHOL    C187359  -3.459   1.842   2.761
 7250CHOL    C287360  -3.273   1.959   2.856
 7251CHOL   ROH87361  27.476   8.089   8.298
 7251CHOL    R187362  27.317   8.105   8.311
 7251CHOL    R287363  27.209   8.296   8.233
 7251CHOL    R387364  27.139   8.122   8.326
 7251CHOL    R487365  27.070   8.309   8.244
 7251CHOL    R587366  26.980   8.138   8.339
 7251CHOL    C187367  26.742   8.162   8.359
 7251CHOL    C287368  26.504   8.185   8.378
 7252CHOL   ROH87369  11.799  -0.966  -4.009
 7252CHOL    R187370  11.780  -0.869  -3.883
 7252CHOL    R287371  11.965  -0.782  -3.770
 7252CHOL    R387372  11.759  -0.760  -3.741
 7252CHOL    R487373  11.948  -0.697  -3.660
 7252CHOL    R587374  11.740  -0.663  -3.616
 7252CHOL    C187375  11.712  -0.518  -3.427
 7252CHOL    C287376  11.684  -0.372  -3.238
 7253CHOL   ROH87377  -2.137  -0.240   1.446
 7253CHOL    R187378  -2.030  -0.149   1.523
 7253CHOL    R287379  -1.824  -0.236   1.589
 7253CHOL    R387380  -1.910  -0.047   1.610
 7253CHOL    R487381  -1.730  -0.157   1.656
 7253CHOL    R587382  -1.802   0.044   1.687
 7253CHOL    C187383  -1.642   0.180   1.802
 7253CHOL    C287384  -1.481   0.316   1.917
 7254CHOL   ROH87385   1.258  10.329  -5.671
 7254CHOL    R187386   1.339  10.323  -5.533
 7254CHOL    R287387   1.281  10.460  -5.354
 7254CHOL    R387388   1.430  10.316  -5.378
 7254CHOL    R487389   1.352  10.455  -5.233
 7254CHOL    R587390   1.511  10.311  -5.241
 7254CHOL    C187391   1.633  10.302  -5.034
 7254CHOL    C287392   1.755  10.293  -4.827
 7255CHOL   ROH87393  -3.523  10.565  -1.799
 7255CHOL    R187394  -3.405  10.563  -1.691
 7255CHOL    R287395  -3.433  10.656  -1.480
 7255CHOL    R387396  -3.272  10.560  -1.570
 7255CHOL    R487397  -3.330  10.655  -1.386
 7255CHOL    R587398  -3.153  10.558  -1.463
 7255CHOL    C187399  -2.976  10.555  -1.301
 7255CHOL    C287400  -2.799  10.551  -1.139
 7256CHOL   ROH87401  16.426  10.680  -6.643
 7256CHOL    R187402  16.363  10.676  -6.496
 7256CHOL    R287403  16.232  10.852  -6.417
 7256CHOL    R387404  16.293  10.673  -6.330
 7256CHOL    R487405  16.177  10.849  -6.288
 7256CHOL    R587406  16.230  10.669  -6.183
 7256CHOL    C187407  16.137  10.664  -5.962
 7256CHOL    C287408  16.043  10.658  -5.741
 7257CHOL   ROH87409  -5.854   4.804   3.095
 7257CHOL    R187410  -5.712   4.847   3.155
 7257CHOL    R287411  -5.691   4.914   3.378
 7257CHOL    R387412  -5.552   4.896   3.222
 7257CHOL    R487413  -5.567   4.951   3.430
 7257CHOL    R587414  -5.411   4.939   3.282
 7257CHOL    C187415  -5.198   5.004   3.372
 7257CHOL    C287416  -4.985   5.069   3.462
 7258CHOL   ROH87417  23.490   8.521  21.348
 7258CHOL    R187418  23.367   8.537  21.247
 7258CHOL    R287419  23.385   8.668  21.055
 7258CHOL    R387420  23.228   8.554  21.134
 7258CHOL    R487421  23.277   8.682  20.967
 7258CHOL    R587422  23.105   8.570  21.033
 7258CHOL    C187423  22.920   8.594  20.882
 7258CHOL    C287424  22.735   8.617  20.731
 7259CHOL   ROH87425  16.337  26.511  11.513
 7259CHOL    R187426  16.274  26.364  11.501
 7259CHOL    R287427  16.345  26.192  11.641
 7259CHOL    R387428  16.203  26.200  11.488
 7259CHOL    R487429  16.290  26.063  11.631
 7259CHOL    R587430  16.141  26.053  11.476
 7259CHOL    C187431  16.046  25.833  11.458
 7259CHOL    C287432  15.952  25.613  11.440
 7260CHOL   ROH87433  -7.256   7.433  14.254
 7260CHOL    R187434  -7.102   7.457  14.218
 7260CHOL    R287435  -6.933   7.391  14.364
 7260CHOL    R387436  -6.929   7.484  14.176
 7260CHOL    R487437  -6.798   7.412  14.332
 7260CHOL    R587438  -6.775   7.507  14.140
 7260CHOL    C187439  -6.544   7.543  14.085
 7260CHOL    C287440  -6.313   7.579  14.031
 7261CHOL   ROH87441  -4.395  19.916  13.980
 7261CHOL    R187442  -4.268  19.826  13.943
 7261CHOL    R287443  -4.059  19.869  14.037
 7261CHOL    R387444  -4.125  19.724  13.902
 7261CHOL    R487445  -3.948  19.790  14.005
 7261CHOL    R587446  -3.999  19.633  13.865
 7261CHOL    C187447  -3.808  19.498  13.811
 7261CHOL    C287448  -3.618  19.362  13.756
 7262CHOL   ROH87449  -0.701  19.335  20.860
 7262CHOL    R187450  -0.607  19.254  20.759
 7262CHOL    R287451  -0.392  19.329  20.708
 7262CHOL    R387452  -0.501  19.162  20.646
 7262CHOL    R487453  -0.310  19.258  20.620
 7262CHOL    R587454  -0.407  19.081  20.545
 7262CHOL    C187455  -0.266  18.959  20.394
 7262CHOL    C287456  -0.125  18.837  20.243
 7263CHOL   ROH87457  23.844   0.392  15.553
 7263CHOL    R187458  23.719   0.481  15.506
 7263CHOL    R287459  23.720   0.588  15.299
 7263CHOL    R387460  23.579   0.580  15.453
 7263CHOL    R487461  23.611   0.665  15.258
 7263CHOL    R587462  23.454   0.669  15.406
 7263CHOL    C187463  23.268   0.802  15.335
 7263CHOL    C287464  23.081   0.935  15.265
 7264CHOL   ROH87465  12.932  -7.073   5.410
 7264CHOL    R187466  12.901  -6.921   5.451
 7264CHOL    R287467  12.842  -6.763   5.290
 7264CHOL    R387468  12.867  -6.751   5.497
 7264CHOL    R487469  12.815  -6.631   5.326
 7264CHOL    R587470  12.837  -6.599   5.538
 7264CHOL    C187471  12.791  -6.372   5.599
 7264CHOL    C287472  12.745  -6.145   5.661
 7265CHOL   ROH87473  14.775  19.635  24.134
 7265CHOL    R187474  14.732  19.550  24.005
 7265CHOL    R287475  14.851  19.361  23.941
 7265CHOL    R387476  14.683  19.455  23.861
 7265CHOL    R487477  14.813  19.287  23.828
 7265CHOL    R587478  14.639  19.371  23.732
 7265CHOL    C187479  14.574  19.244  23.539
 7265CHOL    C287480  14.509  19.117  23.346
 7266CHOL   ROH87481  26.580  12.096   4.000
 7266CHOL    R187482  26.430  12.082   4.054
 7266CHOL    R287483  26.302  11.893   4.003
 7266CHOL    R387484  26.261  12.065   4.114
 7266CHOL    R487485  26.170  11.881   4.050
 7266CHOL    R587486  26.111  12.051   4.168
 7266CHOL    C187487  25.886  12.029   4.249
 7266CHOL    C287488  25.661  12.008   4.329
 7267CHOL   ROH87489  -3.527   3.164  19.622
 7267CHOL    R187490  -3.411   3.227  19.533
 7267CHOL    R287491  -3.232   3.097  19.458
 7267CHOL    R387492  -3.279   3.299  19.432
 7267CHOL    R487493  -3.130   3.152  19.379
 7267CHOL    R587494  -3.163   3.362  19.342
 7267CHOL    C187495  -2.988   3.457  19.208
 7267CHOL    C287496  -2.814   3.552  19.074
 7268CHOL   ROH87497  25.796   3.117   5.713
 7268CHOL    R187498  25.653   3.179   5.747
 7268CHOL    R287499  25.501   3.232   5.578
 7268CHOL    R387500  25.491   3.249   5.785
 7268CHOL    R487501  25.376   3.287   5.607
 7268CHOL    R587502  25.348   3.312   5.819
 7268CHOL    C187503  25.133   3.405   5.871
 7268CHOL    C287504  24.918   3.498   5.922
 7269CHOL   ROH87505   9.564   5.938  -7.404
 7269CHOL    R187506   9.568   5.977  -7.249
 7269CHOL    R287507   9.771   6.010  -7.139
 7269CHOL    R387508   9.572   6.020  -7.074
 7269CHOL    R487509   9.774   6.044  -7.003
 7269CHOL    R587510   9.576   6.059  -6.919
 7269CHOL    C187511   9.582   6.116  -6.686
 7269CHOL    C287512   9.588   6.174  -6.453
 7270CHOL   ROH87513  24.470   5.082   0.839
 7270CHOL    R187514  24.340   5.125   0.922
 7270CHOL    R287515  24.170   5.249   0.821
 7270CHOL    R387516  24.194   5.174   1.014
 7270CHOL    R487517  24.056   5.287   0.894
 7270CHOL    R587518  24.063   5.217   1.097
 7270CHOL    C187519  23.868   5.282   1.221
 7270CHOL    C287520  23.673   5.347   1.345
 7271CHOL   ROH87521  13.117  26.209   3.408
 7271CHOL    R187522  13.085  26.063   3.466
 7271CHOL    R287523  13.218  25.880   3.409
 7271CHOL    R387524  13.049  25.899   3.531
 7271CHOL    R487525  13.190  25.752   3.459
 7271CHOL    R587526  13.017  25.753   3.588
 7271CHOL    C187527  12.969  25.535   3.675
 7271CHOL    C287528  12.921  25.316   3.762
 7272CHOL   ROH87529   8.762  -3.771  21.272
 7272CHOL    R187530   8.770  -3.648  21.169
 7272CHOL    R287531   8.890  -3.667  20.970
 7272CHOL    R387532   8.779  -3.511  21.054
 7272CHOL    R487533   8.897  -3.559  20.880
 7272CHOL    R587534   8.787  -3.388  20.951
 7272CHOL    C187535   8.800  -3.204  20.798
 7272CHOL    C287536   8.812  -3.020  20.644
 7273CHOL   ROH87537  -6.362  17.500   9.954
 7273CHOL    R187538  -6.216  17.435   9.953
 7273CHOL    R287539  -6.025  17.569   9.958
 7273CHOL    R387540  -6.052  17.362   9.951
 7273CHOL    R487541  -5.897  17.512   9.957
 7273CHOL    R587542  -5.905  17.296   9.949
 7273CHOL    C187543  -5.686  17.199   9.947
 7273CHOL    C287544  -5.467  17.101   9.945
 7274CHOL   ROH87545   8.071  -7.633   7.894
 7274CHOL    R187546   8.087  -7.475   7.910
 7274CHOL    R287547   8.287  -7.368   7.855
 7274CHOL    R387548   8.105  -7.296   7.928
 7274CHOL    R487549   8.301  -7.229   7.870
 7274CHOL    R587550   8.121  -7.138   7.944
 7274CHOL    C187551   8.145  -6.900   7.969
 7274CHOL    C287552   8.169  -6.663   7.993
 7275CHOL   ROH87553   5.645  19.894  -4.364
 7275CHOL    R187554   5.682  19.805  -4.236
 7275CHOL    R287555   5.892  19.707  -4.214
 7275CHOL    R387556   5.723  19.705  -4.092
 7275CHOL    R487557   5.924  19.629  -4.103
 7275CHOL    R587558   5.759  19.616  -3.965
 7275CHOL    C187559   5.814  19.483  -3.773
 7275CHOL    C287560   5.869  19.349  -3.581
 7276CHOL   ROH87561  22.885   1.837   0.874
 7276CHOL    R187562  22.771   1.909   0.959
 7276CHOL    R287563  22.597   2.024   0.854
 7276CHOL    R387564  22.642   1.991   1.055
 7276CHOL    R487565  22.497   2.088   0.928
 7276CHOL    R587566  22.527   2.063   1.140
 7276CHOL    C187567  22.356   2.172   1.268
 7276CHOL    C287568  22.184   2.281   1.395
 7277CHOL   ROH87569  27.310  11.359   6.500
 7277CHOL    R187570  27.153  11.351   6.530
 7277CHOL    R287571  27.044  11.146   6.546
 7277CHOL    R387572  26.976  11.343   6.563
 7277CHOL    R487573  26.907  11.139   6.573
 7277CHOL    R587574  26.820  11.335   6.593
 7277CHOL    C187575  26.584  11.323   6.638
 7277CHOL    C287576  26.349  11.312   6.682
 7278CHOL   ROH87577  14.191  -5.207   1.575
 7278CHOL    R187578  14.150  -5.072   1.651
 7278CHOL    R287579  14.205  -4.864   1.562
 7278CHOL    R387580  14.104  -4.920   1.736
 7278CHOL    R487581  14.169  -4.746   1.628
 7278CHOL    R587582  14.063  -4.786   1.811
 7278CHOL    C187583  14.002  -4.583   1.925
 7278CHOL    C287584  13.940  -4.381   2.039
 7279CHOL   ROH87585  26.720   4.081   9.503
 7279CHOL    R187586  26.569   4.134   9.507
 7279CHOL    R287587  26.495   4.298   9.359
 7279CHOL    R387588  26.399   4.194   9.512
 7279CHOL    R487589  26.363   4.344   9.362
 7279CHOL    R587590  26.248   4.247   9.517
 7279CHOL    C187591  26.022   4.327   9.523
 7279CHOL    C287592  25.796   4.406   9.529
 7280CHOL   ROH87593   2.854  26.277   7.811
 7280CHOL    R187594   2.923  26.134   7.830
 7280CHOL    R287595   2.907  26.020   8.033
 7280CHOL    R387596   3.001  25.973   7.852
 7280CHOL    R487597   2.968  25.895   8.050
 7280CHOL    R587598   3.069  25.830   7.871
 7280CHOL    C187599   3.173  25.615   7.901
 7280CHOL    C287600   3.276  25.401   7.930
 7281CHOL   ROH87601  24.157  19.498  14.781
 7281CHOL    R187602  24.030  19.411  14.738
 7281CHOL    R287603  23.947  19.420  14.520
 7281CHOL    R387604  23.887  19.313  14.689
 7281CHOL    R487605  23.836  19.344  14.482
 7281CHOL    R587606  23.760  19.226  14.646
 7281CHOL    C187607  23.569  19.096  14.581
 7281CHOL    C287608  23.378  18.966  14.516
 7282CHOL   ROH87609   6.728  22.658  -2.180
 7282CHOL    R187610   6.755  22.542  -2.073
 7282CHOL    R287611   6.964  22.519  -1.972
 7282CHOL    R387612   6.786  22.413  -1.952
 7282CHOL    R487613   6.988  22.418  -1.878
 7282CHOL    R587614   6.814  22.297  -1.844
 7282CHOL    C187615   6.855  22.124  -1.683
 7282CHOL    C287616   6.896  21.950  -1.522
 7283CHOL   ROH87617  24.644  16.509   2.294
 7283CHOL    R187618  24.512  16.451   2.363
 7283CHOL    R287619  24.495  16.226   2.422
 7283CHOL    R387620  24.363  16.387   2.442
 7283CHOL    R487621  24.380  16.176   2.482
 7283CHOL    R587622  24.231  16.329   2.511
 7283CHOL    C187623  24.033  16.243   2.615
 7283CHOL    C287624  23.835  16.156   2.719
 7284CHOL   ROH87625   9.415   2.732  26.200
 7284CHOL    R187626   9.424   2.795  26.053
 7284CHOL    R287627   9.619   2.900  25.980
 7284CHOL    R387628   9.435   2.866  25.888
 7284CHOL    R487629   9.628   2.956  25.852
 7284CHOL    R587630   9.444   2.930  25.741
 7284CHOL    C187631   9.459   3.024  25.521
 7284CHOL    C287632   9.473   3.119  25.301
 7285CHOL   ROH87633  19.979   8.625  -4.693
 7285CHOL    R187634  19.891   8.638  -4.560
 7285CHOL    R287635  19.675   8.727  -4.568
 7285CHOL    R387636  19.791   8.653  -4.411
 7285CHOL    R487637  19.598   8.738  -4.451
 7285CHOL    R587638  19.703   8.666  -4.278
 7285CHOL    C187639  19.571   8.686  -4.079
 7285CHOL    C287640  19.438   8.705  -3.880
 7286CHOL   ROH87641  16.132  -4.216   1.109
 7286CHOL    R187642  16.076  -4.088   1.187
 7286CHOL    R287643  16.217  -3.955   1.317
 7286CHOL    R387644  16.013  -3.944   1.275
 7286CHOL    R487645  16.168  -3.843   1.385
 7286CHOL    R587646  15.956  -3.816   1.353
 7286CHOL    C187647  15.872  -3.624   1.469
 7286CHOL    C287648  15.788  -3.432   1.586
 7287CHOL   ROH87649   4.704   1.230  24.672
 7287CHOL    R187650   4.747   1.307  24.539
 7287CHOL    R287651   4.899   1.213  24.389
 7287CHOL    R387652   4.795   1.394  24.388
 7287CHOL    R487653   4.937   1.280  24.272
 7287CHOL    R587654   4.838   1.471  24.255
 7287CHOL    C187655   4.902   1.587  24.055
 7287CHOL    C287656   4.967   1.702  23.855
 7288CHOL   ROH87657   7.737   1.332  25.361
 7288CHOL    R187658   7.757   1.406  25.220
 7288CHOL    R287659   7.924   1.566  25.191
 7288CHOL    R387660   7.779   1.489  25.062
 7288CHOL    R487661   7.941   1.630  25.068
 7288CHOL    R587662   7.799   1.562  24.922
 7288CHOL    C187663   7.829   1.673  24.711
 7288CHOL    C287664   7.859   1.784  24.500
 7289CHOL   ROH87665  19.214  23.190  17.274
 7289CHOL    R187666  19.127  23.072  17.210
 7289CHOL    R287667  19.127  22.858  17.303
 7289CHOL    R387668  19.028  22.940  17.137
 7289CHOL    R487669  19.050  22.756  17.246
 7289CHOL    R587670  18.941  22.823  17.073
 7289CHOL    C187671  18.810  22.646  16.977
 7289CHOL    C287672  18.679  22.470  16.880
 7290CHOL   ROH87673   6.095  27.213   6.886
 7290CHOL    R187674   6.126  27.058   6.912
 7290CHOL    R287675   6.197  26.984   7.122
 7290CHOL    R387676   6.161  26.884   6.942
 7290CHOL    R487677   6.224  26.849   7.145
 7290CHOL    R587678   6.191  26.730   6.968
 7290CHOL    C187679   6.238  26.497   7.008
 7290CHOL    C287680   6.284  26.265   7.048
 7291CHOL   ROH87681  22.087  19.078  19.252
 7291CHOL    R187682  21.979  18.996  19.168
 7291CHOL    R287683  22.041  18.811  19.040
 7291CHOL    R387684  21.856  18.903  19.074
 7291CHOL    R487685  21.946  18.739  18.966
 7291CHOL    R587686  21.748  18.821  18.990
 7291CHOL    C187687  21.585  18.697  18.864
 7291CHOL    C287688  21.423  18.573  18.738
 7292CHOL   ROH87689  22.258  20.466   2.557
 7292CHOL    R187690  22.150  20.370   2.626
 7292CHOL    R287691  22.163  20.138   2.600
 7292CHOL    R387692  22.030  20.261   2.703
 7292CHOL    R487693  22.069  20.054   2.660
 7292CHOL    R587694  21.922  20.165   2.772
 7292CHOL    C187695  21.761  20.020   2.875
 7292CHOL    C287696  21.599  19.875   2.978
 7293CHOL   ROH87697   4.389  -6.273   4.979
 7293CHOL    R187698   4.436  -6.127   5.024
 7293CHOL    R287699   4.611  -6.018   4.915
 7293CHOL    R387700   4.489  -5.963   5.075
 7293CHOL    R487701   4.652  -5.890   4.954
 7293CHOL    R587702   4.537  -5.816   5.120
 7293CHOL    C187703   4.607  -5.597   5.188
 7293CHOL    C287704   4.678  -5.378   5.255
 7294CHOL   ROH87705  25.302  16.082   3.302
 7294CHOL    R187706  25.164  16.027   3.362
 7294CHOL    R287707  24.965  16.146   3.333
 7294CHOL    R387708  25.009  15.965   3.429
 7294CHOL    R487709  24.845  16.098   3.386
 7294CHOL    R587710  24.871  15.910   3.488
 7294CHOL    C187711  24.664  15.828   3.578
 7294CHOL    C287712  24.457  15.746   3.668
 7295CHOL   ROH87713  -7.031  13.049  14.974
 7295CHOL    R187714  -6.879  13.023  14.930
 7295CHOL    R287715  -6.730  12.915  15.073
 7295CHOL    R387716  -6.708  12.994  14.882
 7295CHOL    R487717  -6.597  12.892  15.035
 7295CHOL    R587718  -6.557  12.968  14.838
 7295CHOL    C187719  -6.329  12.929  14.773
 7295CHOL    C287720  -6.101  12.890  14.707
 7296CHOL   ROH87721  -3.097  13.867  21.591
 7296CHOL    R187722  -2.982  13.834  21.485
 7296CHOL    R287723  -2.867  13.631  21.491
 7296CHOL    R387724  -2.852  13.797  21.366
 7296CHOL    R487725  -2.767  13.602  21.398
 7296CHOL    R587726  -2.737  13.765  21.259
 7296CHOL    C187727  -2.564  13.715  21.100
 7296CHOL    C287728  -2.391  13.666  20.941
 7297CHOL   ROH87729   9.010  19.909  24.783
 7297CHOL    R187730   9.018  19.818  24.652
 7297CHOL    R287731   9.028  19.913  24.439
 7297CHOL    R387732   9.027  19.715  24.504
 7297CHOL    R487733   9.035  19.833  24.324
 7297CHOL    R587734   9.035  19.624  24.373
 7297CHOL    C187735   9.048  19.486  24.176
 7297CHOL    C287736   9.060  19.349  23.979
 7298CHOL   ROH87737   8.906   7.032  -7.616
 7298CHOL    R187738   8.915   7.061  -7.459
 7298CHOL    R287739   9.120   7.096  -7.355
 7298CHOL    R387740   8.925   7.093  -7.282
 7298CHOL    R487741   9.128   7.121  -7.217
 7298CHOL    R587742   8.934   7.122  -7.125
 7298CHOL    C187743   8.947   7.164  -6.889
 7298CHOL    C287744   8.960   7.207  -6.654
 7299CHOL   ROH87745  -4.673  14.102   0.290
 7299CHOL    R187746  -4.541  14.063   0.372
 7299CHOL    R287747  -4.528  13.862   0.489
 7299CHOL    R387748  -4.393  14.019   0.464
 7299CHOL    R487749  -4.413  13.828   0.561
 7299CHOL    R587750  -4.262  13.981   0.547
 7299CHOL    C187751  -4.064  13.922   0.670
 7299CHOL    C287752  -3.866  13.864   0.793
 7300CHOL   ROH87753   7.030   1.107  25.129
 7300CHOL    R187754   7.055   1.181  24.989
 7300CHOL    R287755   7.246   1.311  24.955
 7300CHOL    R387756   7.083   1.265  24.833
 7300CHOL    R487757   7.268   1.375  24.833
 7300CHOL    R587758   7.109   1.339  24.693
 7300CHOL    C187759   7.146   1.450  24.484
 7300CHOL    C287760   7.184   1.562  24.274
 7301CHOL   ROH87761  -7.061   5.932  13.802
 7301CHOL    R187762  -6.909   5.969  13.769
 7301CHOL    R287763  -6.750   5.986  13.939
 7301CHOL    R387764  -6.738   6.011  13.732
 7301CHOL    R487765  -6.617   6.019  13.911
 7301CHOL    R587766  -6.586   6.047  13.699
 7301CHOL    C187767  -6.357   6.103  13.650
 7301CHOL    C287768  -6.129   6.158  13.601
 7302CHOL   ROH87769   0.298  21.835  19.321
 7302CHOL    R187770   0.384  21.729  19.237
 7302CHOL    R287771   0.588  21.650  19.318
 7302CHOL    R387772   0.481  21.610  19.143
 7302CHOL    R487773   0.664  21.558  19.245
 7302CHOL    R587774   0.567  21.504  19.060
 7302CHOL    C187775   0.696  21.346  18.934
 7302CHOL    C287776   0.825  21.187  18.808
 7303CHOL   ROH87777   8.071  24.828   0.236
 7303CHOL    R187778   8.089  24.697   0.326
 7303CHOL    R287779   8.179  24.711   0.541
 7303CHOL    R387780   8.108  24.550   0.428
 7303CHOL    R487781   8.194  24.596   0.620
 7303CHOL    R587782   8.126  24.419   0.519
 7303CHOL    C187783   8.152  24.223   0.654
 7303CHOL    C287784   8.179  24.026   0.790
 7304CHOL   ROH87785  -4.616   7.711  -0.243
 7304CHOL    R187786  -4.488   7.730  -0.149
 7304CHOL    R287787  -4.353   7.548  -0.091
 7304CHOL    R387788  -4.344   7.751  -0.043
 7304CHOL    R487789  -4.241   7.564  -0.009
 7304CHOL    R587790  -4.216   7.769   0.051
 7304CHOL    C187791  -4.024   7.798   0.193
 7304CHOL    C287792  -3.832   7.826   0.334
 7305CHOL   ROH87793  25.250   5.599  17.783
 7305CHOL    R187794  25.112   5.636  17.710
 7305CHOL    R287795  25.062   5.858  17.655
 7305CHOL    R387796  24.958   5.679  17.629
 7305CHOL    R487797  24.942   5.890  17.592
 7305CHOL    R587798  24.820   5.716  17.556
 7305CHOL    C187799  24.614   5.772  17.447
 7305CHOL    C287800  24.407   5.828  17.338
 7306CHOL   ROH87801  19.231  10.233  -5.226
 7306CHOL    R187802  19.149  10.230  -5.089
 7306CHOL    R287803  18.929  10.308  -5.079
 7306CHOL    R387804  19.056  10.226  -4.935
 7306CHOL    R487805  18.857  10.305  -4.959
 7306CHOL    R587806  18.973  10.223  -4.798
 7306CHOL    C187807  18.850  10.217  -4.592
 7306CHOL    C287808  18.726  10.212  -4.386
 7307CHOL   ROH87809  22.983  20.350   3.738
 7307CHOL    R187810  22.864  20.256   3.790
 7307CHOL    R287811  22.870  20.026   3.756
 7307CHOL    R387812  22.731  20.151   3.849
 7307CHOL    R487813  22.766  19.944   3.802
 7307CHOL    R587814  22.612  20.057   3.902
 7307CHOL    C187815  22.435  19.916   3.980
 7307CHOL    C287816  22.257  19.776   4.058
 7308CHOL   ROH87817  -4.844   1.071  14.642
 7308CHOL    R187818  -4.712   1.150  14.599
 7308CHOL    R287819  -4.622   1.317  14.735
 7308CHOL    R387820  -4.562   1.239  14.551
 7308CHOL    R487821  -4.506   1.386  14.697
 7308CHOL    R587822  -4.430   1.317  14.508
 7308CHOL    C187823  -4.231   1.436  14.444
 7308CHOL    C287824  -4.033   1.554  14.379
 7309CHOL   ROH87825  25.411  18.694  11.016
 7309CHOL    R187826  25.272  18.616  11.007
 7309CHOL    R287827  25.260  18.386  11.048
 7309CHOL    R387828  25.115  18.528  10.997
 7309CHOL    R487829  25.138  18.318  11.040
 7309CHOL    R587830  24.976  18.449  10.988
 7309CHOL    C187831  24.767  18.332  10.975
 7309CHOL    C287832  24.558  18.215  10.961
 7310CHOL   ROH87833  24.828  19.671   9.505
 7310CHOL    R187834  24.694  19.584   9.512
 7310CHOL    R287835  24.701  19.351   9.508
 7310CHOL    R387836  24.542  19.487   9.520
 7310CHOL    R487837  24.583  19.276   9.514
 7310CHOL    R587838  24.408  19.401   9.527
 7310CHOL    C187839  24.206  19.271   9.538
 7310CHOL    C287840  24.005  19.141   9.548
 7311CHOL   ROH87841  -1.670  16.651  -2.005
 7311CHOL    R187842  -1.568  16.592  -1.897
 7311CHOL    R287843  -1.355  16.682  -1.871
 7311CHOL    R387844  -1.454  16.525  -1.774
 7311CHOL    R487845  -1.266  16.630  -1.776
 7311CHOL    R587846  -1.353  16.466  -1.666
 7311CHOL    C187847  -1.200  16.377  -1.503
 7311CHOL    C287848  -1.048  16.288  -1.341
 7312CHOL   ROH87849  21.390  17.753  -1.316
 7312CHOL    R187850  21.288  17.683  -1.214
 7312CHOL    R287851  21.058  17.704  -1.242
 7312CHOL    R387852  21.174  17.603  -1.100
 7312CHOL    R487853  20.969  17.642  -1.153
 7312CHOL    R587854  21.073  17.533  -0.998
 7312CHOL    C187855  20.920  17.427  -0.846
 7312CHOL    C287856  20.768  17.322  -0.694
 7313CHOL   ROH87857  25.741  15.736   4.067
 7313CHOL    R187858  25.600  15.682   4.119
 7313CHOL    R287859  25.400  15.775   4.042
 7313CHOL    R387860  25.440  15.622   4.178
 7313CHOL    R487861  25.276  15.728   4.087
 7313CHOL    R587862  25.299  15.568   4.230
 7313CHOL    C187863  25.087  15.487   4.308
 7313CHOL    C287864  24.875  15.407   4.386
 7314CHOL   ROH87865  21.011  11.705  -3.899
 7314CHOL    R187866  20.912  11.690  -3.775
 7314CHOL    R287867  20.871  11.481  -3.679
 7314CHOL    R387868  20.800  11.672  -3.634
 7314CHOL    R487869  20.784  11.467  -3.570
 7314CHOL    R587870  20.700  11.657  -3.510
 7314CHOL    C187871  20.551  11.634  -3.323
 7314CHOL    C287872  20.402  11.611  -3.137
 7315CHOL   ROH87873  12.348  -6.888  15.225
 7315CHOL    R187874  12.323  -6.737  15.179
 7315CHOL    R287875  12.421  -6.653  14.984
 7315CHOL    R387876  12.296  -6.567  15.126
 7315CHOL    R487877  12.400  -6.521  14.943
 7315CHOL    R587878  12.271  -6.416  15.080
 7315CHOL    C187879  12.234  -6.189  15.010
 7315CHOL    C287880  12.197  -5.962  14.941
 7316CHOL   ROH87881   3.141   7.701  -6.472
 7316CHOL    R187882   3.201   7.720  -6.325
 7316CHOL    R287883   3.207   7.542  -6.174
 7316CHOL    R387884   3.269   7.741  -6.160
 7316CHOL    R487885   3.259   7.559  -6.045
 7316CHOL    R587886   3.329   7.760  -6.012
 7316CHOL    C187887   3.419   7.788  -5.792
 7316CHOL    C287888   3.509   7.817  -5.571
 7317CHOL   ROH87889  -3.329   9.671  21.931
 7317CHOL    R187890  -3.210   9.670  21.823
 7317CHOL    R287891  -3.117   9.470  21.749
 7317CHOL    R387892  -3.077   9.669  21.703
 7317CHOL    R487893  -3.014   9.469  21.655
 7317CHOL    R587894  -2.958   9.668  21.595
 7317CHOL    C187895  -2.781   9.667  21.434
 7317CHOL    C287896  -2.603   9.665  21.272
 7318CHOL   ROH87897  20.680  11.225  -4.207
 7318CHOL    R187898  20.584  11.214  -4.080
 7318CHOL    R287899  20.387  11.339  -4.067
 7318CHOL    R387900  20.475  11.201  -3.936
 7318CHOL    R487901  20.303  11.329  -3.955
 7318CHOL    R587902  20.379  11.190  -3.809
 7318CHOL    C187903  20.235  11.173  -3.618
 7318CHOL    C287904  20.090  11.156  -3.427
 7319CHOL   ROH87905  -5.520   3.938  16.788
 7319CHOL    R187906  -5.382   3.996  16.732
 7319CHOL    R287907  -5.225   3.855  16.632
 7319CHOL    R387908  -5.227   4.061  16.668
 7319CHOL    R487909  -5.104   3.906  16.583
 7319CHOL    R587910  -5.089   4.119  16.612
 7319CHOL    C187911  -4.881   4.205  16.528
 7319CHOL    C287912  -4.674   4.292  16.443
 7320CHOL   ROH87913  15.794   0.467  -4.022
 7320CHOL    R187914  15.744   0.556  -3.899
 7320CHOL    R287915  15.747   0.789  -3.909
 7320CHOL    R387916  15.687   0.656  -3.760
 7320CHOL    R487917  15.703   0.867  -3.802
 7320CHOL    R587918  15.637   0.745  -3.637
 7320CHOL    C187919  15.561   0.878  -3.452
 7320CHOL    C287920  15.485   1.011  -3.267
 7321CHOL   ROH87921  11.048  -6.132  17.629
 7321CHOL    R187922  11.039  -5.989  17.558
 7321CHOL    R287923  11.167  -5.940  17.370
 7321CHOL    R387924  11.029  -5.828  17.479
 7321CHOL    R487925  11.160  -5.815  17.308
 7321CHOL    R587926  11.020  -5.684  17.408
 7321CHOL    C187927  11.007  -5.470  17.302
 7321CHOL    C287928  10.994  -5.255  17.196
 7322CHOL   ROH87929  14.494  -2.616  21.617
 7322CHOL    R187930  14.456  -2.503  21.510
 7322CHOL    R287931  14.455  -2.549  21.282
 7322CHOL    R387932  14.414  -2.376  21.391
 7322CHOL    R487933  14.422  -2.450  21.189
 7322CHOL    R587934  14.376  -2.262  21.284
 7322CHOL    C187935  14.319  -2.093  21.124
 7322CHOL    C287936  14.263  -1.923  20.964
 7323CHOL   ROH87937   9.948   5.938  -7.410
 7323CHOL    R187938   9.949   5.977  -7.255
 7323CHOL    R287939  10.148   6.031  -7.146
 7323CHOL    R387940   9.951   6.020  -7.080
 7323CHOL    R487941  10.150   6.064  -7.010
 7323CHOL    R587942   9.952   6.059  -6.925
 7323CHOL    C187943   9.954   6.116  -6.692
 7323CHOL    C287944   9.956   6.174  -6.459
 7324CHOL   ROH87945  21.124  -3.792   8.266
 7324CHOL    R187946  21.023  -3.669   8.282
 7324CHOL    R287947  20.909  -3.583   8.098
 7324CHOL    R387948  20.910  -3.530   8.300
 7324CHOL    R487949  20.820  -3.475   8.112
 7324CHOL    R587950  20.809  -3.407   8.316
 7324CHOL    C187951  20.658  -3.222   8.340
 7324CHOL    C287952  20.507  -3.037   8.364
 7325CHOL   ROH87953  -5.022  14.851  18.578
 7325CHOL    R187954  -4.888  14.809  18.502
 7325CHOL    R287955  -4.694  14.938  18.521
 7325CHOL    R387956  -4.736  14.763  18.416
 7325CHOL    R487957  -4.576  14.901  18.454
 7325CHOL    R587958  -4.602  14.721  18.339
 7325CHOL    C187959  -4.400  14.659  18.225
 7325CHOL    C287960  -4.199  14.596  18.111
 7326CHOL   ROH87961  13.646  26.656  15.068
 7326CHOL    R187962  13.613  26.506  15.024
 7326CHOL    R287963  13.783  26.360  14.959
 7326CHOL    R387964  13.577  26.337  14.974
 7326CHOL    R487965  13.755  26.229  14.920
 7326CHOL    R587966  13.544  26.186  14.930
 7326CHOL    C187967  13.495  25.961  14.864
 7326CHOL    C287968  13.446  25.736  14.798
 7327CHOL   ROH87969   8.922   0.935  25.267
 7327CHOL    R187970   8.932   1.014  25.128
 7327CHOL    R287971   9.073   1.198  25.104
 7327CHOL    R387972   8.942   1.103  24.972
 7327CHOL    R487973   9.082   1.267  24.982
 7327CHOL    R587974   8.952   1.182  24.833
 7327CHOL    C187975   8.966   1.300  24.625
 7327CHOL    C287976   8.981   1.418  24.416
 7328CHOL   ROH87977   3.630  -1.166  22.456
 7328CHOL    R187978   3.686  -1.063  22.347
 7328CHOL    R287979   3.797  -0.869  22.410
 7328CHOL    R387980   3.748  -0.948  22.223
 7328CHOL    R487981   3.845  -0.779  22.315
 7328CHOL    R587982   3.804  -0.846  22.114
 7328CHOL    C187983   3.888  -0.692  21.950
 7328CHOL    C287984   3.971  -0.538  21.786
 7329CHOL   ROH87985  12.617   4.238  -6.738
 7329CHOL    R187986  12.595   4.290  -6.588
 7329CHOL    R287987  12.646   4.509  -6.529
 7329CHOL    R387988  12.570   4.348  -6.420
 7329CHOL    R487989  12.626   4.555  -6.397
 7329CHOL    R587990  12.548   4.399  -6.270
 7329CHOL    C187991  12.515   4.477  -6.045
 7329CHOL    C287992  12.482   4.555  -5.821
 7330CHOL   ROH87993   5.637  20.289  23.865
 7330CHOL    R187994   5.675  20.193  23.743
 7330CHOL    R287995   5.892  20.109  23.719
 7330CHOL    R387996   5.718  20.084  23.606
 7330CHOL    R487997   5.925  20.025  23.612
 7330CHOL    R587998   5.756  19.988  23.484
 7330CHOL    C187999   5.813  19.844  23.300
 7330CHOL    C288000   5.870  19.699  23.117
 7331CHOL   ROH88001  22.189  20.555  17.202
 7331CHOL    R188002  22.080  20.456  17.140
 7331CHOL    R288003  22.105  20.369  16.925
 7331CHOL    R388004  21.957  20.344  17.070
 7331CHOL    R488005  22.009  20.282  16.870
 7331CHOL    R588006  21.848  20.244  17.008
 7331CHOL    C188007  21.684  20.095  16.915
 7331CHOL    C288008  21.521  19.946  16.822
 7332CHOL   ROH88009  -5.476  13.167  18.536
 7332CHOL    R188010  -5.339  13.139  18.458
 7332CHOL    R288011  -5.150  13.271  18.498
 7332CHOL    R388012  -5.185  13.109  18.371
 7332CHOL    R488013  -5.030  13.247  18.430
 7332CHOL    R588014  -5.048  13.081  18.293
 7332CHOL    C188015  -4.842  13.040  18.177
 7332CHOL    C288016  -4.636  12.998  18.061
 7333CHOL   ROH88017   9.957   2.122  -6.081
 7333CHOL    R188018   9.957   2.190  -5.936
 7333CHOL    R288019  10.138   2.317  -5.863
 7333CHOL    R388020   9.956   2.267  -5.774
 7333CHOL    R488021  10.138   2.377  -5.737
 7333CHOL    R588022   9.956   2.335  -5.629
 7333CHOL    C188023   9.956   2.438  -5.412
 7333CHOL    C288024   9.955   2.540  -5.195
 7334CHOL   ROH88025  14.488  17.712  25.307
 7334CHOL    R188026  14.449  17.643  25.168
 7334CHOL    R288027  14.544  17.440  25.104
 7334CHOL    R388028  14.405  17.566  25.011
 7334CHOL    R488029  14.510  17.380  24.982
 7334CHOL    R588030  14.367  17.497  24.872
 7334CHOL    C188031  14.308  17.395  24.663
 7334CHOL    C288032  14.250  17.292  24.454
 7335CHOL   ROH88033   0.596   5.980  -4.829
 7335CHOL    R188034   0.681   6.016  -4.698
 7335CHOL    R288035   0.590   6.149  -4.529
 7335CHOL    R388036   0.776   6.055  -4.551
 7335CHOL    R488037   0.664   6.180  -4.414
 7335CHOL    R588038   0.860   6.091  -4.420
 7335CHOL    C188039   0.987   6.144  -4.223
 7335CHOL    C288040   1.114   6.198  -4.026
 7336CHOL   ROH88041  -4.424   5.605   0.093
 7336CHOL    R188042  -4.296   5.639   0.183
 7336CHOL    R288043  -4.268   5.541   0.393
 7336CHOL    R388044  -4.153   5.677   0.284
 7336CHOL    R488045  -4.156   5.570   0.471
 7336CHOL    R588046  -4.025   5.712   0.374
 7336CHOL    C188047  -3.833   5.763   0.510
 7336CHOL    C288048  -3.642   5.814   0.645
 7337CHOL   ROH88049  11.687  -7.662   7.532
 7337CHOL    R188050  11.673  -7.504   7.550
 7337CHOL    R288051  11.732  -7.400   7.751
 7337CHOL    R388052  11.657  -7.325   7.571
 7337CHOL    R488053  11.719  -7.262   7.767
 7337CHOL    R588054  11.643  -7.167   7.589
 7337CHOL    C188055  11.623  -6.929   7.616
 7337CHOL    C288056  11.602  -6.692   7.644
 7338CHOL   ROH88057  16.845  -6.433  10.405
 7338CHOL    R188058  16.781  -6.286  10.401
 7338CHOL    R288059  16.905  -6.103  10.327
 7338CHOL    R388060  16.709  -6.122  10.396
 7338CHOL    R488061  16.849  -5.975  10.323
 7338CHOL    R588062  16.644  -5.975  10.392
 7338CHOL    C188063  16.548  -5.755  10.385
 7338CHOL    C288064  16.452  -5.535  10.379
 7339CHOL   ROH88065   4.367  -6.751  12.842
 7339CHOL    R188066   4.417  -6.601  12.817
 7339CHOL    R288067   4.564  -6.551  12.643
 7339CHOL    R388068   4.473  -6.432  12.788
 7339CHOL    R488069   4.608  -6.420  12.621
 7339CHOL    R588070   4.522  -6.283  12.763
 7339CHOL    C188071   4.597  -6.058  12.725
 7339CHOL    C288072   4.672  -5.833  12.687
 7340CHOL   ROH88073  22.024  19.372  19.037
 7340CHOL    R188074  21.916  19.287  18.956
 7340CHOL    R288075  21.981  19.114  18.814
 7340CHOL    R388076  21.794  19.191  18.864
 7340CHOL    R488077  21.886  19.039  18.743
 7340CHOL    R588078  21.685  19.105  18.783
 7340CHOL    C188079  21.523  18.978  18.661
 7340CHOL    C288080  21.361  18.850  18.539
 7341CHOL   ROH88081  22.202   1.622  19.755
 7341CHOL    R188082  22.094   1.695  19.662
 7341CHOL    R288083  22.128   1.715  19.432
 7341CHOL    R388084  21.973   1.777  19.557
 7341CHOL    R488085  22.033   1.779  19.351
 7341CHOL    R588086  21.865   1.850  19.464
 7341CHOL    C188087  21.703   1.959  19.325
 7341CHOL    C288088  21.541   2.069  19.186
 7342CHOL   ROH88089  22.898   0.436   2.309
 7342CHOL    R188090  22.782   0.521   2.379
 7342CHOL    R288091  22.822   0.738   2.455
 7342CHOL    R388092  22.652   0.618   2.458
 7342CHOL    R488093  22.721   0.813   2.516
 7342CHOL    R588094  22.536   0.703   2.528
 7342CHOL    C188095  22.363   0.831   2.633
 7342CHOL    C288096  22.189   0.959   2.738
 7343CHOL   ROH88097  10.865   4.791  -7.076
 7343CHOL    R188098  10.859   4.839  -6.923
 7343CHOL    R288099  10.896   5.061  -6.865
 7343CHOL    R388100  10.851   4.892  -6.752
 7343CHOL    R488101  10.890   5.103  -6.732
 7343CHOL    R588102  10.845   4.939  -6.599
 7343CHOL    C188103  10.835   5.011  -6.370
 7343CHOL    C288104  10.826   5.082  -6.141
 7344CHOL   ROH88105  14.539  24.407   0.481
 7344CHOL    R188106  14.497  24.276   0.562
 7344CHOL    R288107  14.391  24.098   0.456
 7344CHOL    R388108  14.450  24.128   0.654
 7344CHOL    R488109  14.354  23.983   0.527
 7344CHOL    R588110  14.407  23.997   0.735
 7344CHOL    C188111  14.344  23.800   0.857
 7344CHOL    C288112  14.281  23.603   0.979
 7345CHOL   ROH88113  14.101  14.903  -6.681
 7345CHOL    R188114  14.065  14.858  -6.532
 7345CHOL    R288115  13.852  14.778  -6.479
 7345CHOL    R388116  14.024  14.806  -6.364
 7345CHOL    R488117  13.820  14.738  -6.349
 7345CHOL    R588118  13.988  14.761  -6.215
 7345CHOL    C188119  13.933  14.693  -5.991
 7345CHOL    C288120  13.879  14.625  -5.768
 7346CHOL   ROH88121  -3.716  18.866  17.408
 7346CHOL    R188122  -3.595  18.786  17.341
 7346CHOL    R288123  -3.551  18.564  17.396
 7346CHOL    R388124  -3.458  18.697  17.265
 7346CHOL    R488125  -3.445  18.494  17.338
 7346CHOL    R588126  -3.337  18.618  17.198
 7346CHOL    C188127  -3.154  18.498  17.097
 7346CHOL    C288128  -2.972  18.379  16.996
 7347CHOL   ROH88129   0.235  13.813  24.410
 7347CHOL    R188130   0.324  13.777  24.282
 7347CHOL    R288131   0.540  13.693  24.306
 7347CHOL    R388132   0.424  13.736  24.138
 7347CHOL    R488133   0.618  13.661  24.194
 7347CHOL    R588134   0.513  13.700  24.010
 7347CHOL    C188135   0.646  13.645  23.818
 7347CHOL    C288136   0.779  13.591  23.626
 7348CHOL   ROH88137  16.274  -5.025   2.758
 7348CHOL    R188138  16.214  -4.890   2.819
 7348CHOL    R288139  16.296  -4.682   2.753
 7348CHOL    R388140  16.146  -4.738   2.888
 7348CHOL    R488141  16.243  -4.563   2.807
 7348CHOL    R588142  16.086  -4.603   2.949
 7348CHOL    C188143  15.996  -4.400   3.041
 7348CHOL    C288144  15.906  -4.197   3.132
 7349CHOL   ROH88145  -4.829   0.273  12.877
 7349CHOL    R188146  -4.696   0.358  12.849
 7349CHOL    R288147  -4.485   0.261  12.871
 7349CHOL    R388148  -4.547   0.454  12.818
 7349CHOL    R488149  -4.369   0.336  12.846
 7349CHOL    R588150  -4.414   0.539  12.790
 7349CHOL    C188151  -4.216   0.666  12.748
 7349CHOL    C288152  -4.017   0.793  12.706
 7350CHOL   ROH88153   3.596  26.730  10.223
 7350CHOL    R188154   3.655  26.581  10.220
 7350CHOL    R288155   3.837  26.521  10.352
 7350CHOL    R388156   3.720  26.414  10.216
 7350CHOL    R488157   3.889  26.391  10.349
 7350CHOL    R588158   3.779  26.265  10.213
 7350CHOL    C188159   3.867  26.042  10.207
 7350CHOL    C288160   3.955  25.819  10.202
 7351CHOL   ROH88161  21.764   3.641  -1.699
 7351CHOL    R188162  21.659   3.701  -1.595
 7351CHOL    R288163  21.666   3.926  -1.532
 7351CHOL    R388164  21.540   3.769  -1.477
 7351CHOL    R488165  21.574   3.979  -1.441
 7351CHOL    R588166  21.435   3.829  -1.373
 7351CHOL    C188167  21.277   3.919  -1.216
 7351CHOL    C288168  21.119   4.009  -1.059
 7352CHOL   ROH88169  -6.450  13.933  16.171
 7352CHOL    R188170  -6.305  13.898  16.114
 7352CHOL    R288171  -6.156  14.067  16.053
 7352CHOL    R388172  -6.141  13.859  16.050
 7352CHOL    R488173  -6.029  14.037  16.003
 7352CHOL    R588174  -5.996  13.824  15.993
 7352CHOL    C188175  -5.777  13.772  15.908
 7352CHOL    C288176  -5.559  13.720  15.823
 7353CHOL   ROH88177   9.344   6.300  -7.484
 7353CHOL    R188178   9.350   6.336  -7.328
 7353CHOL    R288179   9.523   6.465  -7.241
 7353CHOL    R388180   9.356   6.376  -7.153
 7353CHOL    R488181   9.528   6.496  -7.104
 7353CHOL    R588182   9.361   6.412  -6.997
 7353CHOL    C188183   9.370   6.465  -6.763
 7353CHOL    C288184   9.378   6.519  -6.529
 7354CHOL   ROH88185  24.197  13.390  -0.111
 7354CHOL    R188186  24.069  13.362  -0.020
 7354CHOL    R288187  23.858  13.441  -0.082
 7354CHOL    R388188  23.924  13.330   0.082
 7354CHOL    R488189  23.746  13.417  -0.002
 7354CHOL    R588190  23.796  13.302   0.174
 7354CHOL    C188191  23.603  13.260   0.310
 7354CHOL    C288192  23.410  13.218   0.447
 7355CHOL   ROH88193  -5.751   3.505  15.655
 7355CHOL    R188194  -5.611   3.565  15.608
 7355CHOL    R288195  -5.483   3.698  15.751
 7355CHOL    R388196  -5.452   3.633  15.555
 7355CHOL    R488197  -5.360   3.751  15.710
 7355CHOL    R588198  -5.312   3.694  15.508
 7355CHOL    C188199  -5.101   3.784  15.437
 7355CHOL    C288200  -4.891   3.874  15.366
 7356CHOL   ROH88201   2.021  24.595   3.453
 7356CHOL    R188202   2.096  24.466   3.510
 7356CHOL    R288203   2.329  24.456   3.517
 7356CHOL    R388204   2.181  24.321   3.575
 7356CHOL    R488205   2.395  24.343   3.568
 7356CHOL    R588206   2.256  24.191   3.632
 7356CHOL    C188207   2.369  23.998   3.718
 7356CHOL    C288208   2.482  23.804   3.804
 7357CHOL   ROH88209  -0.354  13.562  -4.209
 7357CHOL    R188210  -0.262  13.534  -4.081
 7357CHOL    R288211  -0.354  13.527  -3.867
 7357CHOL    R388212  -0.159  13.501  -3.937
 7357CHOL    R488213  -0.274  13.502  -3.755
 7357CHOL    R588214  -0.068  13.473  -3.809
 7357CHOL    C188215   0.070  13.430  -3.617
 7357CHOL    C288216   0.208  13.388  -3.425
 7358CHOL   ROH88217   1.577  25.276  13.878
 7358CHOL    R188218   1.650  25.139  13.839
 7358CHOL    R288219   1.828  25.058  13.966
 7358CHOL    R388220   1.732  24.985  13.796
 7358CHOL    R488221   1.892  24.938  13.932
 7358CHOL    R588222   1.804  24.847  13.758
 7358CHOL    C188223   1.914  24.642  13.700
 7358CHOL    C288224   2.023  24.436  13.642
 7359CHOL   ROH88225   5.103  22.125  -2.262
 7359CHOL    R188226   5.142  22.013  -2.155
 7359CHOL    R288227   5.215  22.070  -1.941
 7359CHOL    R388228   5.185  21.886  -2.035
 7359CHOL    R488229   5.249  21.972  -1.848
 7359CHOL    R588230   5.223  21.773  -1.927
 7359CHOL    C188231   5.281  21.605  -1.767
 7359CHOL    C288232   5.339  21.436  -1.606
 7360CHOL   ROH88233   1.118  21.058  -1.075
 7360CHOL    R188234   1.197  20.957  -0.979
 7360CHOL    R288235   1.429  20.934  -0.994
 7360CHOL    R388236   1.286  20.843  -0.872
 7360CHOL    R488237   1.498  20.845  -0.910
 7360CHOL    R588238   1.365  20.742  -0.776
 7360CHOL    C188239   1.484  20.590  -0.632
 7360CHOL    C288240   1.602  20.439  -0.489
 7361CHOL   ROH88241  -1.755   9.521  -3.551
 7361CHOL    R188242  -1.651   9.523  -3.430
 7361CHOL    R288243  -1.614   9.717  -3.306
 7361CHOL    R388244  -1.533   9.525  -3.293
 7361CHOL    R488245  -1.523   9.719  -3.200
 7361CHOL    R588246  -1.429   9.527  -3.172
 7361CHOL    C188247  -1.273   9.530  -2.989
 7361CHOL    C288248  -1.116   9.533  -2.807
 7362CHOL   ROH88249  14.949  22.952  -1.330
 7362CHOL    R188250  14.902  22.836  -1.231
 7362CHOL    R288251  14.958  22.613  -1.272
 7362CHOL    R388252  14.849  22.705  -1.119
 7362CHOL    R488253  14.916  22.511  -1.185
 7362CHOL    R588254  14.802  22.589  -1.020
 7362CHOL    C188255  14.731  22.414  -0.871
 7362CHOL    C288256  14.660  22.240  -0.722
 7363CHOL   ROH88257   0.089  24.578   7.318
 7363CHOL    R188258   0.177  24.446   7.341
 7363CHOL    R288259   0.410  24.457   7.341
 7363CHOL    R388260   0.277  24.299   7.366
 7363CHOL    R488261   0.488  24.342   7.360
 7363CHOL    R588262   0.365  24.167   7.389
 7363CHOL    C188263   0.497  23.970   7.423
 7363CHOL    C288264   0.630  23.772   7.457
 7364CHOL   ROH88265  10.776   7.146  27.559
 7364CHOL    R188266  10.769   7.172  27.401
 7364CHOL    R288267  10.821   7.003  27.249
 7364CHOL    R388268  10.762   7.202  27.224
 7364CHOL    R488269  10.816   7.026  27.111
 7364CHOL    R588270  10.755   7.228  27.066
 7364CHOL    C188271  10.745   7.267  26.829
 7364CHOL    C288272  10.735   7.307  26.593
 7365CHOL   ROH88273  18.150  -3.716  17.910
 7365CHOL    R188274  18.075  -3.594  17.839
 7365CHOL    R288275  18.156  -3.500  17.642
 7365CHOL    R388276  17.990  -3.456  17.760
 7365CHOL    R488277  18.090  -3.393  17.580
 7365CHOL    R588278  17.914  -3.334  17.689
 7365CHOL    C188279  17.801  -3.151  17.584
 7365CHOL    C288280  17.688  -2.967  17.478
 7366CHOL   ROH88281  -5.205  18.724  13.923
 7366CHOL    R188282  -5.071  18.644  13.888
 7366CHOL    R288283  -4.988  18.480  14.031
 7366CHOL    R388284  -4.920  18.555  13.849
 7366CHOL    R488285  -4.871  18.410  14.001
 7366CHOL    R588286  -4.785  18.475  13.814
 7366CHOL    C188287  -4.584  18.355  13.762
 7366CHOL    C288288  -4.383  18.236  13.709
 7367CHOL   ROH88289   1.089  15.087  -4.738
 7367CHOL    R188290   1.169  15.043  -4.607
 7367CHOL    R288291   1.072  15.060  -4.395
 7367CHOL    R388292   1.259  14.993  -4.459
 7367CHOL    R488293   1.142  15.021  -4.280
 7367CHOL    R588294   1.339  14.949  -4.327
 7367CHOL    C188295   1.459  14.883  -4.130
 7367CHOL    C288296   1.579  14.817  -3.933
 7368CHOL   ROH88297   9.528  25.305  19.167
 7368CHOL    R188298   9.532  25.168  19.085
 7368CHOL    R288299   9.734  25.059  19.042
 7368CHOL    R388300   9.537  25.014  18.992
 7368CHOL    R488301   9.738  24.939  18.970
 7368CHOL    R588302   9.541  24.876  18.910
 7368CHOL    C188303   9.547  24.671  18.786
 7368CHOL    C288304   9.553  24.465  18.662
 7369CHOL   ROH88305  17.293   1.165  23.579
 7369CHOL    R188306  17.224   1.244  23.458
 7369CHOL    R288307  17.269   1.187  23.237
 7369CHOL    R388308  17.146   1.333  23.322
 7369CHOL    R488309  17.208   1.256  23.131
 7369CHOL    R588310  17.078   1.412  23.201
 7369CHOL    C188311  16.974   1.531  23.020
 7369CHOL    C288312  16.871   1.649  22.839
 7370CHOL   ROH88313  15.493  26.826   8.391
 7370CHOL    R188314  15.438  26.676   8.404
 7370CHOL    R288315  15.529  26.504   8.276
 7370CHOL    R388316  15.377  26.508   8.420
 7370CHOL    R488317  15.481  26.373   8.288
 7370CHOL    R588318  15.322  26.358   8.433
 7370CHOL    C188319  15.241  26.133   8.453
 7370CHOL    C288320  15.159  25.909   8.473
 7371CHOL   ROH88321  11.351  22.423  22.640
 7371CHOL    R188322  11.334  22.311  22.527
 7371CHOL    R288323  11.343  22.084  22.581
 7371CHOL    R388324  11.314  22.185  22.400
 7371CHOL    R488325  11.328  21.986  22.482
 7371CHOL    R588326  11.297  22.073  22.287
 7371CHOL    C188327  11.270  21.905  22.118
 7371CHOL    C288328  11.244  21.737  21.948
 7372CHOL   ROH88329   1.044  -3.034  18.409
 7372CHOL    R188330   1.123  -2.917  18.333
 7372CHOL    R288331   1.244  -2.758  18.452
 7372CHOL    R388332   1.211  -2.785  18.248
 7372CHOL    R488333   1.313  -2.656  18.386
 7372CHOL    R588334   1.290  -2.668  18.172
 7372CHOL    C188335   1.407  -2.493  18.059
 7372CHOL    C288336   1.525  -2.318  17.945
 7373CHOL   ROH88337   2.806  24.825   2.999
 7373CHOL    R188338   2.874  24.694   3.061
 7373CHOL    R288339   3.019  24.709   3.243
 7373CHOL    R388340   2.951  24.547   3.131
 7373CHOL    R488341   3.079  24.595   3.297
 7373CHOL    R588342   3.019  24.416   3.193
 7373CHOL    C188343   3.121  24.220   3.285
 7373CHOL    C288344   3.223  24.023   3.378
 7374CHOL   ROH88345  26.034  13.902   3.382
 7374CHOL    R188346  25.890  13.867   3.443
 7374CHOL    R288347  25.696  13.963   3.355
 7374CHOL    R388348  25.729  13.828   3.512
 7374CHOL    R488349  25.571  13.932   3.409
 7374CHOL    R588350  25.585  13.793   3.573
 7374CHOL    C188351  25.369  13.741   3.665
 7374CHOL    C288352  25.154  13.689   3.756
 7375CHOL   ROH88353  21.300  18.541  -0.808
 7375CHOL    R188354  21.198  18.461  -0.713
 7375CHOL    R288355  21.268  18.275  -0.592
 7375CHOL    R388356  21.084  18.372  -0.607
 7375CHOL    R488357  21.179  18.205  -0.509
 7375CHOL    R588358  20.982  18.292  -0.512
 7375CHOL    C188359  20.830  18.172  -0.371
 7375CHOL    C288360  20.678  18.053  -0.229
 7376CHOL   ROH88361  18.082  25.607   7.736
 7376CHOL    R188362  18.009  25.466   7.753
 7376CHOL    R288363  18.116  25.267   7.696
 7376CHOL    R388364  17.926  25.307   7.772
 7376CHOL    R488365  18.052  25.143   7.711
 7376CHOL    R588366  17.852  25.166   7.790
 7376CHOL    C188367  17.742  24.954   7.815
 7376CHOL    C288368  17.632  24.743   7.841
 7377CHOL   ROH88369  26.735  15.353   7.718
 7377CHOL    R188370  26.585  15.300   7.737
 7377CHOL    R288371  26.453  15.245   7.553
 7377CHOL    R388372  26.417  15.240   7.759
 7377CHOL    R488373  26.322  15.198   7.570
 7377CHOL    R588374  26.267  15.188   7.778
 7377CHOL    C188375  26.042  15.108   7.808
 7377CHOL    C288376  25.818  15.029   7.837
 7378CHOL   ROH88377   3.567  25.482   3.640
 7378CHOL    R188378   3.628  25.346   3.698
 7378CHOL    R288379   3.770  25.347   3.883
 7378CHOL    R388380   3.698  25.193   3.762
 7378CHOL    R488381   3.823  25.228   3.934
 7378CHOL    R588382   3.759  25.057   3.820
 7378CHOL    C188383   3.851  24.853   3.906
 7378CHOL    C288384   3.943  24.649   3.993
 7379CHOL   ROH88385  -5.461  17.592   4.977
 7379CHOL    R188386  -5.322  17.528   5.024
 7379CHOL    R288387  -5.165  17.654   5.141
 7379CHOL    R388388  -5.166  17.455   5.077
 7379CHOL    R488389  -5.043  17.597   5.182
 7379CHOL    R588390  -5.028  17.391   5.124
 7379CHOL    C188391  -4.819  17.294   5.195
 7379CHOL    C288392  -4.611  17.197   5.265
 7380CHOL   ROH88393   2.302   4.806  25.260
 7380CHOL    R188394   2.373   4.852  25.124
 7380CHOL    R288395   2.528   4.715  25.017
 7380CHOL    R388396   2.452   4.904  24.971
 7380CHOL    R488397   2.590   4.755  24.898
 7380CHOL    R588398   2.523   4.950  24.835
 7380CHOL    C188399   2.629   5.020  24.632
 7380CHOL    C288400   2.735   5.089  24.428
 7381CHOL   ROH88401  10.104  26.574   3.261
 7381CHOL    R188402  10.099  26.425   3.320
 7381CHOL    R288403  10.191  26.376   3.528
 7381CHOL    R388404  10.093  26.258   3.386
 7381CHOL    R488405  10.186  26.246   3.580
 7381CHOL    R588406  10.087  26.110   3.445
 7381CHOL    C188407  10.080  25.887   3.533
 7381CHOL    C288408  10.072  25.664   3.622
 7382CHOL   ROH88409   2.093  17.137  -4.463
 7382CHOL    R188410   2.163  17.073  -4.334
 7382CHOL    R288411   2.191  17.198  -4.139
 7382CHOL    R388412   2.242  17.002  -4.189
 7382CHOL    R488413   2.252  17.143  -4.026
 7382CHOL    R588414   2.311  16.938  -4.060
 7382CHOL    C188415   2.416  16.843  -3.866
 7382CHOL    C288416   2.521  16.748  -3.672
 7383CHOL   ROH88417  26.775   4.328   8.886
 7383CHOL    R188418  26.624   4.379   8.896
 7383CHOL    R288419  26.477   4.352   8.716
 7383CHOL    R388420  26.453   4.436   8.906
 7383CHOL    R488421  26.344   4.397   8.725
 7383CHOL    R588422  26.302   4.487   8.916
 7383CHOL    C188423  26.075   4.563   8.930
 7383CHOL    C288424  25.848   4.640   8.945
 7384CHOL   ROH88425  21.302   2.624  -1.535
 7384CHOL    R188426  21.199   2.691  -1.432
 7384CHOL    R288427  21.262   2.875  -1.303
 7384CHOL    R388428  21.084   2.766  -1.316
 7384CHOL    R488429  21.172   2.933  -1.213
 7384CHOL    R588430  20.981   2.833  -1.214
 7384CHOL    C188431  20.828   2.933  -1.059
 7384CHOL    C288432  20.674   3.034  -0.905
 7385CHOL   ROH88433  23.272  13.909  -1.163
 7385CHOL    R188434  23.151  13.878  -1.063
 7385CHOL    R288435  22.936  13.956  -1.108
 7385CHOL    R388436  23.014  13.843  -0.952
 7385CHOL    R488437  22.829  13.929  -1.021
 7385CHOL    R588438  22.893  13.812  -0.852
 7385CHOL    C188439  22.711  13.765  -0.703
 7385CHOL    C288440  22.529  13.718  -0.553
 7386CHOL   ROH88441  18.126  -4.559  16.209
 7386CHOL    R188442  18.051  -4.428  16.155
 7386CHOL    R288443  17.982  -4.412  15.933
 7386CHOL    R388444  17.967  -4.281  16.095
 7386CHOL    R488445  17.916  -4.298  15.887
 7386CHOL    R588446  17.892  -4.150  16.042
 7386CHOL    C188447  17.780  -3.954  15.961
 7386CHOL    C288448  17.667  -3.758  15.881
 7387CHOL   ROH88449  26.810   9.951   4.383
 7387CHOL    R188450  26.657   9.952   4.430
 7387CHOL    R288451  26.510   9.784   4.363
 7387CHOL    R388452  26.485   9.952   4.484
 7387CHOL    R488453  26.377   9.784   4.405
 7387CHOL    R588454  26.333   9.953   4.531
 7387CHOL    C188455  26.103   9.954   4.602
 7387CHOL    C288456  25.874   9.955   4.673
 7388CHOL   ROH88457  12.785  26.816   4.928
 7388CHOL    R188458  12.755  26.666   4.975
 7388CHOL    R288459  12.910  26.547   5.103
 7388CHOL    R388460  12.722  26.497   5.027
 7388CHOL    R488461  12.884  26.416   5.144
 7388CHOL    R588462  12.692  26.347   5.074
 7388CHOL    C188463  12.647  26.122   5.144
 7388CHOL    C288464  12.603  25.897   5.214
 7389CHOL   ROH88465  -5.773   2.436   5.958
 7389CHOL    R188466  -5.631   2.503   5.991
 7389CHOL    R288467  -5.481   2.399   6.135
 7389CHOL    R388468  -5.472   2.578   6.028
 7389CHOL    R488469  -5.357   2.457   6.164
 7389CHOL    R588470  -5.330   2.645   6.062
 7389CHOL    C188471  -5.118   2.745   6.111
 7389CHOL    C288472  -4.906   2.845   6.161
 7390CHOL   ROH88473  18.422  -3.482   1.948
 7390CHOL    R188474  18.347  -3.360   2.018
 7390CHOL    R288475  18.441  -3.250   2.201
 7390CHOL    R388476  18.262  -3.222   2.098
 7390CHOL    R488477  18.375  -3.143   2.263
 7390CHOL    R588478  18.187  -3.100   2.168
 7390CHOL    C188479  18.073  -2.917   2.274
 7390CHOL    C288480  17.960  -2.733   2.379
 7391CHOL   ROH88481   1.098  20.750  21.186
 7391CHOL    R188482   1.176  20.655  21.084
 7391CHOL    R288483   1.329  20.496  21.161
 7391CHOL    R388484   1.265  20.548  20.969
 7391CHOL    R488485   1.397  20.413  21.071
 7391CHOL    R588486   1.343  20.453  20.867
 7391CHOL    C188487   1.461  20.310  20.714
 7391CHOL    C288488   1.578  20.168  20.561
 7392CHOL   ROH88489  16.985   4.022  -5.295
 7392CHOL    R188490  16.920   4.071  -5.157
 7392CHOL    R288491  16.996   4.265  -5.051
 7392CHOL    R388492  16.847   4.127  -5.003
 7392CHOL    R488493  16.939   4.308  -4.931
 7392CHOL    R588494  16.782   4.177  -4.865
 7392CHOL    C188495  16.684   4.251  -4.659
 7392CHOL    C288496  16.586   4.325  -4.452
 7393CHOL   ROH88497  12.847  -0.712  -4.017
 7393CHOL    R188498  12.821  -0.617  -3.891
 7393CHOL    R288499  12.950  -0.425  -3.857
 7393CHOL    R388500  12.792  -0.509  -3.750
 7393CHOL    R488501  12.927  -0.342  -3.747
 7393CHOL    R588502  12.766  -0.414  -3.624
 7393CHOL    C188503  12.726  -0.271  -3.435
 7393CHOL    C288504  12.687  -0.128  -3.247
 7394CHOL   ROH88505   1.190  -1.911  -0.069
 7394CHOL    R188506   1.266  -1.806   0.025
 7394CHOL    R288507   1.490  -1.838   0.084
 7394CHOL    R388508   1.352  -1.689   0.131
 7394CHOL    R488509   1.556  -1.747   0.167
 7394CHOL    R588510   1.428  -1.584   0.226
 7394CHOL    C188511   1.542  -1.427   0.367
 7394CHOL    C288512   1.656  -1.270   0.508
 7395CHOL   ROH88513  13.537  25.185   1.368
 7395CHOL    R188514  13.504  25.047   1.442
 7395CHOL    R288515  13.654  24.868   1.435
 7395CHOL    R388516  13.467  24.891   1.525
 7395CHOL    R488517  13.626  24.747   1.499
 7395CHOL    R588518  13.434  24.753   1.598
 7395CHOL    C188519  13.385  24.546   1.709
 7395CHOL    C288520  13.336  24.338   1.820
 7396CHOL   ROH88521  -2.562  16.617  -1.118
 7396CHOL    R188522  -2.452  16.556  -1.019
 7396CHOL    R288523  -2.244  16.657  -0.994
 7396CHOL    R388524  -2.329  16.487  -0.907
 7396CHOL    R488525  -2.147  16.604  -0.907
 7396CHOL    R588526  -2.219  16.427  -0.808
 7396CHOL    C188527  -2.054  16.335  -0.659
 7396CHOL    C288528  -1.890  16.244  -0.510
 7397CHOL   ROH88529  14.693  17.923  25.141
 7397CHOL    R188530  14.652  17.853  25.003
 7397CHOL    R288531  14.713  17.632  24.959
 7397CHOL    R388532  14.606  17.773  24.849
 7397CHOL    R488533  14.677  17.570  24.838
 7397CHOL    R588534  14.564  17.703  24.711
 7397CHOL    C188535  14.503  17.597  24.505
 7397CHOL    C288536  14.441  17.492  24.298
 7398CHOL   ROH88537  20.389  23.671   5.149
 7398CHOL    R188538  20.295  23.549   5.191
 7398CHOL    R288539  20.347  23.413   5.374
 7398CHOL    R388540  20.188  23.411   5.238
 7398CHOL    R488541  20.265  23.307   5.410
 7398CHOL    R588542  20.094  23.289   5.280
 7398CHOL    C188543  19.952  23.106   5.343
 7398CHOL    C288544  19.811  22.922   5.406
 7399CHOL   ROH88545   2.888  25.650   4.972
 7399CHOL    R188546   2.958  25.513   5.016
 7399CHOL    R288547   3.189  25.500   5.043
 7399CHOL    R388548   3.037  25.359   5.066
 7399CHOL    R488549   3.251  25.380   5.082
 7399CHOL    R588550   3.107  25.222   5.110
 7399CHOL    C188551   3.212  25.017   5.176
 7399CHOL    C288552   3.317  24.811   5.242
 7400CHOL   ROH88553   2.508   1.759  -4.081
 7400CHOL    R188554   2.577   1.836  -3.959
 7400CHOL    R288555   2.553   1.760  -3.740
 7400CHOL    R388556   2.655   1.923  -3.822
 7400CHOL    R488557   2.614   1.827  -3.633
 7400CHOL    R588558   2.724   2.000  -3.699
 7400CHOL    C188559   2.828   2.115  -3.516
 7400CHOL    C288560   2.932   2.230  -3.333
 7401CHOL   ROH88561  23.247   4.270  -0.411
 7401CHOL    R188562  23.130   4.325  -0.316
 7401CHOL    R288563  22.962   4.462  -0.401
 7401CHOL    R388564  22.999   4.387  -0.210
 7401CHOL    R488565  22.860   4.511  -0.319
 7401CHOL    R588566  22.882   4.443  -0.116
 7401CHOL    C188567  22.708   4.525   0.026
 7401CHOL    C288568  22.533   4.608   0.168
 7402CHOL   ROH88569  12.503  27.634  10.067
 7402CHOL    R188570  12.481  27.475  10.065
 7402CHOL    R288571  12.545  27.344  10.247
 7402CHOL    R388572  12.457  27.297  10.063
 7402CHOL    R488573  12.526  27.205  10.245
 7402CHOL    R588574  12.435  27.139  10.062
 7402CHOL    C188575  12.402  26.901  10.059
 7402CHOL    C288576  12.370  26.663  10.056
 7403CHOL   ROH88577  -6.809  16.411   9.311
 7403CHOL    R188578  -6.660  16.354   9.316
 7403CHOL    R288579  -6.476  16.498   9.307
 7403CHOL    R388580  -6.491  16.290   9.321
 7403CHOL    R488581  -6.345  16.448   9.311
 7403CHOL    R588582  -6.342  16.233   9.325
 7403CHOL    C188583  -6.118  16.148   9.332
 7403CHOL    C288584  -5.894  16.062   9.339
 7404CHOL   ROH88585   2.943  -3.915   1.052
 7404CHOL    R188586   3.006  -3.793   1.134
 7404CHOL    R288587   3.231  -3.736   1.110
 7404CHOL    R388588   3.077  -3.656   1.226
 7404CHOL    R488589   3.287  -3.630   1.182
 7404CHOL    R588590   3.140  -3.534   1.307
 7404CHOL    C188591   3.235  -3.350   1.430
 7404CHOL    C288592   3.330  -3.167   1.553
 7405CHOL   ROH88593   4.039   7.419  26.650
 7405CHOL    R188594   4.088   7.443  26.499
 7405CHOL    R288595   4.309   7.402  26.437
 7405CHOL    R388596   4.143   7.469  26.330
 7405CHOL    R488597   4.351   7.422  26.306
 7405CHOL    R588598   4.191   7.492  26.179
 7405CHOL    C188599   4.265   7.528  25.954
 7405CHOL    C288600   4.338   7.563  25.728
 7406CHOL   ROH88601  14.243  24.513  19.298
 7406CHOL    R188602  14.205  24.384  19.212
 7406CHOL    R288603  14.322  24.183  19.238
 7406CHOL    R388604  14.162  24.238  19.115
 7406CHOL    R488605  14.288  24.070  19.163
 7406CHOL    R588606  14.124  24.108  19.028
 7406CHOL    C188607  14.068  23.914  18.899
 7406CHOL    C288608  14.011  23.720  18.770
 7407CHOL   ROH88609  26.725   8.213   4.373
 7407CHOL    R188610  26.573   8.228   4.419
 7407CHOL    R288611  26.412   8.072   4.354
 7407CHOL    R388612  26.401   8.244   4.471
 7407CHOL    R488613  26.278   8.085   4.394
 7407CHOL    R588614  26.249   8.259   4.518
 7407CHOL    C188615  26.020   8.280   4.587
 7407CHOL    C288616  25.791   8.302   4.656
 7408CHOL   ROH88617   2.664  16.544  -5.031
 7408CHOL    R188618   2.729  16.485  -4.897
 7408CHOL    R288619   2.724  16.606  -4.698
 7408CHOL    R388620   2.801  16.419  -4.746
 7408CHOL    R488621   2.780  16.555  -4.581
 7408CHOL    R588622   2.866  16.359  -4.613
 7408CHOL    C188623   2.963  16.271  -4.412
 7408CHOL    C288624   3.060  16.182  -4.211
 7409CHOL   ROH88625  17.873  24.701  16.032
 7409CHOL    R188626  17.799  24.571  15.975
 7409CHOL    R288627  17.797  24.526  15.746
 7409CHOL    R388628  17.716  24.425  15.910
 7409CHOL    R488629  17.733  24.412  15.696
 7409CHOL    R588630  17.642  24.296  15.853
 7409CHOL    C188631  17.531  24.101  15.766
 7409CHOL    C288632  17.420  23.906  15.680
 7410CHOL   ROH88633  24.407  20.203   8.670
 7410CHOL    R188634  24.275  20.113   8.684
 7410CHOL    R288635  24.287  19.881   8.676
 7410CHOL    R388636  24.127  20.012   8.701
 7410CHOL    R488637  24.172  19.802   8.688
 7410CHOL    R588638  23.996  19.923   8.715
 7410CHOL    C188639  23.798  19.788   8.737
 7410CHOL    C288640  23.600  19.653   8.758
 7411CHOL   ROH88641  22.407  18.775  19.128
 7411CHOL    R188642  22.296  18.695  19.045
 7411CHOL    R288643  22.355  18.515  18.908
 7411CHOL    R388644  22.172  18.605  18.951
 7411CHOL    R488645  22.259  18.445  18.836
 7411CHOL    R588646  22.061  18.524  18.868
 7411CHOL    C188647  21.895  18.404  18.743
 7411CHOL    C288648  21.729  18.284  18.618
 7412CHOL   ROH88649   6.315   6.664  27.095
 7412CHOL    R188650   6.346   6.696  26.941
 7412CHOL    R288651   6.565   6.691  26.859
 7412CHOL    R388652   6.381   6.732  26.768
 7412CHOL    R488653   6.592   6.719  26.725
 7412CHOL    R588654   6.412   6.763  26.615
 7412CHOL    C188655   6.459   6.811  26.384
 7412CHOL    C288656   6.505   6.859  26.153
 7413CHOL   ROH88657  26.579   6.006  14.807
 7413CHOL    R188658  26.430   6.043  14.764
 7413CHOL    R288659  26.358   6.265  14.759
 7413CHOL    R388660  26.261   6.085  14.715
 7413CHOL    R488661  26.227   6.298  14.721
 7413CHOL    R588662  26.112   6.123  14.672
 7413CHOL    C188663  25.888   6.178  14.607
 7413CHOL    C288664  25.664   6.234  14.542
 7414CHOL   ROH88665   8.852   7.866  27.624
 7414CHOL    R188666   8.863   7.884  27.465
 7414CHOL    R288667   8.976   8.066  27.373
 7414CHOL    R388668   8.876   7.904  27.287
 7414CHOL    R488669   8.986   8.081  27.234
 7414CHOL    R588670   8.888   7.922  27.129
 7414CHOL    C188671   8.905   7.948  26.891
 7414CHOL    C288672   8.922   7.975  26.653
 7415CHOL   ROH88673   8.565  27.706  11.700
 7415CHOL    R188674   8.573  27.547  11.686
 7415CHOL    R288675   8.759  27.444  11.591
 7415CHOL    R388676   8.581  27.368  11.669
 7415CHOL    R488677   8.766  27.304  11.578
 7415CHOL    R588678   8.588  27.208  11.655
 7415CHOL    C188679   8.600  26.970  11.633
 7415CHOL    C288680   8.611  26.731  11.612
 7416CHOL   ROH88681   0.307  18.575  22.272
 7416CHOL    R188682   0.394  18.501  22.160
 7416CHOL    R288683   0.626  18.525  22.154
 7416CHOL    R388684   0.492  18.417  22.035
 7416CHOL    R488685   0.703  18.460  22.056
 7416CHOL    R588686   0.580  18.343  21.923
 7416CHOL    C188687   0.710  18.232  21.755
 7416CHOL    C288688   0.841  18.120  21.588
 7417CHOL   ROH88689  -6.469   3.005   8.639
 7417CHOL    R188690  -6.322   3.067   8.653
 7417CHOL    R288691  -6.153   2.950   8.764
 7417CHOL    R388692  -6.157   3.136   8.669
 7417CHOL    R488693  -6.024   3.004   8.776
 7417CHOL    R588694  -6.009   3.198   8.684
 7417CHOL    C188695  -5.789   3.290   8.705
 7417CHOL    C288696  -5.568   3.382   8.726
 7418CHOL   ROH88697  13.427   6.262  -7.187
 7418CHOL    R188698  13.395   6.297  -7.034
 7418CHOL    R288699  13.308   6.505  -6.974
 7418CHOL    R388700  13.359   6.336  -6.862
 7418CHOL    R488701  13.280   6.536  -6.841
 7418CHOL    R588702  13.326   6.371  -6.710
 7418CHOL    C188703  13.278   6.424  -6.480
 7418CHOL    C288704  13.230   6.477  -6.251
 7419CHOL   ROH88705  21.389  20.629   1.535
 7419CHOL    R188706  21.288  20.531   1.611
 7419CHOL    R288707  21.133  20.404   1.494
 7419CHOL    R388708  21.174  20.422   1.698
 7419CHOL    R488709  21.044  20.318   1.561
 7419CHOL    R588710  21.074  20.324   1.774
 7419CHOL    C188711  20.922  20.178   1.889
 7419CHOL    C288712  20.771  20.031   2.003
 7420CHOL   ROH88713  19.513   4.099  23.727
 7420CHOL    R188714  19.424   4.153  23.606
 7420CHOL    R288715  19.442   4.374  23.533
 7420CHOL    R388716  19.324   4.215  23.470
 7420CHOL    R488717  19.364   4.422  23.427
 7420CHOL    R588718  19.235   4.269  23.348
 7420CHOL    C188719  19.101   4.351  23.167
 7420CHOL    C288720  18.967   4.432  22.985
 7421CHOL   ROH88721   6.153   0.220  24.442
 7421CHOL    R188722   6.184   0.305  24.310
 7421CHOL    R288723   6.383   0.275  24.191
 7421CHOL    R388724   6.218   0.400  24.161
 7421CHOL    R488725   6.409   0.349  24.076
 7421CHOL    R588726   6.249   0.484  24.029
 7421CHOL    C188727   6.295   0.611  23.830
 7421CHOL    C288728   6.341   0.738  23.632
 7422CHOL   ROH88729  -3.322  18.516   1.430
 7422CHOL    R188730  -3.202  18.442   1.505
 7422CHOL    R288731  -3.145  18.496   1.725
 7422CHOL    R388732  -3.066  18.358   1.589
 7422CHOL    R488733  -3.040  18.431   1.790
 7422CHOL    R588734  -2.946  18.284   1.664
 7422CHOL    C188735  -2.765  18.173   1.776
 7422CHOL    C288736  -2.584  18.061   1.888
 7423CHOL   ROH88737  -6.800   5.072  13.927
 7423CHOL    R188738  -6.650   5.117  13.893
 7423CHOL    R288739  -6.511   5.206  14.058
 7423CHOL    R388740  -6.481   5.167  13.855
 7423CHOL    R488741  -6.380   5.245  14.029
 7423CHOL    R588742  -6.331   5.212  13.821
 7423CHOL    C188743  -6.107   5.279  13.771
 7423CHOL    C288744  -5.882   5.346  13.720
 7424CHOL   ROH88745  -2.728   4.617  21.358
 7424CHOL    R188746  -2.620   4.669  21.251
 7424CHOL    R288747  -2.491   4.858  21.294
 7424CHOL    R388748  -2.500   4.727  21.132
 7424CHOL    R488749  -2.397   4.903  21.200
 7424CHOL    R588750  -2.392   4.779  21.025
 7424CHOL    C188751  -2.231   4.856  20.865
 7424CHOL    C288752  -2.069   4.934  20.705
 7425CHOL   ROH88753   9.776  -7.016   4.399
 7425CHOL    R188754   9.782  -6.864   4.450
 7425CHOL    R288755   9.986  -6.754   4.473
 7425CHOL    R388756   9.789  -6.694   4.507
 7425CHOL    R488757   9.992  -6.621   4.517
 7425CHOL    R588758   9.795  -6.542   4.557
 7425CHOL    C188759   9.805  -6.314   4.634
 7425CHOL    C288760   9.814  -6.087   4.710
 7426CHOL   ROH88761  -3.441  16.959  19.639
 7426CHOL    R188762  -3.324  16.895  19.550
 7426CHOL    R288763  -3.142  17.022  19.481
 7426CHOL    R388764  -3.193  16.822  19.451
 7426CHOL    R488765  -3.040  16.966  19.404
 7426CHOL    R588766  -3.076  16.758  19.362
 7426CHOL    C188767  -2.902  16.662  19.229
 7426CHOL    C288768  -2.727  16.565  19.096
 7427CHOL   ROH88769  16.142  -3.673   0.299
 7427CHOL    R188770  16.087  -3.552   0.387
 7427CHOL    R288771  16.216  -3.361   0.423
 7427CHOL    R388772  16.025  -3.415   0.487
 7427CHOL    R488773  16.168  -3.254   0.500
 7427CHOL    R588774  15.971  -3.293   0.575
 7427CHOL    C188775  15.888  -3.111   0.708
 7427CHOL    C288776  15.806  -2.929   0.841
 7428CHOL   ROH88777  13.818  22.942  21.518
 7428CHOL    R188778  13.785  22.824  21.416
 7428CHOL    R288779  13.766  22.865  21.187
 7428CHOL    R388780  13.747  22.691  21.300
 7428CHOL    R488781  13.737  22.761  21.097
 7428CHOL    R588782  13.713  22.572  21.198
 7428CHOL    C188783  13.663  22.395  21.044
 7428CHOL    C288784  13.613  22.218  20.891
 7429CHOL   ROH88785  21.069  -2.782   4.399
 7429CHOL    R188786  20.969  -2.667   4.447
 7429CHOL    R288787  20.823  -2.564   4.297
 7429CHOL    R388788  20.857  -2.537   4.502
 7429CHOL    R488789  20.736  -2.463   4.339
 7429CHOL    R588790  20.757  -2.422   4.550
 7429CHOL    C188791  20.607  -2.249   4.622
 7429CHOL    C288792  20.457  -2.076   4.695
 7430CHOL   ROH88793  -3.869  -0.614  14.191
 7430CHOL    R188794  -3.745  -0.522  14.151
 7430CHOL    R288795  -3.574  -0.478  14.304
 7430CHOL    R388796  -3.604  -0.417  14.107
 7430CHOL    R488797  -3.465  -0.397  14.269
 7430CHOL    R588798  -3.480  -0.325  14.067
 7430CHOL    C188799  -3.293  -0.186  14.007
 7430CHOL    C288800  -3.107  -0.048  13.948
 7431CHOL   ROH88801  16.257  19.537  23.610
 7431CHOL    R188802  16.200  19.453  23.486
 7431CHOL    R288803  16.251  19.226  23.462
 7431CHOL    R388804  16.136  19.358  23.348
 7431CHOL    R488805  16.201  19.153  23.354
 7431CHOL    R588806  16.079  19.274  23.224
 7431CHOL    C188807  15.994  19.147  23.039
 7431CHOL    C288808  15.908  19.021  22.853
 7432CHOL   ROH88809  19.108  25.122   8.654
 7432CHOL    R188810  19.027  24.984   8.663
 7432CHOL    R288811  19.134  24.780   8.631
 7432CHOL    R388812  18.936  24.830   8.673
 7432CHOL    R488813  19.063  24.659   8.639
 7432CHOL    R588814  18.855  24.692   8.683
 7432CHOL    C188815  18.734  24.486   8.696
 7432CHOL    C288816  18.612  24.279   8.710
 7433CHOL   ROH88817  -7.643   6.522   8.803
 7433CHOL    R188818  -7.487   6.559   8.810
 7433CHOL    R288819  -7.395   6.652   9.004
 7433CHOL    R388820  -7.313   6.601   8.819
 7433CHOL    R488821  -7.259   6.684   9.010
 7433CHOL    R588822  -7.157   6.639   8.826
 7433CHOL    C188823  -6.924   6.694   8.837
 7433CHOL    C288824  -6.690   6.750   8.848
 7434CHOL   ROH88825   1.236   9.026  25.622
 7434CHOL    R188826   1.311   9.033  25.481
 7434CHOL    R288827   1.497   8.899  25.437
 7434CHOL    R388828   1.395   9.040  25.322
 7434CHOL    R488829   1.563   8.905  25.314
 7434CHOL    R588830   1.470   9.047  25.180
 7434CHOL    C188831   1.582   9.057  24.969
 7434CHOL    C288832   1.695   9.067  24.757
 7435CHOL   ROH88833   4.604  25.332  17.396
 7435CHOL    R188834   4.650  25.193  17.332
 7435CHOL    R288835   4.810  25.059  17.436
 7435CHOL    R388836   4.702  25.037  17.259
 7435CHOL    R488837   4.850  24.937  17.380
 7435CHOL    R588838   4.748  24.897  17.194
 7435CHOL    C188839   4.817  24.689  17.098
 7435CHOL    C288840   4.886  24.480  17.001
 7436CHOL   ROH88841  13.138  -3.459  21.080
 7436CHOL    R188842  13.111  -3.340  20.976
 7436CHOL    R288843  13.241  -3.147  20.978
 7436CHOL    R388844  13.081  -3.207  20.859
 7436CHOL    R488845  13.218  -3.043  20.887
 7436CHOL    R588846  13.054  -3.088  20.755
 7436CHOL    C188847  13.013  -2.910  20.600
 7436CHOL    C288848  12.972  -2.732  20.444
 7437CHOL   ROH88849  21.835  17.937  -0.708
 7437CHOL    R188850  21.728  17.864  -0.614
 7437CHOL    R288851  21.792  17.687  -0.475
 7437CHOL    R388852  21.608  17.781  -0.508
 7437CHOL    R488853  21.699  17.623  -0.393
 7437CHOL    R588854  21.502  17.708  -0.414
 7437CHOL    C188855  21.341  17.597  -0.274
 7437CHOL    C288856  21.181  17.487  -0.133
 7438CHOL   ROH88857  23.830  15.799  19.504
 7438CHOL    R188858  23.706  15.749  19.416
 7438CHOL    R288859  23.620  15.881  19.244
 7438CHOL    R388860  23.567  15.692  19.317
 7438CHOL    R488861  23.512  15.837  19.167
 7438CHOL    R588862  23.443  15.642  19.229
 7438CHOL    C188863  23.258  15.567  19.096
 7438CHOL    C288864  23.072  15.491  18.964
 7439CHOL   ROH88865   0.740   5.241  -4.696
 7439CHOL    R188866   0.824   5.285  -4.568
 7439CHOL    R288867   1.034   5.193  -4.525
 7439CHOL    R388868   0.920   5.335  -4.423
 7439CHOL    R488869   1.108   5.232  -4.412
 7439CHOL    R588870   1.004   5.379  -4.294
 7439CHOL    C188871   1.131   5.445  -4.102
 7439CHOL    C288872   1.257   5.511  -3.909
 7440CHOL   ROH88873  -5.987  11.254  18.108
 7440CHOL    R188874  -5.846  11.244  18.033
 7440CHOL    R288875  -5.698  11.069  18.078
 7440CHOL    R388876  -5.688  11.232  17.948
 7440CHOL    R488877  -5.575  11.061  18.012
 7440CHOL    R588878  -5.547  11.222  17.872
 7440CHOL    C188879  -5.336  11.207  17.759
 7440CHOL    C288880  -5.125  11.191  17.646
 7441CHOL   ROH88881  18.906  -4.974  13.471
 7441CHOL    R188882  18.825  -4.840  13.440
 7441CHOL    R288883  18.840  -4.736  13.231
 7441CHOL    R388884  18.734  -4.689  13.404
 7441CHOL    R488885  18.769  -4.619  13.204
 7441CHOL    R588886  18.653  -4.555  13.373
 7441CHOL    C188887  18.531  -4.353  13.326
 7441CHOL    C288888  18.409  -4.152  13.279
 7442CHOL   ROH88889  22.236  19.060   0.834
 7442CHOL    R188890  22.127  18.975   0.915
 7442CHOL    R288891  21.954  18.865   0.803
 7442CHOL    R388892  22.004  18.879   1.005
 7442CHOL    R488893  21.858  18.791   0.874
 7442CHOL    R588894  21.896  18.794   1.086
 7442CHOL    C188895  21.732  18.666   1.207
 7442CHOL    C288896  21.569  18.539   1.328
 7443CHOL   ROH88897  15.006  -5.965   3.807
 7443CHOL    R188898  14.954  -5.823   3.859
 7443CHOL    R288899  15.083  -5.631   3.830
 7443CHOL    R388900  14.897  -5.663   3.919
 7443CHOL    R488901  15.038  -5.506   3.876
 7443CHOL    R588902  14.845  -5.521   3.971
 7443CHOL    C188903  14.768  -5.308   4.050
 7443CHOL    C288904  14.690  -5.095   4.128
 7444CHOL   ROH88905  26.190  15.408  14.661
 7444CHOL    R188906  26.042  15.364  14.618
 7444CHOL    R288907  25.953  15.428  14.412
 7444CHOL    R388908  25.877  15.314  14.569
 7444CHOL    R488909  25.824  15.389  14.374
 7444CHOL    R588910  25.729  15.270  14.525
 7444CHOL    C188911  25.508  15.203  14.460
 7444CHOL    C288912  25.286  15.137  14.395
 7445CHOL   ROH88913  20.738  -0.849   0.827
 7445CHOL    R188914  20.640  -0.754   0.911
 7445CHOL    R288915  20.448  -0.664   0.813
 7445CHOL    R388916  20.530  -0.646   1.004
 7445CHOL    R488917  20.363  -0.580   0.886
 7445CHOL    R588918  20.433  -0.551   1.088
 7445CHOL    C188919  20.286  -0.408   1.213
 7445CHOL    C288920  20.139  -0.265   1.339
 7446CHOL   ROH88921   6.755  -3.409  21.341
 7446CHOL    R188922   6.784  -3.290  21.238
 7446CHOL    R288923   6.899  -3.098  21.305
 7446CHOL    R388924   6.817  -3.156  21.122
 7446CHOL    R488925   6.924  -2.994  21.215
 7446CHOL    R588926   6.846  -3.037  21.019
 7446CHOL    C188927   6.889  -2.858  20.865
 7446CHOL    C288928   6.932  -2.680  20.711
 7447CHOL   ROH88929   5.988   1.101  24.926
 7447CHOL    R188930   6.015   1.175  24.787
 7447CHOL    R288931   6.212   1.139  24.668
 7447CHOL    R388932   6.045   1.259  24.631
 7447CHOL    R488933   6.236   1.204  24.546
 7447CHOL    R588934   6.072   1.333  24.491
 7447CHOL    C188935   6.112   1.445  24.283
 7447CHOL    C288936   6.153   1.557  24.074
 7448CHOL   ROH88937   7.074  18.238  -5.678
 7448CHOL    R188938   7.099  18.167  -5.537
 7448CHOL    R288939   7.273  18.014  -5.509
 7448CHOL    R388940   7.128  18.087  -5.378
 7448CHOL    R488941   7.295  17.952  -5.386
 7448CHOL    R588942   7.154  18.016  -5.237
 7448CHOL    C188943   7.192  17.910  -5.025
 7448CHOL    C288944   7.230  17.804  -4.814
 7449CHOL   ROH88945   8.043  -5.904  17.895
 7449CHOL    R188946   8.060  -5.762  17.824
 7449CHOL    R288947   8.264  -5.697  17.733
 7449CHOL    R388948   8.079  -5.601  17.744
 7449CHOL    R488949   8.279  -5.572  17.671
 7449CHOL    R588950   8.096  -5.459  17.673
 7449CHOL    C188951   8.121  -5.245  17.567
 7449CHOL    C288952   8.147  -5.032  17.461
 7450CHOL   ROH88953  -5.598   9.352  18.850
 7450CHOL    R188954  -5.460   9.358  18.770
 7450CHOL    R288955  -5.306   9.183  18.782
 7450CHOL    R388956  -5.304   9.364  18.679
 7450CHOL    R488957  -5.185   9.188  18.712
 7450CHOL    R588958  -5.166   9.370  18.599
 7450CHOL    C188959  -4.959   9.379  18.478
 7450CHOL    C288960  -4.751   9.387  18.357
 7451CHOL   ROH88961  12.193  22.763  -2.324
 7451CHOL    R188962  12.178  22.650  -2.212
 7451CHOL    R288963  12.364  22.569  -2.096
 7451CHOL    R388964  12.160  22.522  -2.086
 7451CHOL    R488965  12.350  22.470  -1.998
 7451CHOL    R588966  12.145  22.408  -1.975
 7451CHOL    C188967  12.122  22.238  -1.807
 7451CHOL    C288968  12.099  22.068  -1.639
 7452CHOL   ROH88969  -3.104  10.306  22.158
 7452CHOL    R188970  -2.986  10.302  22.050
 7452CHOL    R288971  -2.834  10.478  22.032
 7452CHOL    R388972  -2.854  10.298  21.928
 7452CHOL    R488973  -2.731  10.475  21.937
 7452CHOL    R588974  -2.736  10.294  21.820
 7452CHOL    C188975  -2.559  10.288  21.658
 7452CHOL    C288976  -2.383  10.282  21.496
 7453CHOL   ROH88977  20.178  24.404  12.126
 7453CHOL    R188978  20.086  24.274  12.108
 7453CHOL    R288979  20.145  24.105  11.958
 7453CHOL    R388980  19.982  24.128  12.088
 7453CHOL    R488981  20.064  23.992  11.943
 7453CHOL    R588982  19.890  23.998  12.070
 7453CHOL    C188983  19.752  23.804  12.043
 7453CHOL    C288984  19.614  23.609  12.016
 7454CHOL   ROH88985   5.621  10.242  27.183
 7454CHOL    R188986   5.658  10.231  27.028
 7454CHOL    R288987   5.878  10.257  26.955
 7454CHOL    R388988   5.700  10.220  26.853
 7454CHOL    R488989   5.911  10.248  26.819
 7454CHOL    R588990   5.737  10.209  26.698
 7454CHOL    C188991   5.793  10.193  26.465
 7454CHOL    C288992   5.848  10.177  26.232
 7455CHOL   ROH88993   3.109  23.644  19.256
 7455CHOL    R188994   3.169  23.522  19.172
 7455CHOL    R288995   3.371  23.541  19.059
 7455CHOL    R388996   3.235  23.384  19.077
 7455CHOL    R488997   3.423  23.434  18.985
 7455CHOL    R588998   3.295  23.262  18.993
 7455CHOL    C188999   3.384  23.078  18.867
 7455CHOL    C289000   3.474  22.894  18.741
 7456CHOL   ROH89001   7.816  17.419  26.079
 7456CHOL    R189002   7.834  17.354  25.934
 7456CHOL    R289003   8.023  17.397  25.805
 7456CHOL    R389004   7.854  17.281  25.771
 7456CHOL    R489005   8.039  17.340  25.678
 7456CHOL    R589006   7.871  17.216  25.625
 7456CHOL    C189007   7.898  17.119  25.408
 7456CHOL    C289008   7.925  17.021  25.190
 7457CHOL   ROH89009  22.726   0.524  18.050
 7457CHOL    R189010  22.612   0.609  17.977
 7457CHOL    R289011  22.622   0.842  17.971
 7457CHOL    R389012  22.484   0.705  17.895
 7457CHOL    R489013  22.522   0.917  17.907
 7457CHOL    R589014  22.370   0.791  17.822
 7457CHOL    C189015  22.198   0.918  17.713
 7457CHOL    C289016  22.027   1.046  17.604
 7458CHOL   ROH89017   9.982  25.107  19.495
 7458CHOL    R189018   9.980  24.972  19.409
 7458CHOL    R289019  10.029  24.766  19.507
 7458CHOL    R389020   9.979  24.821  19.312
 7458CHOL    R489021  10.027  24.648  19.432
 7458CHOL    R589022   9.977  24.686  19.225
 7458CHOL    C189023   9.975  24.484  19.096
 7458CHOL    C289024   9.972  24.282  18.967
 7459CHOL   ROH89025  10.616  -5.032  19.581
 7459CHOL    R189026  10.608  -4.899  19.493
 7459CHOL    R289027  10.757  -4.863  19.317
 7459CHOL    R389028  10.600  -4.749  19.394
 7459CHOL    R489029  10.751  -4.746  19.240
 7459CHOL    R589030  10.593  -4.615  19.306
 7459CHOL    C189031  10.581  -4.416  19.173
 7459CHOL    C289032  10.570  -4.216  19.041
 7460CHOL   ROH89033   9.745  24.526  20.340
 7460CHOL    R189034   9.745  24.398  20.244
 7460CHOL    R289035   9.874  24.392  20.050
 7460CHOL    R389036   9.744  24.253  20.137
 7460CHOL    R489037   9.874  24.280  19.967
 7460CHOL    R589038   9.744  24.125  20.041
 7460CHOL    C189039   9.744  23.933  19.898
 7460CHOL    C289040   9.743  23.740  19.755
 7461CHOL   ROH89041  26.387   5.420   4.925
 7461CHOL    R189042  26.238   5.459   4.967
 7461CHOL    R289043  26.060   5.313   4.928
 7461CHOL    R389044  26.070   5.503   5.014
 7461CHOL    R489045  25.929   5.347   4.964
 7461CHOL    R589046  25.920   5.542   5.056
 7461CHOL    C189047  25.697   5.601   5.120
 7461CHOL    C289048  25.473   5.659   5.183
 7462CHOL   ROH89049  11.723   3.013  -6.387
 7462CHOL    R189050  11.708   3.074  -6.240
 7462CHOL    R289051  11.829   3.263  -6.175
 7462CHOL    R389052  11.691   3.143  -6.074
 7462CHOL    R489053  11.815   3.316  -6.046
 7462CHOL    R589054  11.676   3.203  -5.927
 7462CHOL    C189055  11.653   3.295  -5.706
 7462CHOL    C289056  11.630   3.386  -5.485
 7463CHOL   ROH89057  17.505  -1.802  20.932
 7463CHOL    R189058  17.434  -1.697  20.834
 7463CHOL    R289059  17.428  -1.734  20.604
 7463CHOL    R389060  17.355  -1.579  20.724
 7463CHOL    R489061  17.366  -1.642  20.518
 7463CHOL    R589062  17.285  -1.474  20.626
 7463CHOL    C189063  17.179  -1.317  20.479
 7463CHOL    C289064  17.073  -1.159  20.332
 7464CHOL   ROH89065   4.451   4.269  25.954
 7464CHOL    R189066   4.492   4.320  25.808
 7464CHOL    R289067   4.537   4.169  25.636
 7464CHOL    R389068   4.539   4.378  25.644
 7464CHOL    R489069   4.573   4.214  25.509
 7464CHOL    R589070   4.580   4.430  25.498
 7464CHOL    C189071   4.643   4.507  25.280
 7464CHOL    C289072   4.705   4.584  25.061
 7465CHOL   ROH89073   3.659  14.006  26.169
 7465CHOL    R189074   3.712  13.977  26.021
 7465CHOL    R289075   3.878  14.109  25.925
 7465CHOL    R389076   3.772  13.943  25.855
 7465CHOL    R489077   3.925  14.084  25.795
 7465CHOL    R589078   3.825  13.914  25.707
 7465CHOL    C189079   3.905  13.870  25.485
 7465CHOL    C289080   3.985  13.826  25.263
 7466CHOL   ROH89081  10.176  10.433  27.802
 7466CHOL    R189082  10.175  10.429  27.642
 7466CHOL    R289083  10.374  10.428  27.520
 7466CHOL    R389084  10.173  10.425  27.462
 7466CHOL    R489085  10.373  10.425  27.380
 7466CHOL    R589086  10.172  10.421  27.302
 7466CHOL    C189087  10.170  10.416  27.062
 7466CHOL    C289088  10.168  10.410  26.822
 7467CHOL   ROH89089  11.982   6.011  27.215
 7467CHOL    R189090  11.960   6.046  27.060
 7467CHOL    R289091  12.106   5.965  26.897
 7467CHOL    R389092  11.936   6.086  26.887
 7467CHOL    R489093  12.086   5.996  26.762
 7467CHOL    R589094  11.914   6.121  26.732
 7467CHOL    C189095  11.881   6.175  26.500
 7467CHOL    C289096  11.849   6.228  26.268
 7468CHOL   ROH89097  22.390  -2.562   7.780
 7468CHOL    R189098  22.277  -2.451   7.800
 7468CHOL    R289099  22.243  -2.285   7.639
 7468CHOL    R389100  22.149  -2.325   7.821
 7468CHOL    R489101  22.143  -2.187   7.656
 7468CHOL    R589102  22.036  -2.214   7.841
 7468CHOL    C189103  21.866  -2.047   7.870
 7468CHOL    C289104  21.696  -1.880   7.900
 7469CHOL   ROH89105  13.620  17.735  -5.675
 7469CHOL    R189106  13.587  17.666  -5.535
 7469CHOL    R289107  13.748  17.539  -5.423
 7469CHOL    R389108  13.550  17.588  -5.376
 7469CHOL    R489109  13.719  17.479  -5.300
 7469CHOL    R589110  13.517  17.519  -5.236
 7469CHOL    C189111  13.468  17.415  -5.025
 7469CHOL    C289112  13.419  17.312  -4.815
 7470CHOL   ROH89113  26.218  16.261   6.674
 7470CHOL    R189114  26.073  16.200   6.701
 7470CHOL    R289115  25.961  16.080   6.535
 7470CHOL    R389116  25.909  16.130   6.730
 7470CHOL    R489117  25.833  16.026   6.558
 7470CHOL    R589118  25.763  16.069   6.757
 7470CHOL    C189119  25.545  15.977   6.797
 7470CHOL    C289120  25.327  15.885   6.837
 7471CHOL   ROH89121  -6.632   3.345  11.287
 7471CHOL    R189122  -6.484   3.404  11.274
 7471CHOL    R289123  -6.298   3.262  11.275
 7471CHOL    R389124  -6.317   3.469  11.259
 7471CHOL    R489125  -6.168   3.313  11.263
 7471CHOL    R589126  -6.169   3.528  11.245
 7471CHOL    C189127  -5.946   3.616  11.226
 7471CHOL    C289128  -5.724   3.704  11.206
 7472CHOL   ROH89129   7.850  12.318  -7.662
 7472CHOL    R189130   7.867  12.299  -7.504
 7472CHOL    R289131   7.738  12.421  -7.353
 7472CHOL    R389132   7.887  12.278  -7.326
 7472CHOL    R489133   7.753  12.404  -7.215
 7472CHOL    R589134   7.905  12.258  -7.169
 7472CHOL    C189135   7.931  12.230  -6.932
 7472CHOL    C289136   7.957  12.201  -6.695
 7473CHOL   ROH89137   5.921  -3.241  -1.381
 7473CHOL    R189138   5.956  -3.123  -1.278
 7473CHOL    R289139   6.116  -2.962  -1.330
 7473CHOL    R389140   5.994  -2.990  -1.163
 7473CHOL    R489141   6.147  -2.859  -1.241
 7473CHOL    R589142   6.029  -2.872  -1.061
 7473CHOL    C189143   6.081  -2.696  -0.907
 7473CHOL    C289144   6.133  -2.519  -0.753
 7474CHOL   ROH89145  22.262  22.452  12.791
 7474CHOL    R189146  22.150  22.342  12.759
 7474CHOL    R289147  22.190  22.116  12.798
 7474CHOL    R389148  22.024  22.218  12.723
 7474CHOL    R489149  22.092  22.019  12.770
 7474CHOL    R589150  21.912  22.109  12.691
 7474CHOL    C189151  21.745  21.944  12.643
 7474CHOL    C289152  21.577  21.779  12.595
 7475CHOL   ROH89153  15.199   6.731  -6.765
 7475CHOL    R189154  15.143   6.760  -6.618
 7475CHOL    R289155  14.919   6.813  -6.582
 7475CHOL    R389156  15.081   6.794  -6.452
 7475CHOL    R489157  14.870   6.839  -6.454
 7475CHOL    R589158  15.026   6.823  -6.305
 7475CHOL    C189159  14.942   6.867  -6.084
 7475CHOL    C289160  14.859   6.911  -5.863
 7476CHOL   ROH89161   9.494  12.119  -7.797
 7476CHOL    R189162   9.499  12.100  -7.638
 7476CHOL    R289163   9.671  11.980  -7.537
 7476CHOL    R389164   9.504  12.079  -7.460
 7476CHOL    R489165   9.675  11.963  -7.398
 7476CHOL    R589166   9.508  12.060  -7.301
 7476CHOL    C189167   9.515  12.031  -7.063
 7476CHOL    C289168   9.522  12.002  -6.825
 7477CHOL   ROH89169  21.048  -2.034  16.942
 7477CHOL    R189170  20.949  -1.925  16.879
 7477CHOL    R289171  21.026  -1.766  16.728
 7477CHOL    R389172  20.837  -1.803  16.809
 7477CHOL    R489173  20.939  -1.671  16.673
 7477CHOL    R589174  20.737  -1.694  16.747
 7477CHOL    C189175  20.588  -1.532  16.653
 7477CHOL    C289176  20.439  -1.369  16.559
 7478CHOL   ROH89177  -5.448   2.465  15.121
 7478CHOL    R189178  -5.310   2.533  15.076
 7478CHOL    R289179  -5.192   2.672  15.221
 7478CHOL    R389180  -5.156   2.610  15.025
 7478CHOL    R489181  -5.072   2.732  15.182
 7478CHOL    R589182  -5.018   2.678  14.980
 7478CHOL    C189183  -4.812   2.780  14.913
 7478CHOL    C289184  -4.605   2.882  14.846
 7479CHOL   ROH89185   9.747  -3.921  -1.267
 7479CHOL    R189186   9.749  -3.796  -1.167
 7479CHOL    R289187   9.951  -3.701  -1.099
 7479CHOL    R389188   9.752  -3.655  -1.055
 7479CHOL    R489189   9.953  -3.591  -1.011
 7479CHOL    R589190   9.754  -3.530  -0.956
 7479CHOL    C189191   9.757  -3.342  -0.806
 7479CHOL    C289192   9.761  -3.155  -0.656
 7480CHOL   ROH89193  17.638  15.075  25.183
 7480CHOL    R189194  17.563  15.027  25.050
 7480CHOL    R289195  17.524  15.177  24.875
 7480CHOL    R389196  17.480  14.974  24.900
 7480CHOL    R489197  17.458  15.135  24.758
 7480CHOL    R589198  17.405  14.927  24.767
 7480CHOL    C189199  17.293  14.855  24.567
 7480CHOL    C289200  17.181  14.784  24.367
 7481CHOL   ROH89201  25.904   7.981   2.356
 7481CHOL    R189202  25.761   7.998   2.425
 7481CHOL    R289203  25.567   7.922   2.321
 7481CHOL    R389204  25.600   8.017   2.504
 7481CHOL    R489205  25.442   7.936   2.381
 7481CHOL    R589206  25.457   8.034   2.573
 7481CHOL    C189207  25.242   8.059   2.677
 7481CHOL    C289208  25.027   8.084   2.781
 7482CHOL   ROH89209  10.228  -5.185   0.526
 7482CHOL    R189210  10.226  -5.049   0.610
 7482CHOL    R289211  10.243  -5.052   0.843
 7482CHOL    R389212  10.223  -4.896   0.706
 7482CHOL    R489213  10.240  -4.933   0.917
 7482CHOL    R589214  10.221  -4.760   0.790
 7482CHOL    C189215  10.217  -4.557   0.917
 7482CHOL    C289216  10.213  -4.353   1.043
 7483CHOL   ROH89217  19.631  24.094   4.800
 7483CHOL    R189218  19.545  23.966   4.844
 7483CHOL    R289219  19.641  23.796   4.971
 7483CHOL    R389220  19.449  23.823   4.895
 7483CHOL    R489221  19.566  23.684   5.010
 7483CHOL    R589222  19.363  23.695   4.939
 7483CHOL    C189223  19.235  23.503   5.006
 7483CHOL    C289224  19.107  23.312   5.072
 7484CHOL   ROH89225  -1.810  -1.166  17.613
 7484CHOL    R189226  -1.705  -1.066  17.544
 7484CHOL    R289227  -1.556  -0.941  17.673
 7484CHOL    R389228  -1.587  -0.955  17.467
 7484CHOL    R489229  -1.465  -0.854  17.613
 7484CHOL    R589230  -1.483  -0.855  17.399
 7484CHOL    C189231  -1.325  -0.706  17.296
 7484CHOL    C289232  -1.168  -0.556  17.193
 7485CHOL   ROH89233  25.430  18.512   8.479
 7485CHOL    R189234  25.290  18.436   8.495
 7485CHOL    R289235  25.199  18.314   8.318
 7485CHOL    R389236  25.133  18.351   8.513
 7485CHOL    R489237  25.077  18.248   8.332
 7485CHOL    R589238  24.993  18.275   8.528
 7485CHOL    C189239  24.783  18.162   8.552
 7485CHOL    C289240  24.573  18.048   8.576
 7486CHOL   ROH89241  16.964  21.134  -2.128
 7486CHOL    R189242  16.898  21.035  -2.021
 7486CHOL    R289243  17.024  20.870  -1.916
 7486CHOL    R389244  16.823  20.923  -1.902
 7486CHOL    R489245  16.966  20.783  -1.822
 7486CHOL    R589246  16.757  20.824  -1.795
 7486CHOL    C189247  16.657  20.675  -1.635
 7486CHOL    C289248  16.557  20.526  -1.475
 7487CHOL   ROH89249   2.067  21.178  21.472
 7487CHOL    R189250   2.136  21.078  21.368
 7487CHOL    R289251   2.283  20.912  21.440
 7487CHOL    R389252   2.213  20.965  21.251
 7487CHOL    R489253   2.343  20.824  21.349
 7487CHOL    R589254   2.281  20.865  21.147
 7487CHOL    C189255   2.384  20.715  20.990
 7487CHOL    C289256   2.487  20.565  20.834
 7488CHOL   ROH89257  13.998  22.099  -2.593
 7488CHOL    R189258  13.964  21.992  -2.479
 7488CHOL    R289259  14.034  21.770  -2.498
 7488CHOL    R389260  13.925  21.871  -2.351
 7488CHOL    R489261  14.004  21.676  -2.399
 7488CHOL    R589262  13.891  21.764  -2.237
 7488CHOL    C189263  13.840  21.603  -2.067
 7488CHOL    C289264  13.788  21.442  -1.896
 7489CHOL   ROH89265  19.107  22.863   1.811
 7489CHOL    R189266  19.022  22.751   1.888
 7489CHOL    R289267  18.890  22.599   1.770
 7489CHOL    R389268  18.926  22.626   1.974
 7489CHOL    R489269  18.815  22.501   1.838
 7489CHOL    R589270  18.841  22.514   2.051
 7489CHOL    C189271  18.713  22.346   2.166
 7489CHOL    C289272  18.586  22.179   2.281
 7490CHOL   ROH89273  19.303  21.779   0.547
 7490CHOL    R189274  19.217  21.673   0.631
 7490CHOL    R289275  19.156  21.468   0.537
 7490CHOL    R389276  19.121  21.554   0.724
 7490CHOL    R489277  19.080  21.376   0.610
 7490CHOL    R589278  19.035  21.447   0.808
 7490CHOL    C189279  18.906  21.288   0.933
 7490CHOL    C289280  18.778  21.129   1.059
 7491CHOL   ROH89281   1.436  10.466  25.723
 7491CHOL    R189282   1.507  10.458  25.580
 7491CHOL    R289283   1.715  10.558  25.543
 7491CHOL    R389284   1.587  10.449  25.419
 7491CHOL    R489285   1.777  10.551  25.418
 7491CHOL    R589286   1.658  10.442  25.276
 7491CHOL    C189287   1.765  10.430  25.061
 7491CHOL    C289288   1.871  10.418  24.846
 7492CHOL   ROH89289  -5.261   4.993  18.200
 7492CHOL    R189290  -5.126   5.038  18.126
 7492CHOL    R289291  -4.919   5.013  18.230
 7492CHOL    R389292  -4.975   5.088  18.043
 7492CHOL    R489293  -4.801   5.052  18.165
 7492CHOL    R589294  -4.840   5.133  17.969
 7492CHOL    C189295  -4.638   5.199  17.858
 7492CHOL    C289296  -4.436   5.266  17.747
 7493CHOL   ROH89297  18.849  20.969  20.814
 7493CHOL    R189298  18.767  20.870  20.719
 7493CHOL    R289299  18.877  20.726  20.572
 7493CHOL    R389300  18.674  20.759  20.611
 7493CHOL    R489301  18.805  20.639  20.489
 7493CHOL    R589302  18.592  20.661  20.516
 7493CHOL    C189303  18.469  20.512  20.373
 7493CHOL    C289304  18.345  20.364  20.230
 7494CHOL   ROH89305  10.211  20.724  -4.292
 7494CHOL    R189306  10.207  20.624  -4.167
 7494CHOL    R289307  10.383  20.619  -4.013
 7494CHOL    R389308  10.204  20.513  -4.026
 7494CHOL    R489309  10.380  20.532  -3.904
 7494CHOL    R589310  10.200  20.413  -3.900
 7494CHOL    C189311  10.195  20.264  -3.713
 7494CHOL    C289312  10.189  20.114  -3.525
 7495CHOL   ROH89313  -7.326  10.146  14.776
 7495CHOL    R189314  -7.172  10.145  14.734
 7495CHOL    R289315  -7.036   9.960  14.776
 7495CHOL    R389316  -6.998  10.144  14.686
 7495CHOL    R489317  -6.902   9.959  14.739
 7495CHOL    R589318  -6.844  10.144  14.644
 7495CHOL    C189319  -6.613  10.142  14.580
 7495CHOL    C289320  -6.381  10.141  14.516
 7496CHOL   ROH89321   3.463  19.358  23.737
 7496CHOL    R189322   3.520  19.272  23.615
 7496CHOL    R289323   3.645  19.078  23.653
 7496CHOL    R389324   3.584  19.175  23.478
 7496CHOL    R489325   3.695  19.003  23.546
 7496CHOL    R589326   3.641  19.089  23.356
 7496CHOL    C189327   3.726  18.959  23.172
 7496CHOL    C289328   3.812  18.830  22.989
 7497CHOL   ROH89329  13.357  27.282  12.605
 7497CHOL    R189330  13.328  27.127  12.579
 7497CHOL    R289331  13.487  26.990  12.478
 7497CHOL    R389332  13.295  26.952  12.550
 7497CHOL    R489333  13.462  26.854  12.455
 7497CHOL    R589334  13.266  26.797  12.524
 7497CHOL    C189335  13.222  26.564  12.485
 7497CHOL    C289336  13.179  26.331  12.446
 7498CHOL   ROH89337  27.329   6.705  11.446
 7498CHOL    R189338  27.172   6.732  11.434
 7498CHOL    R289339  27.046   6.631  11.266
 7498CHOL    R389340  26.995   6.761  11.421
 7498CHOL    R489341  26.908   6.654  11.255
 7498CHOL    R589342  26.837   6.788  11.409
 7498CHOL    C189343  26.602   6.828  11.391
 7498CHOL    C289344  26.366   6.868  11.373
 7499CHOL   ROH89345   6.222  -5.978  17.090
 7499CHOL    R189346   6.253  -5.835  17.026
 7499CHOL    R289347   6.443  -5.714  17.087
 7499CHOL    R389348   6.288  -5.674  16.953
 7499CHOL    R489349   6.470  -5.589  17.031
 7499CHOL    R589350   6.319  -5.530  16.889
 7499CHOL    C189351   6.365  -5.316  16.793
 7499CHOL    C289352   6.411  -5.101  16.696
 7500CHOL   ROH89353  16.795   7.277  -6.219
 7500CHOL    R189354  16.731   7.302  -6.074
 7500CHOL    R289355  16.504   7.346  -6.049
 7500CHOL    R389356  16.660   7.330  -5.912
 7500CHOL    R489357  16.448   7.368  -5.923
 7500CHOL    R589358  16.596   7.355  -5.767
 7500CHOL    C189359  16.500   7.393  -5.550
 7500CHOL    C289360  16.405   7.431  -5.333
 7501CHOL   ROH89361   9.891   6.663  -7.577
 7501CHOL    R189362   9.893   6.696  -7.420
 7501CHOL    R289363  10.090   6.759  -7.313
 7501CHOL    R389364   9.895   6.733  -7.244
 7501CHOL    R489365  10.092   6.788  -7.176
 7501CHOL    R589366   9.897   6.766  -7.088
 7501CHOL    C189367   9.900   6.815  -6.853
 7501CHOL    C289368   9.903   6.865  -6.618
 7502CHOL   ROH89369  -6.013  18.143   8.598
 7502CHOL    R189370  -5.870  18.073   8.610
 7502CHOL    R289371  -5.846  17.866   8.715
 7502CHOL    R389372  -5.708  17.994   8.624
 7502CHOL    R489373  -5.720  17.805   8.726
 7502CHOL    R589374  -5.565  17.924   8.637
 7502CHOL    C189375  -5.350  17.819   8.655
 7502CHOL    C289376  -5.135  17.714   8.673
 7503CHOL   ROH89377  26.157  12.676  16.656
 7503CHOL    R189378  26.010  12.650  16.598
 7503CHOL    R289379  25.946  12.438  16.525
 7503CHOL    R389380  25.845  12.621  16.533
 7503CHOL    R489381  25.817  12.416  16.474
 7503CHOL    R589382  25.698  12.595  16.475
 7503CHOL    C189383  25.478  12.556  16.388
 7503CHOL    C289384  25.257  12.517  16.301
 7504CHOL   ROH89385  11.760  22.003  22.978
 7504CHOL    R189386  11.740  21.894  22.863
 7504CHOL    R289387  11.922  21.773  22.780
 7504CHOL    R389388  11.718  21.771  22.733
 7504CHOL    R489389  11.904  21.677  22.679
 7504CHOL    R589390  11.698  21.662  22.617
 7504CHOL    C189391  11.669  21.499  22.444
 7504CHOL    C289392  11.639  21.336  22.271
 7505CHOL   ROH89393  -4.183  17.682   2.113
 7505CHOL    R189394  -4.055  17.615   2.181
 7505CHOL    R289395  -3.925  17.732   2.335
 7505CHOL    R389396  -3.910  17.539   2.258
 7505CHOL    R489397  -3.813  17.674   2.395
 7505CHOL    R589398  -3.782  17.472   2.326
 7505CHOL    C189399  -3.590  17.371   2.428
 7505CHOL    C289400  -3.397  17.270   2.530
 7506CHOL   ROH89401  -0.932   0.688  20.656
 7506CHOL    R189402  -0.835   0.769  20.558
 7506CHOL    R289403  -0.604   0.738  20.564
 7506CHOL    R389404  -0.727   0.860  20.447
 7506CHOL    R489405  -0.520   0.809  20.478
 7506CHOL    R589406  -0.630   0.942  20.349
 7506CHOL    C189407  -0.485   1.063  20.202
 7506CHOL    C289408  -0.340   1.185  20.054
 7507CHOL   ROH89409  18.893  23.201   2.079
 7507CHOL    R189410  18.811  23.086   2.154
 7507CHOL    R289411  18.661  22.950   2.037
 7507CHOL    R389412  18.718  22.957   2.238
 7507CHOL    R489413  18.589  22.850   2.102
 7507CHOL    R589414  18.636  22.842   2.312
 7507CHOL    C189415  18.512  22.669   2.425
 7507CHOL    C289416  18.388  22.496   2.537
 7508CHOL   ROH89417  23.503  18.932  17.227
 7508CHOL    R189418  23.384  18.845  17.165
 7508CHOL    R289419  23.383  18.785  16.940
 7508CHOL    R389420  23.249  18.748  17.095
 7508CHOL    R489421  23.279  18.710  16.885
 7508CHOL    R589422  23.130  18.661  17.033
 7508CHOL    C189423  22.951  18.531  16.941
 7508CHOL    C289424  22.772  18.401  16.848
 7509CHOL   ROH89425  21.757  -2.885  13.349
 7509CHOL    R189426  21.651  -2.769  13.318
 7509CHOL    R289427  21.570  -2.735  13.102
 7509CHOL    R389428  21.532  -2.639  13.284
 7509CHOL    R489429  21.477  -2.634  13.076
 7509CHOL    R589430  21.425  -2.523  13.253
 7509CHOL    C189431  21.266  -2.350  13.207
 7509CHOL    C289432  21.107  -2.176  13.161
 7510CHOL   ROH89433   4.679   8.273  26.942
 7510CHOL    R189434   4.722   8.286  26.789
 7510CHOL    R289435   4.943   8.334  26.730
 7510CHOL    R389436   4.771   8.300  26.616
 7510CHOL    R489437   4.981   8.345  26.595
 7510CHOL    R589438   4.814   8.313  26.463
 7510CHOL    C189439   4.880   8.332  26.232
 7510CHOL    C289440   4.945   8.351  26.002
 7511CHOL   ROH89441   6.814   4.175  -6.675
 7511CHOL    R189442   6.836   4.225  -6.525
 7511CHOL    R289443   6.770   4.095  -6.343
 7511CHOL    R389444   6.862   4.282  -6.356
 7511CHOL    R489445   6.789   4.138  -6.212
 7511CHOL    R589446   6.884   4.332  -6.206
 7511CHOL    C189447   6.918   4.407  -5.980
 7511CHOL    C289448   6.951   4.483  -5.755
 7512CHOL   ROH89449  26.544   4.713  13.456
 7512CHOL    R189450  26.394   4.761  13.425
 7512CHOL    R289451  26.329   4.982  13.461
 7512CHOL    R389452  26.226   4.814  13.390
 7512CHOL    R489453  26.198   5.023  13.433
 7512CHOL    R589454  26.077   4.862  13.359
 7512CHOL    C189455  25.852   4.933  13.312
 7512CHOL    C289456  25.628   5.004  13.265
 7513CHOL   ROH89457  -1.414  12.465  23.511
 7513CHOL    R189458  -1.314  12.439  23.388
 7513CHOL    R289459  -1.084  12.427  23.422
 7513CHOL    R389460  -1.203  12.410  23.251
 7513CHOL    R489461  -0.997  12.405  23.314
 7513CHOL    R589462  -1.103  12.384  23.128
 7513CHOL    C189463  -0.954  12.345  22.944
 7513CHOL    C289464  -0.804  12.306  22.760
 7514CHOL   ROH89465  -1.225   8.285  -3.924
 7514CHOL    R189466  -1.125   8.297  -3.799
 7514CHOL    R289467  -1.133   8.481  -3.656
 7514CHOL    R389468  -1.013   8.310  -3.659
 7514CHOL    R489469  -1.046   8.491  -3.547
 7514CHOL    R589470  -0.914   8.322  -3.535
 7514CHOL    C189471  -0.764   8.339  -3.348
 7514CHOL    C289472  -0.614   8.357  -3.161
 7515CHOL   ROH89473  -3.335  16.523  -0.248
 7515CHOL    R189474  -3.217  16.462  -0.159
 7515CHOL    R289475  -3.064  16.600  -0.051
 7515CHOL    R389476  -3.084  16.393  -0.060
 7515CHOL    R489477  -2.960  16.547   0.027
 7515CHOL    R589478  -2.966  16.332   0.029
 7515CHOL    C189479  -2.788  16.240   0.162
 7515CHOL    C289480  -2.611  16.148   0.295
 7516CHOL   ROH89481  11.968  13.714  -7.390
 7516CHOL    R189482  11.949  13.678  -7.235
 7516CHOL    R289483  12.010  13.469  -7.152
 7516CHOL    R389484  11.928  13.638  -7.061
 7516CHOL    R489485  11.993  13.438  -7.016
 7516CHOL    R589486  11.908  13.603  -6.906
 7516CHOL    C189487  11.880  13.549  -6.674
 7516CHOL    C289488  11.851  13.495  -6.441
 7517CHOL   ROH89489  26.428  15.726   6.636
 7517CHOL    R189490  26.281  15.670   6.663
 7517CHOL    R289491  26.130  15.641   6.488
 7517CHOL    R389492  26.115  15.606   6.693
 7517CHOL    R489493  26.001  15.591   6.511
 7517CHOL    R589494  25.968  15.549   6.720
 7517CHOL    C189495  25.747  15.465   6.760
 7517CHOL    C289496  25.526  15.380   6.801
 7518CHOL   ROH89497   3.432   4.326  -5.784
 7518CHOL    R189498   3.490   4.376  -5.643
 7518CHOL    R289499   3.699   4.306  -5.567
 7518CHOL    R389500   3.555   4.432  -5.485
 7518CHOL    R489501   3.749   4.349  -5.444
 7518CHOL    R589502   3.613   4.483  -5.345
 7518CHOL    C189503   3.699   4.558  -5.134
 7518CHOL    C289504   3.786   4.633  -4.923
 7519CHOL   ROH89505  25.305  16.565   3.803
 7519CHOL    R189506  25.167  16.505   3.856
 7519CHOL    R289507  24.963  16.601   3.796
 7519CHOL    R389508  25.011  16.437   3.916
 7519CHOL    R489509  24.842  16.548   3.842
 7519CHOL    R589510  24.873  16.377   3.969
 7519CHOL    C189511  24.665  16.286   4.049
 7519CHOL    C289512  24.457  16.196   4.128
 7520CHOL   ROH89513   5.936  -5.496  17.960
 7520CHOL    R189514   5.970  -5.357  17.889
 7520CHOL    R289515   6.186  -5.308  17.818
 7520CHOL    R389516   6.008  -5.200  17.808
 7520CHOL    R489517   6.216  -5.186  17.755
 7520CHOL    R589518   6.042  -5.061  17.737
 7520CHOL    C189519   6.092  -4.852  17.630
 7520CHOL    C289520   6.143  -4.643  17.523
 7521CHOL   ROH89521  17.730  -1.281  -1.498
 7521CHOL    R189522  17.661  -1.179  -1.396
 7521CHOL    R289523  17.525  -1.006  -1.474
 7521CHOL    R389524  17.583  -1.064  -1.282
 7521CHOL    R489525  17.464  -0.916  -1.385
 7521CHOL    R589526  17.513  -0.961  -1.180
 7521CHOL    C189527  17.410  -0.808  -1.027
 7521CHOL    C289528  17.306  -0.655  -0.875
 7522CHOL   ROH89529  27.000  15.018  10.374
 7522CHOL    R189530  26.847  14.972  10.369
 7522CHOL    R289531  26.773  14.814  10.214
 7522CHOL    R389532  26.674  14.920  10.364
 7522CHOL    R489533  26.639  14.774  10.210
 7522CHOL    R589534  26.521  14.875  10.360
 7522CHOL    C189535  26.291  14.806  10.353
 7522CHOL    C289536  26.061  14.737  10.346
 7523CHOL   ROH89537  24.214  -0.643  10.780
 7523CHOL    R189538  24.085  -0.549  10.774
 7523CHOL    R289539  24.105  -0.317  10.793
 7523CHOL    R389540  23.940  -0.442  10.768
 7523CHOL    R489541  23.992  -0.234  10.787
 7523CHOL    R589542  23.811  -0.348  10.762
 7523CHOL    C189543  23.617  -0.206  10.753
 7523CHOL    C289544  23.423  -0.065  10.745
 7524CHOL   ROH89545  -0.572  22.345  17.542
 7524CHOL    R189546  -0.478  22.234  17.475
 7524CHOL    R289547  -0.309  22.131  17.598
 7524CHOL    R389548  -0.372  22.109  17.400
 7524CHOL    R489549  -0.226  22.034  17.540
 7524CHOL    R589550  -0.278  21.998  17.334
 7524CHOL    C189551  -0.137  21.832  17.233
 7524CHOL    C289552   0.004  21.666  17.133
 7525CHOL   ROH89553  -2.537   3.539  -1.207
 7525CHOL    R189554  -2.429   3.598  -1.105
 7525CHOL    R289555  -2.422   3.528  -0.883
 7525CHOL    R389556  -2.307   3.664  -0.990
 7525CHOL    R489557  -2.327   3.580  -0.793
 7525CHOL    R589558  -2.198   3.723  -0.888
 7525CHOL    C189559  -2.036   3.812  -0.736
 7525CHOL    C289560  -1.874   3.901  -0.583
 7526CHOL   ROH89561  21.460   2.960  -1.594
 7526CHOL    R189562  21.357   3.025  -1.490
 7526CHOL    R289563  21.419   3.204  -1.355
 7526CHOL    R389564  21.241   3.098  -1.374
 7526CHOL    R489565  21.329   3.261  -1.265
 7526CHOL    R589566  21.138   3.163  -1.270
 7526CHOL    C189567  20.983   3.260  -1.115
 7526CHOL    C289568  20.828   3.358  -0.960
 7527CHOL   ROH89569  -6.941  15.663   7.813
 7527CHOL    R189570  -6.791  15.614   7.837
 7527CHOL    R289571  -6.611  15.759   7.809
 7527CHOL    R389572  -6.621  15.558   7.864
 7527CHOL    R489573  -6.479  15.716   7.829
 7527CHOL    R589574  -6.471  15.509   7.887
 7527CHOL    C189575  -6.245  15.435   7.923
 7527CHOL    C289576  -6.020  15.361   7.959
 7528CHOL   ROH89577   0.825  25.051  13.189
 7528CHOL    R189578   0.903  24.915  13.156
 7528CHOL    R289579   1.125  24.919  13.083
 7528CHOL    R389580   0.991  24.763  13.118
 7528CHOL    R489581   1.193  24.801  13.054
 7528CHOL    R589582   1.069  24.628  13.084
 7528CHOL    C189583   1.186  24.424  13.034
 7528CHOL    C289584   1.303  24.221  12.984
 7529CHOL   ROH89585  11.753  22.816  -2.325
 7529CHOL    R189586  11.741  22.702  -2.213
 7529CHOL    R289587  11.929  22.620  -2.104
 7529CHOL    R389588  11.726  22.574  -2.088
 7529CHOL    R489589  11.918  22.520  -2.006
 7529CHOL    R589590  11.714  22.460  -1.977
 7529CHOL    C189591  11.695  22.288  -1.809
 7529CHOL    C289592  11.677  22.117  -1.642
 7530CHOL   ROH89593  -5.521  10.513  18.982
 7530CHOL    R189594  -5.386  10.508  18.897
 7530CHOL    R289595  -5.230  10.337  18.929
 7530CHOL    R389596  -5.233  10.502  18.801
 7530CHOL    R489597  -5.111  10.333  18.855
 7530CHOL    R589598  -5.098  10.497  18.716
 7530CHOL    C189599  -4.895  10.489  18.588
 7530CHOL    C289600  -4.692  10.482  18.461
 7531CHOL   ROH89601  10.456  10.523  27.795
 7531CHOL    R189602  10.452  10.518  27.635
 7531CHOL    R289603  10.475  10.713  27.509
 7531CHOL    R389604  10.447  10.513  27.455
 7531CHOL    R489605  10.471  10.709  27.369
 7531CHOL    R589606  10.443  10.509  27.296
 7531CHOL    C189607  10.437  10.502  27.056
 7531CHOL    C289608  10.431  10.495  26.816
 7532CHOL   ROH89609   8.808  15.855  26.748
 7532CHOL    R189610   8.814  15.803  26.597
 7532CHOL    R289611   8.863  15.580  26.549
 7532CHOL    R389612   8.821  15.743  26.427
 7532CHOL    R489613   8.869  15.534  26.417
 7532CHOL    R589614   8.827  15.691  26.276
 7532CHOL    C189615   8.836  15.612  26.049
 7532CHOL    C289616   8.845  15.534  25.823
 7533CHOL   ROH89617   5.373  26.709   5.349
 7533CHOL    R189618   5.412  26.559   5.390
 7533CHOL    R289619   5.442  26.499   5.613
 7533CHOL    R389620   5.455  26.390   5.436
 7533CHOL    R489621   5.476  26.368   5.649
 7533CHOL    R589622   5.493  26.240   5.477
 7533CHOL    C189623   5.551  26.016   5.538
 7533CHOL    C289624   5.609  25.791   5.599
 7534CHOL   ROH89625  24.211   1.261  16.081
 7534CHOL    R189626  24.082   1.340  16.029
 7534CHOL    R289627  24.103   1.514  15.875
 7534CHOL    R389628  23.937   1.429  15.969
 7534CHOL    R489629  23.990   1.584  15.829
 7534CHOL    R589630  23.809   1.508  15.917
 7534CHOL    C189631  23.615   1.627  15.838
 7534CHOL    C289632  23.422   1.746  15.760
 7535CHOL   ROH89633  -1.009  24.086  11.710
 7535CHOL    R189634  -0.912  23.959  11.698
 7535CHOL    R289635  -0.720  23.967  11.566
 7535CHOL    R389636  -0.803  23.817  11.685
 7535CHOL    R489637  -0.635  23.857  11.556
 7535CHOL    R589638  -0.705  23.690  11.674
 7535CHOL    C189639  -0.560  23.501  11.656
 7535CHOL    C289640  -0.414  23.311  11.638
 7536CHOL   ROH89641  19.616  -0.095  20.933
 7536CHOL    R189642  19.529  -0.003  20.835
 7536CHOL    R289643  19.626   0.103  20.651
 7536CHOL    R389644  19.430   0.099  20.725
 7536CHOL    R489645  19.549   0.183  20.566
 7536CHOL    R589646  19.343   0.191  20.627
 7536CHOL    C189647  19.212   0.328  20.480
 7536CHOL    C289648  19.081   0.466  20.333
 7537CHOL   ROH89649   9.947  25.417   0.920
 7537CHOL    R189650   9.947  25.281   1.004
 7537CHOL    R289651  10.097  25.109   0.955
 7537CHOL    R389652   9.946  25.127   1.098
 7537CHOL    R489653  10.097  24.990   1.028
 7537CHOL    R589654   9.946  24.990   1.182
 7537CHOL    C189655   9.946  24.786   1.307
 7537CHOL    C289656   9.945  24.581   1.433
 7538CHOL   ROH89657  -3.299  20.934   4.760
 7538CHOL    R189658  -3.183  20.835   4.808
 7538CHOL    R289659  -3.150  20.790   5.035
 7538CHOL    R389660  -3.052  20.724   4.862
 7538CHOL    R489661  -3.048  20.704   5.077
 7538CHOL    R589662  -2.936  20.625   4.910
 7538CHOL    C189663  -2.761  20.477   4.983
 7538CHOL    C289664  -2.587  20.329   5.055
 7539CHOL   ROH89665  25.283  14.523  17.719
 7539CHOL    R189666  25.143  14.484  17.652
 7539CHOL    R289667  25.015  14.644  17.540
 7539CHOL    R389668  24.986  14.440  17.576
 7539CHOL    R489669  24.893  14.610  17.482
 7539CHOL    R589670  24.846  14.401  17.509
 7539CHOL    C189671  24.636  14.342  17.408
 7539CHOL    C289672  24.426  14.284  17.307
 7540CHOL   ROH89673  25.057   7.366   0.914
 7540CHOL    R189674  24.921   7.386   0.995
 7540CHOL    R289675  24.717   7.410   0.884
 7540CHOL    R389676  24.767   7.408   1.086
 7540CHOL    R489677  24.598   7.427   0.955
 7540CHOL    R589678  24.631   7.428   1.168
 7540CHOL    C189679  24.426   7.458   1.289
 7540CHOL    C289680  24.221   7.488   1.411
 7541CHOL   ROH89681  26.194   8.804   2.811
 7541CHOL    R189682  26.048   8.814   2.876
 7541CHOL    R289683  25.927   9.013   2.868
 7541CHOL    R389684  25.884   8.825   2.948
 7541CHOL    R489685  25.799   9.022   2.925
 7541CHOL    R589686  25.738   8.835   3.013
 7541CHOL    C189687  25.519   8.850   3.110
 7541CHOL    C289688  25.300   8.865   3.207
 7542CHOL   ROH89689  13.941  -3.018  -1.568
 7542CHOL    R189690  13.902  -2.902  -1.465
 7542CHOL    R289691  13.812  -2.700  -1.540
 7542CHOL    R389692  13.858  -2.771  -1.349
 7542CHOL    R489693  13.778  -2.599  -1.450
 7542CHOL    R589694  13.819  -2.655  -1.246
 7542CHOL    C189695  13.761  -2.481  -1.091
 7542CHOL    C289696  13.703  -2.307  -0.937
 7543CHOL   ROH89697   1.531  12.609  25.512
 7543CHOL    R189698   1.604  12.584  25.372
 7543CHOL    R289699   1.737  12.750  25.275
 7543CHOL    R389700   1.687  12.556  25.215
 7543CHOL    R489701   1.802  12.728  25.153
 7543CHOL    R589702   1.761  12.531  25.075
 7543CHOL    C189703   1.871  12.494  24.865
 7543CHOL    C289704   1.981  12.457  24.655
 7544CHOL   ROH89705  15.933  20.079  23.373
 7544CHOL    R189706  15.879  19.990  23.252
 7544CHOL    R289707  15.947  20.032  23.033
 7544CHOL    R389708  15.818  19.889  23.115
 7544CHOL    R489709  15.899  19.954  22.926
 7544CHOL    R589710  15.765  19.800  22.994
 7544CHOL    C189711  15.684  19.666  22.812
 7544CHOL    C289712  15.603  19.532  22.630
 7545CHOL   ROH89713  14.325  26.729  14.190
 7545CHOL    R189714  14.287  26.578  14.153
 7545CHOL    R289715  14.267  26.510  13.931
 7545CHOL    R389716  14.244  26.408  14.112
 7545CHOL    R489717  14.234  26.378  13.899
 7545CHOL    R589718  14.206  26.257  14.075
 7545CHOL    C189719  14.148  26.030  14.021
 7545CHOL    C289720  14.091  25.804  13.966
 7546CHOL   ROH89721  14.942   3.464  -5.909
 7546CHOL    R189722  14.897   3.519  -5.765
 7546CHOL    R289723  14.733   3.683  -5.746
 7546CHOL    R389724  14.847   3.581  -5.604
 7546CHOL    R489725  14.694   3.731  -5.620
 7546CHOL    R589726  14.802   3.636  -5.461
 7546CHOL    C189727  14.736   3.718  -5.245
 7546CHOL    C289728  14.669   3.800  -5.030
 7547CHOL   ROH89729   4.439  19.155  24.292
 7547CHOL    R189730   4.487  19.069  24.166
 7547CHOL    R289731   4.627  18.884  24.193
 7547CHOL    R389732   4.541  18.972  24.024
 7547CHOL    R489733   4.669  18.809  24.083
 7547CHOL    R589734   4.589  18.885  23.899
 7547CHOL    C189735   4.661  18.756  23.710
 7547CHOL    C289736   4.733  18.627  23.521
 7548CHOL   ROH89737  18.987  17.612  23.172
 7548CHOL    R189738  18.901  17.548  23.053
 7548CHOL    R289739  18.993  17.519  22.841
 7548CHOL    R389740  18.804  17.476  22.919
 7548CHOL    R489741  18.918  17.463  22.737
 7548CHOL    R589742  18.719  17.412  22.800
 7548CHOL    C189743  18.590  17.316  22.622
 7548CHOL    C289744  18.461  17.220  22.444
 7549CHOL   ROH89745  22.695  12.106  -2.245
 7549CHOL    R189746  22.577  12.089  -2.139
 7549CHOL    R289747  22.363  12.023  -2.206
 7549CHOL    R389748  22.444  12.070  -2.019
 7549CHOL    R489749  22.260  12.008  -2.113
 7549CHOL    R589750  22.326  12.053  -1.913
 7549CHOL    C189751  22.148  12.028  -1.753
 7549CHOL    C289752  21.971  12.002  -1.593
 7550CHOL   ROH89753  -1.021   3.366  -2.530
 7550CHOL    R189754  -0.926   3.429  -2.418
 7550CHOL    R289755  -1.010   3.483  -2.207
 7550CHOL    R389756  -0.820   3.500  -2.291
 7550CHOL    R489757  -0.927   3.538  -2.109
 7550CHOL    R589758  -0.725   3.563  -2.178
 7550CHOL    C189759  -0.583   3.657  -2.010
 7550CHOL    C289760  -0.441   3.751  -1.841
 7551CHOL   ROH89761  -1.738   1.992  -1.011
 7551CHOL    R189762  -1.639   2.066  -0.909
 7551CHOL    R289763  -1.582   1.968  -0.705
 7551CHOL    R389764  -1.528   2.149  -0.794
 7551CHOL    R489765  -1.496   2.033  -0.616
 7551CHOL    R589766  -1.429   2.223  -0.692
 7551CHOL    C189767  -1.281   2.333  -0.540
 7551CHOL    C289768  -1.132   2.444  -0.387
 7552CHOL   ROH89769  -4.123  20.611   6.416
 7552CHOL    R189770  -3.999  20.516   6.449
 7552CHOL    R289771  -4.002  20.372   6.633
 7552CHOL    R389772  -3.858  20.409   6.486
 7552CHOL    R489773  -3.893  20.289   6.661
 7552CHOL    R589774  -3.734  20.314   6.519
 7552CHOL    C189775  -3.547  20.171   6.568
 7552CHOL    C289776  -3.361  20.029   6.617
 7553CHOL   ROH89777  19.678  -2.615  17.940
 7553CHOL    R189778  19.588  -2.504  17.868
 7553CHOL    R289779  19.682  -2.302  17.797
 7553CHOL    R389780  19.488  -2.378  17.787
 7553CHOL    R489781  19.603  -2.204  17.735
 7553CHOL    R589782  19.398  -2.267  17.715
 7553CHOL    C189783  19.264  -2.100  17.608
 7553CHOL    C289784  19.129  -1.933  17.500
 7554CHOL   ROH89785  21.639   9.521  -3.473
 7554CHOL    R189786  21.532   9.525  -3.354
 7554CHOL    R289787  21.458   9.727  -3.266
 7554CHOL    R389788  21.411   9.528  -3.221
 7554CHOL    R489789  21.364   9.730  -3.162
 7554CHOL    R589790  21.304   9.532  -3.102
 7554CHOL    C189791  21.143   9.537  -2.924
 7554CHOL    C289792  20.982   9.543  -2.746
 7555CHOL   ROH89793   5.798   5.742  26.749
 7555CHOL    R189794   5.832   5.785  26.599
 7555CHOL    R289795   6.030   5.898  26.548
 7555CHOL    R389796   5.871   5.833  26.430
 7555CHOL    R489797   6.060   5.936  26.417
 7555CHOL    R589798   5.905   5.877  26.280
 7555CHOL    C189799   5.956   5.941  26.054
 7555CHOL    C289800   6.008   6.006  25.829
 7556CHOL   ROH89801  -4.197  20.234  13.868
 7556CHOL    R189802  -4.071  20.142  13.833
 7556CHOL    R289803  -3.867  20.171  13.941
 7556CHOL    R389804  -3.930  20.038  13.793
 7556CHOL    R489805  -3.756  20.090  13.910
 7556CHOL    R589806  -3.804  19.945  13.757
 7556CHOL    C189807  -3.615  19.807  13.704
 7556CHOL    C289808  -3.427  19.669  13.651
 7557CHOL   ROH89809  26.935  14.816  11.816
 7557CHOL    R189810  26.782  14.774  11.797
 7557CHOL    R289811  26.703  14.696  11.592
 7557CHOL    R389812  26.609  14.727  11.776
 7557CHOL    R489813  26.569  14.660  11.575
 7557CHOL    R589814  26.456  14.686  11.756
 7557CHOL    C189815  26.226  14.623  11.728
 7557CHOL    C289816  25.996  14.560  11.699
 7558CHOL   ROH89817  15.460  -1.297  -2.710
 7558CHOL    R189818  15.413  -1.193  -2.598
 7558CHOL    R289819  15.532  -0.997  -2.558
 7558CHOL    R389820  15.359  -1.077  -2.471
 7558CHOL    R489821  15.490  -0.906  -2.460
 7558CHOL    R589822  15.312  -0.973  -2.359
 7558CHOL    C189823  15.241  -0.817  -2.191
 7558CHOL    C289824  15.170  -0.662  -2.022
 7559CHOL   ROH89825  23.735  10.042  21.171
 7559CHOL    R189826  23.611  10.043  21.070
 7559CHOL    R289827  23.615  10.172  20.876
 7559CHOL    R389828  23.471  10.044  20.956
 7559CHOL    R489829  23.506  10.173  20.788
 7559CHOL    R589830  23.347  10.044  20.855
 7559CHOL    C189831  23.161  10.046  20.704
 7559CHOL    C289832  22.975  10.047  20.553
 7560CHOL   ROH89833  12.565  27.124   5.868
 7560CHOL    R189834  12.538  26.971   5.907
 7560CHOL    R289835  12.660  26.867   6.075
 7560CHOL    R389836  12.507  26.799   5.951
 7560CHOL    R489837  12.637  26.733   6.109
 7560CHOL    R589838  12.480  26.646   5.989
 7560CHOL    C189839  12.439  26.417   6.048
 7560CHOL    C289840  12.398  26.188   6.106
 7561CHOL   ROH89841  -0.687  16.342  -3.004
 7561CHOL    R189842  -0.594  16.287  -2.886
 7561CHOL    R289843  -0.381  16.374  -2.851
 7561CHOL    R389844  -0.490  16.225  -2.753
 7561CHOL    R489845  -0.299  16.325  -2.748
 7561CHOL    R589846  -0.397  16.170  -2.636
 7561CHOL    C189847  -0.258  16.087  -2.459
 7561CHOL    C289848  -0.119  16.004  -2.282
 7562CHOL   ROH89849  -6.523   6.440   3.746
 7562CHOL    R189850  -6.376   6.468   3.803
 7562CHOL    R289851  -6.344   6.534   4.024
 7562CHOL    R389852  -6.211   6.501   3.867
 7562CHOL    R489853  -6.216   6.559   4.074
 7562CHOL    R589854  -6.064   6.529   3.924
 7562CHOL    C189855  -5.844   6.572   4.009
 7562CHOL    C289856  -5.624   6.614   4.095
 7563CHOL   ROH89857  -4.231  20.982   8.982
 7563CHOL    R189858  -4.106  20.882   8.988
 7563CHOL    R289859  -3.913  20.939   9.107
 7563CHOL    R389860  -3.965  20.770   8.996
 7563CHOL    R489861  -3.804  20.852   9.113
 7563CHOL    R589862  -3.840  20.671   9.002
 7563CHOL    C189863  -3.653  20.521   9.012
 7563CHOL    C289864  -3.466  20.371   9.021
 7564CHOL   ROH89865  11.205   8.212  -7.800
 7564CHOL    R189866  11.197   8.229  -7.641
 7564CHOL    R289867  11.167   8.439  -7.544
 7564CHOL    R389868  11.188   8.248  -7.462
 7564CHOL    R489869  11.159   8.454  -7.405
 7564CHOL    R589870  11.179   8.265  -7.304
 7564CHOL    C189871  11.167   8.290  -7.065
 7564CHOL    C289872  11.155   8.316  -6.827
 7565CHOL   ROH89873  10.395  -1.032  23.977
 7565CHOL    R189874  10.387  -0.932  23.853
 7565CHOL    R289875  10.539  -0.756  23.830
 7565CHOL    R389876  10.378  -0.819  23.712
 7565CHOL    R489877  10.532  -0.668  23.721
 7565CHOL    R589878  10.370  -0.719  23.588
 7565CHOL    C189879  10.359  -0.569  23.401
 7565CHOL    C289880  10.347  -0.419  23.215
 7566CHOL   ROH89881  24.558   7.666   0.066
 7566CHOL    R189882  24.426   7.681   0.155
 7566CHOL    R289883  24.215   7.642   0.065
 7566CHOL    R389884  24.278   7.698   0.256
 7566CHOL    R489885  24.099   7.655   0.144
 7566CHOL    R589886  24.146   7.713   0.345
 7566CHOL    C189887  23.948   7.736   0.480
 7566CHOL    C289888  23.750   7.758   0.614
 7567CHOL   ROH89889  22.122  19.806   1.512
 7567CHOL    R189890  22.015  19.715   1.589
 7567CHOL    R289891  21.829  19.629   1.478
 7567CHOL    R389892  21.896  19.612   1.676
 7567CHOL    R489893  21.735  19.549   1.546
 7567CHOL    R589894  21.789  19.520   1.753
 7567CHOL    C189895  21.629  19.383   1.868
 7567CHOL    C289896  21.469  19.246   1.983
 7568CHOL   ROH89897  26.119  13.751  16.182
 7568CHOL    R189898  25.972  13.718  16.129
 7568CHOL    R289899  25.910  13.499  16.077
 7568CHOL    R389900  25.807  13.680  16.068
 7568CHOL    R489901  25.781  13.469  16.031
 7568CHOL    R589902  25.659  13.646  16.015
 7568CHOL    C189903  25.439  13.596  15.935
 7568CHOL    C289904  25.218  13.546  15.855
 7569CHOL   ROH89905   8.281   0.128  -4.909
 7569CHOL    R189906   8.292   0.216  -4.776
 7569CHOL    R289907   8.454   0.169  -4.615
 7569CHOL    R389908   8.305   0.315  -4.626
 7569CHOL    R489909   8.464   0.246  -4.498
 7569CHOL    R589910   8.316   0.402  -4.493
 7569CHOL    C189911   8.333   0.534  -4.293
 7569CHOL    C289912   8.350   0.666  -4.093
 7570CHOL   ROH89913  21.742  -2.732   5.911
 7570CHOL    R189914  21.636  -2.618   5.947
 7570CHOL    R289915  21.532  -2.493   5.779
 7570CHOL    R389916  21.516  -2.490   5.987
 7570CHOL    R489917  21.439  -2.394   5.810
 7570CHOL    R589918  21.409  -2.376   6.023
 7570CHOL    C189919  21.250  -2.205   6.077
 7570CHOL    C289920  21.090  -2.034   6.131
 7571CHOL   ROH89921  23.344  -1.683   8.926
 7571CHOL    R189922  23.223  -1.579   8.936
 7571CHOL    R289923  23.133  -1.481   8.745
 7571CHOL    R389924  23.086  -1.463   8.948
 7571CHOL    R489925  23.027  -1.390   8.754
 7571CHOL    R589926  22.965  -1.359   8.958
 7571CHOL    C189927  22.783  -1.203   8.974
 7571CHOL    C289928  22.601  -1.048   8.990
 7572CHOL   ROH89929  -3.969  17.678   1.719
 7572CHOL    R189930  -3.843  17.610   1.790
 7572CHOL    R289931  -3.722  17.724   1.954
 7572CHOL    R389932  -3.700  17.534   1.870
 7572CHOL    R489933  -3.611  17.664   2.016
 7572CHOL    R589934  -3.574  17.466   1.941
 7572CHOL    C189935  -3.384  17.364   2.048
 7572CHOL    C289936  -3.195  17.262   2.154
 7573CHOL   ROH89937  -2.244  14.973  22.041
 7573CHOL    R189938  -2.140  14.928  21.928
 7573CHOL    R289939  -1.911  14.916  21.974
 7573CHOL    R389940  -2.022  14.877  21.802
 7573CHOL    R489941  -1.820  14.877  21.875
 7573CHOL    R589942  -1.918  14.831  21.689
 7573CHOL    C189943  -1.762  14.764  21.520
 7573CHOL    C289944  -1.605  14.696  21.351
 7574CHOL   ROH89945  26.311  16.765  11.422
 7574CHOL    R189946  26.163  16.705  11.410
 7574CHOL    R289947  26.124  16.477  11.440
 7574CHOL    R389948  25.997  16.637  11.396
 7574CHOL    R489949  25.995  16.424  11.429
 7574CHOL    R589950  25.850  16.576  11.384
 7574CHOL    C189951  25.628  16.486  11.366
 7574CHOL    C289952  25.406  16.396  11.348
 7575CHOL   ROH89953  21.866  17.674  -0.873
 7575CHOL    R189954  21.759  17.604  -0.777
 7575CHOL    R289955  21.817  17.416  -0.650
 7575CHOL    R389956  21.639  17.525  -0.668
 7575CHOL    R489957  21.723  17.355  -0.566
 7575CHOL    R589958  21.533  17.455  -0.572
 7575CHOL    C189959  21.372  17.349  -0.428
 7575CHOL    C289960  21.212  17.244  -0.283
 7576CHOL   ROH89961  -0.985  10.976  24.073
 7576CHOL    R189962  -0.888  10.964  23.947
 7576CHOL    R289963  -0.662  10.911  23.973
 7576CHOL    R389964  -0.778  10.950  23.804
 7576CHOL    R489965  -0.577  10.900  23.863
 7576CHOL    R589966  -0.681  10.938  23.678
 7576CHOL    C189967  -0.535  10.920  23.488
 7576CHOL    C289968  -0.389  10.902  23.299
 7577CHOL   ROH89969  -4.126  20.794   7.023
 7577CHOL    R189970  -4.002  20.697   7.049
 7577CHOL    R289971  -3.984  20.576   7.248
 7577CHOL    R389972  -3.862  20.587   7.079
 7577CHOL    R489973  -3.875  20.491   7.271
 7577CHOL    R589974  -3.738  20.489   7.105
 7577CHOL    C189975  -3.552  20.343   7.144
 7577CHOL    C289976  -3.366  20.197   7.184
 7578CHOL   ROH89977  13.175  23.349  -1.514
 7578CHOL    R189978  13.150  23.229  -1.411
 7578CHOL    R289979  13.226  23.013  -1.457
 7578CHOL    R389980  13.121  23.094  -1.295
 7578CHOL    R489981  13.203  22.909  -1.367
 7578CHOL    R589982  13.095  22.974  -1.192
 7578CHOL    C189983  13.057  22.795  -1.038
 7578CHOL    C289984  13.019  22.615  -0.884
 7579CHOL   ROH89985  27.434  12.532   8.047
 7579CHOL    R189986  27.276  12.514   8.062
 7579CHOL    R289987  27.155  12.385   7.910
 7579CHOL    R389988  27.098  12.494   8.079
 7579CHOL    R489989  27.016  12.369   7.923
 7579CHOL    R589990  26.940  12.476   8.093
 7579CHOL    C189991  26.702  12.448   8.116
 7579CHOL    C289992  26.465  12.421   8.138
 7580CHOL   ROH89993  12.909  25.369  18.450
 7580CHOL    R189994  12.881  25.232  18.372
 7580CHOL    R289995  13.054  25.084  18.323
 7580CHOL    R389996  12.849  25.078  18.284
 7580CHOL    R489997  13.029  24.964  18.255
 7580CHOL    R589998  12.820  24.942  18.206
 7580CHOL    C189999  12.778  24.736  18.089
 7580CHOL    C290000  12.736  24.531  17.972
 7581CHOL   ROH90001  -2.571   6.315  -2.362
 7581CHOL    R190002  -2.458   6.344  -2.252
 7581CHOL    R290003  -2.505   6.324  -2.024
 7581CHOL    R390004  -2.332   6.376  -2.128
 7581CHOL    R490005  -2.406   6.349  -1.928
 7581CHOL    R590006  -2.219   6.405  -2.018
 7581CHOL    C190007  -2.050   6.448  -1.854
 7581CHOL    C290008  -1.881   6.491  -1.689
 7582CHOL   ROH90009   6.825  -0.302  -4.385
 7582CHOL    R190010   6.853  -0.207  -4.259
 7582CHOL    R290011   7.007  -0.268  -4.095
 7582CHOL    R390012   6.884  -0.100  -4.118
 7582CHOL    R490013   7.031  -0.185  -3.985
 7582CHOL    R590014   6.912  -0.006  -3.992
 7582CHOL    C190015   6.954   0.137  -3.803
 7582CHOL    C290016   6.996   0.279  -3.615
 7583CHOL   ROH90017  12.736  21.826  22.967
 7583CHOL    R190018  12.712  21.717  22.852
 7583CHOL    R290019  12.885  21.577  22.782
 7583CHOL    R390020  12.685  21.595  22.723
 7583CHOL    R490021  12.864  21.482  22.681
 7583CHOL    R590022  12.662  21.487  22.607
 7583CHOL    C190023  12.626  21.324  22.435
 7583CHOL    C290024  12.590  21.161  22.262
 7584CHOL   ROH90025  14.729  26.615  14.217
 7584CHOL    R190026  14.687  26.465  14.180
 7584CHOL    R290027  14.639  26.404  13.960
 7584CHOL    R390028  14.640  26.296  14.139
 7584CHOL    R490029  14.602  26.273  13.928
 7584CHOL    R590030  14.598  26.147  14.102
 7584CHOL    C190031  14.535  25.922  14.048
 7584CHOL    C290032  14.472  25.697  13.993
 7585CHOL   ROH90033  19.739   6.875  -4.572
 7585CHOL    R190034  19.653   6.903  -4.440
 7585CHOL    R290035  19.560   7.112  -4.399
 7585CHOL    R390036  19.557   6.933  -4.291
 7585CHOL    R490037  19.485   7.136  -4.283
 7585CHOL    R590038  19.471   6.961  -4.159
 7585CHOL    C190039  19.342   7.002  -3.961
 7585CHOL    C290040  19.214   7.044  -3.763
 7586CHOL   ROH90041   0.799  21.062  -0.800
 7586CHOL    R190042   0.881  20.961  -0.707
 7586CHOL    R290043   1.112  20.942  -0.724
 7586CHOL    R390044   0.972  20.846  -0.602
 7586CHOL    R490045   1.184  20.854  -0.642
 7586CHOL    R590046   1.054  20.745  -0.509
 7586CHOL    C190047   1.176  20.593  -0.369
 7586CHOL    C290048   1.299  20.441  -0.230
 7587CHOL   ROH90049  21.759  -1.165  17.229
 7587CHOL    R190050  21.654  -1.063  17.164
 7587CHOL    R290051  21.666  -0.835  17.207
 7587CHOL    R390052  21.535  -0.949  17.092
 7587CHOL    R490053  21.574  -0.746  17.151
 7587CHOL    R590054  21.430  -0.848  17.027
 7587CHOL    C190055  21.272  -0.695  16.930
 7587CHOL    C290056  21.114  -0.543  16.833
 7588CHOL   ROH90057  21.759  16.852  21.259
 7588CHOL    R190058  21.655  16.793  21.153
 7588CHOL    R290059  21.721  16.635  20.995
 7588CHOL    R390060  21.537  16.726  21.034
 7588CHOL    R490061  21.629  16.583  20.902
 7588CHOL    R590062  21.432  16.667  20.928
 7588CHOL    C190063  21.276  16.578  20.770
 7588CHOL    C290064  21.119  16.489  20.611
 7589CHOL   ROH90065   1.797  15.368  -5.052
 7589CHOL    R190066   1.871  15.321  -4.918
 7589CHOL    R290067   1.781  15.369  -4.708
 7589CHOL    R390068   1.954  15.267  -4.768
 7589CHOL    R490069   1.846  15.327  -4.591
 7589CHOL    R590070   2.028  15.220  -4.634
 7589CHOL    C190071   2.139  15.149  -4.433
 7589CHOL    C290072   2.250  15.078  -4.233
 7590CHOL   ROH90073   0.601   4.001  23.884
 7590CHOL    R190074   0.688   4.056  23.761
 7590CHOL    R290075   0.816   3.910  23.631
 7590CHOL    R390076   0.786   4.117  23.624
 7590CHOL    R490077   0.892   3.958  23.524
 7590CHOL    R590078   0.874   4.171  23.501
 7590CHOL    C190079   1.004   4.253  23.317
 7590CHOL    C290080   1.135   4.335  23.133
 7591CHOL   ROH90081   0.568  15.348  24.134
 7591CHOL    R190082   0.654  15.300  24.008
 7591CHOL    R290083   0.884  15.262  24.027
 7591CHOL    R390084   0.751  15.246  23.866
 7591CHOL    R490085   0.959  15.220  23.917
 7591CHOL    R590086   0.837  15.198  23.740
 7591CHOL    C190087   0.967  15.127  23.552
 7591CHOL    C290088   1.096  15.055  23.363
 7592CHOL   ROH90089  26.043  12.300  17.088
 7592CHOL    R190090  25.897  12.277  17.026
 7592CHOL    R290091  25.847  12.083  16.906
 7592CHOL    R390092  25.734  12.251  16.956
 7592CHOL    R490093  25.720  12.063  16.851
 7592CHOL    R590094  25.588  12.228  16.893
 7592CHOL    C190095  25.370  12.193  16.800
 7592CHOL    C290096  25.151  12.159  16.707
 7593CHOL   ROH90097  26.185  14.570   4.223
 7593CHOL    R190098  26.039  14.528   4.275
 7593CHOL    R290099  25.997  14.312   4.351
 7593CHOL    R390100  25.876  14.481   4.333
 7593CHOL    R490101  25.869  14.275   4.396
 7593CHOL    R590102  25.730  14.439   4.385
 7593CHOL    C190103  25.512  14.376   4.462
 7593CHOL    C290104  25.293  14.313   4.540
 7594CHOL   ROH90105  -5.220  18.517  14.312
 7594CHOL    R190106  -5.086  18.439  14.274
 7594CHOL    R290107  -5.018  18.250  14.394
 7594CHOL    R390108  -4.935  18.350  14.231
 7594CHOL    R490109  -4.901  18.182  14.360
 7594CHOL    R590110  -4.800  18.272  14.192
 7594CHOL    C190111  -4.599  18.154  14.135
 7594CHOL    C290112  -4.398  18.037  14.078
 7595CHOL   ROH90113  12.669  -7.254  13.647
 7595CHOL    R190114  12.645  -7.099  13.614
 7595CHOL    R290115  12.726  -7.005  13.416
 7595CHOL    R390116  12.617  -6.926  13.576
 7595CHOL    R490117  12.705  -6.870  13.387
 7595CHOL    R590118  12.593  -6.771  13.542
 7595CHOL    C190119  12.557  -6.539  13.492
 7595CHOL    C290120  12.520  -6.307  13.442
 7596CHOL   ROH90121  12.961  -3.531  -1.309
 7596CHOL    R190122  12.931  -3.411  -1.208
 7596CHOL    R290123  12.995  -3.423  -0.984
 7596CHOL    R390124  12.897  -3.275  -1.094
 7596CHOL    R490125  12.968  -3.318  -0.895
 7596CHOL    R590126  12.867  -3.155  -0.993
 7596CHOL    C190127  12.821  -2.975  -0.841
 7596CHOL    C290128  12.776  -2.794  -0.690
 7597CHOL   ROH90129  10.624  24.436  20.411
 7597CHOL    R190130  10.614  24.308  20.315
 7597CHOL    R290131  10.672  24.096  20.392
 7597CHOL    R390132  10.603  24.165  20.207
 7597CHOL    R490133  10.663  23.984  20.308
 7597CHOL    R590134  10.593  24.037  20.111
 7597CHOL    C190135  10.577  23.845  19.968
 7597CHOL    C290136  10.562  23.654  19.824
 7598CHOL   ROH90137  15.257  19.055  24.332
 7598CHOL    R190138  15.210  18.976  24.201
 7598CHOL    R290139  15.348  18.818  24.100
 7598CHOL    R390140  15.156  18.887  24.054
 7598CHOL    R490141  15.306  18.748  23.986
 7598CHOL    R590142  15.109  18.807  23.924
 7598CHOL    C190143  15.038  18.689  23.727
 7598CHOL    C290144  14.967  18.570  23.531
 7599CHOL   ROH90145  16.902  -3.698  19.047
 7599CHOL    R190146  16.842  -3.575  18.964
 7599CHOL    R290147  16.914  -3.530  18.747
 7599CHOL    R390148  16.774  -3.437  18.871
 7599CHOL    R490149  16.861  -3.422  18.675
 7599CHOL    R590150  16.714  -3.314  18.788
 7599CHOL    C190151  16.623  -3.130  18.664
 7599CHOL    C290152  16.533  -2.945  18.540
 7600CHOL   ROH90153  17.421   8.876  26.088
 7600CHOL    R190154  17.358   8.890  25.942
 7600CHOL    R290155  17.404   8.733  25.776
 7600CHOL    R390156  17.287   8.906  25.777
 7600CHOL    R490157  17.349   8.745  25.648
 7600CHOL    R590158  17.225   8.920  25.630
 7600CHOL    C190159  17.130   8.941  25.411
 7600CHOL    C290160  17.036   8.962  25.191
 7601CHOL   ROH90161  23.293  21.689   8.457
 7601CHOL    R190162  23.169  21.589   8.473
 7601CHOL    R290163  23.006  21.572   8.308
 7601CHOL    R390164  23.030  21.476   8.491
 7601CHOL    R490165  22.898  21.485   8.322
 7601CHOL    R590166  22.907  21.376   8.508
 7601CHOL    C190167  22.721  21.226   8.532
 7601CHOL    C290168  22.535  21.076   8.556
 7602CHOL   ROH90169  16.361  24.723   2.261
 7602CHOL    R190170  16.303  24.591   2.330
 7602CHOL    R290171  16.397  24.507   2.527
 7602CHOL    R390172  16.239  24.441   2.407
 7602CHOL    R490173  16.346  24.391   2.587
 7602CHOL    R590174  16.181  24.309   2.475
 7602CHOL    C190175  16.095  24.110   2.578
 7602CHOL    C290176  16.008  23.912   2.681
 7603CHOL   ROH90177   7.975   0.188  24.738
 7603CHOL    R190178   7.991   0.272  24.602
 7603CHOL    R290179   8.198   0.360  24.540
 7603CHOL    R390180   8.009   0.365  24.450
 7603CHOL    R490181   8.212   0.433  24.421
 7603CHOL    R590182   8.026   0.449  24.315
 7603CHOL    C190183   8.050   0.574  24.111
 7603CHOL    C290184   8.074   0.700  23.908
 7604CHOL   ROH90185   7.746  -1.728  23.280
 7604CHOL    R190186   7.764  -1.622  23.161
 7604CHOL    R290187   7.923  -1.655  22.994
 7604CHOL    R390188   7.784  -1.503  23.028
 7604CHOL    R490189   7.938  -1.563  22.890
 7604CHOL    R590190   7.801  -1.397  22.909
 7604CHOL    C190191   7.828  -1.239  22.731
 7604CHOL    C290192   7.855  -1.080  22.553
 7605CHOL   ROH90193   5.929   8.943  27.289
 7605CHOL    R190194   5.963   8.946  27.133
 7605CHOL    R290195   6.181   8.984  27.058
 7605CHOL    R390196   6.001   8.950  26.957
 7605CHOL    R490197   6.211   8.987  26.921
 7605CHOL    R590198   6.035   8.953  26.801
 7605CHOL    C190199   6.087   8.959  26.566
 7605CHOL    C290200   6.138   8.964  26.332
 7606CHOL   ROH90201   0.523  20.782  20.689
 7606CHOL    R190202   0.607  20.687  20.591
 7606CHOL    R290203   0.771  20.544  20.674
 7606CHOL    R390204   0.701  20.581  20.481
 7606CHOL    R490205   0.844  20.461  20.589
 7606CHOL    R590206   0.785  20.486  20.383
 7606CHOL    C190207   0.911  20.344  20.236
 7606CHOL    C290208   1.037  20.202  20.089
 7607CHOL   ROH90209  21.451  11.821  -3.520
 7607CHOL    R190210  21.347  11.805  -3.399
 7607CHOL    R290211  21.255  11.597  -3.347
 7607CHOL    R390212  21.230  11.787  -3.264
 7607CHOL    R490213  21.164  11.583  -3.242
 7607CHOL    R590214  21.126  11.770  -3.143
 7607CHOL    C190215  20.970  11.746  -2.962
 7607CHOL    C290216  20.814  11.722  -2.781
 7608CHOL   ROH90217   6.999  24.324  20.203
 7608CHOL    R190218   7.026  24.197  20.109
 7608CHOL    R290219   7.232  24.088  20.110
 7608CHOL    R390220   7.055  24.055  20.003
 7608CHOL    R490221   7.255  23.977  20.028
 7608CHOL    R590222   7.082  23.928  19.909
 7608CHOL    C190223   7.122  23.738  19.769
 7608CHOL    C290224   7.162  23.548  19.628
 7609CHOL   ROH90225  24.646   8.030  19.667
 7609CHOL    R190226  24.513   8.051  19.580
 7609CHOL    R290227  24.508   7.995  19.354
 7609CHOL    R390228  24.364   8.074  19.482
 7609CHOL    R490229  24.392   8.013  19.278
 7609CHOL    R590230  24.231   8.094  19.396
 7609CHOL    C190231  24.032   8.125  19.265
 7609CHOL    C290232  23.833   8.156  19.135
 7610CHOL   ROH90233  -0.046   3.089  22.967
 7610CHOL    R190234   0.045   3.149  22.850
 7610CHOL    R290235   0.268   3.206  22.889
 7610CHOL    R390236   0.148   3.216  22.718
 7610CHOL    R490237   0.348   3.258  22.787
 7610CHOL    R590238   0.239   3.276  22.601
 7610CHOL    C190239   0.377   3.366  22.426
 7610CHOL    C290240   0.514   3.456  22.251
 7611CHOL   ROH90241   3.428  -0.709  22.768
 7611CHOL    R190242   3.486  -0.611  22.656
 7611CHOL    R290243   3.714  -0.569  22.639
 7611CHOL    R390244   3.550  -0.500  22.529
 7611CHOL    R490245   3.765  -0.483  22.540
 7611CHOL    R590246   3.608  -0.402  22.417
 7611CHOL    C190247   3.694  -0.255  22.248
 7611CHOL    C290248   3.781  -0.107  22.079
 7612CHOL   ROH90249   3.880  15.286  -6.047
 7612CHOL    R190250   3.934  15.238  -5.904
 7612CHOL    R290251   3.826  15.300  -5.707
 7612CHOL    R390252   3.995  15.183  -5.744
 7612CHOL    R490253   3.874  15.258  -5.583
 7612CHOL    R590254   4.050  15.135  -5.602
 7612CHOL    C190255   4.131  15.062  -5.388
 7612CHOL    C290256   4.212  14.989  -5.174
 7613CHOL   ROH90257  11.236  12.929  -7.628
 7613CHOL    R190258  11.224  12.900  -7.471
 7613CHOL    R290259  11.298  12.698  -7.380
 7613CHOL    R390260  11.209  12.867  -7.295
 7613CHOL    R490261  11.287  12.673  -7.243
 7613CHOL    R590262  11.197  12.838  -7.138
 7613CHOL    C190263  11.178  12.794  -6.903
 7613CHOL    C290264  11.160  12.751  -6.668
 7614CHOL   ROH90265   2.660  -1.926  21.139
 7614CHOL    R190266   2.724  -1.819  21.039
 7614CHOL    R290267   2.834  -1.630  21.119
 7614CHOL    R390268   2.796  -1.699  20.925
 7614CHOL    R490269   2.890  -1.536  21.031
 7614CHOL    R590270   2.860  -1.592  20.825
 7614CHOL    C190271   2.956  -1.432  20.674
 7614CHOL    C290272   3.052  -1.271  20.524
 7615CHOL   ROH90273  -1.969  -0.489   1.511
 7615CHOL    R190274  -1.864  -0.396   1.587
 7615CHOL    R290275  -1.695  -0.489   1.720
 7615CHOL    R390276  -1.745  -0.291   1.674
 7615CHOL    R490277  -1.603  -0.408   1.787
 7615CHOL    R590278  -1.639  -0.199   1.750
 7615CHOL    C190279  -1.481  -0.059   1.865
 7615CHOL    C290280  -1.323   0.080   1.979
 7616CHOL   ROH90281   5.057  27.219   9.493
 7616CHOL    R190282   5.100  27.065   9.497
 7616CHOL    R290283   5.171  26.966   9.696
 7616CHOL    R390284   5.148  26.892   9.502
 7616CHOL    R490285   5.208  26.831   9.700
 7616CHOL    R590286   5.191  26.738   9.506
 7616CHOL    C190287   5.255  26.506   9.513
 7616CHOL    C290288   5.319  26.275   9.519
 7617CHOL   ROH90289   7.615   6.342  27.246
 7617CHOL    R190290   7.636   6.377  27.091
 7617CHOL    R290291   7.848   6.366  26.994
 7617CHOL    R390292   7.660   6.417  26.918
 7617CHOL    R490293   7.866   6.396  26.858
 7617CHOL    R590294   7.682   6.452  26.763
 7617CHOL    C190295   7.713   6.505  26.531
 7617CHOL    C290296   7.745   6.558  26.299
 7618CHOL   ROH90297   1.673   5.288  25.078
 7618CHOL    R190298   1.749   5.332  24.944
 7618CHOL    R290299   1.887   5.182  24.830
 7618CHOL    R390300   1.835   5.381  24.794
 7618CHOL    R490301   1.953   5.220  24.713
 7618CHOL    R590302   1.911   5.425  24.660
 7618CHOL    C190303   2.025   5.490  24.459
 7618CHOL    C290304   2.139   5.556  24.259
 7619CHOL   ROH90305   9.848  -6.960  15.670
 7619CHOL    R190306   9.847  -6.809  15.617
 7619CHOL    R290307   9.894  -6.631  15.761
 7619CHOL    R390308   9.847  -6.639  15.557
 7619CHOL    R490309   9.893  -6.499  15.714
 7619CHOL    R590310   9.846  -6.488  15.505
 7619CHOL    C190311   9.845  -6.261  15.425
 7619CHOL    C290312   9.844  -6.035  15.346
 7620CHOL   ROH90313  -5.337  19.450   9.703
 7620CHOL    R190314  -5.201  19.365   9.703
 7620CHOL    R290315  -5.115  19.276   9.901
 7620CHOL    R390316  -5.048  19.270   9.703
 7620CHOL    R490317  -4.996  19.202   9.901
 7620CHOL    R590318  -4.913  19.186   9.703
 7620CHOL    C190319  -4.709  19.059   9.703
 7620CHOL    C290320  -4.505  18.932   9.703
 7621CHOL   ROH90321  -7.511   6.299   7.822
 7621CHOL    R190322  -7.357   6.337   7.839
 7621CHOL    R290323  -7.282   6.457   8.025
 7621CHOL    R390324  -7.183   6.381   7.858
 7621CHOL    R490325  -7.147   6.491   8.039
 7621CHOL    R590326  -7.028   6.419   7.875
 7621CHOL    C190327  -6.797   6.477   7.900
 7621CHOL    C290328  -6.565   6.534   7.925
 7622CHOL   ROH90329   8.465  -6.235  17.292
 7622CHOL    R190330   8.479  -6.090  17.226
 7622CHOL    R290331   8.678  -5.969  17.242
 7622CHOL    R390332   8.494  -5.926  17.153
 7622CHOL    R490333   8.690  -5.842  17.185
 7622CHOL    R590334   8.508  -5.781  17.087
 7622CHOL    C190335   8.529  -5.563  16.989
 7622CHOL    C290336   8.549  -5.345  16.890
 7623CHOL   ROH90337  12.415  -5.639   1.631
 7623CHOL    R190338  12.394  -5.501   1.709
 7623CHOL    R290339  12.422  -5.296   1.600
 7623CHOL    R390340  12.370  -5.345   1.796
 7623CHOL    R490341  12.403  -5.176   1.667
 7623CHOL    R590342  12.348  -5.207   1.873
 7623CHOL    C190343  12.317  -5.000   1.990
 7623CHOL    C290344  12.285  -4.792   2.106
 7624CHOL   ROH90345  -3.723  16.985   0.679
 7624CHOL    R190346  -3.599  16.920   0.756
 7624CHOL    R290347  -3.509  17.020   0.946
 7624CHOL    R390348  -3.459  16.846   0.842
 7624CHOL    R490349  -3.400  16.963   1.013
 7624CHOL    R590350  -3.335  16.780   0.919
 7624CHOL    C190351  -3.149  16.682   1.034
 7624CHOL    C290352  -2.963  16.584   1.149
 7625CHOL   ROH90353  10.086   8.380  -7.837
 7625CHOL    R190354  10.087   8.396  -7.678
 7625CHOL    R290355  10.279   8.469  -7.566
 7625CHOL    R390356  10.089   8.413  -7.499
 7625CHOL    R490357  10.280   8.483  -7.427
 7625CHOL    R590358  10.091   8.429  -7.340
 7625CHOL    C190359  10.093   8.452  -7.101
 7625CHOL    C290360  10.095   8.475  -6.862
 7626CHOL   ROH90361  -5.777   4.277   3.334
 7626CHOL    R190362  -5.636   4.328   3.390
 7626CHOL    R290363  -5.622   4.436   3.597
 7626CHOL    R390364  -5.478   4.386   3.454
 7626CHOL    R490365  -5.499   4.481   3.646
 7626CHOL    R590366  -5.337   4.437   3.511
 7626CHOL    C190367  -5.127   4.514   3.595
 7626CHOL    C290368  -4.916   4.591   3.680
 7627CHOL   ROH90369  -2.456  20.511  17.457
 7627CHOL    R190370  -2.346  20.417  17.389
 7627CHOL    R290371  -2.127  20.491  17.358
 7627CHOL    R390372  -2.222  20.311  17.313
 7627CHOL    R490373  -2.031  20.409  17.299
 7627CHOL    R590374  -2.112  20.216  17.245
 7627CHOL    C190375  -1.947  20.075  17.143
 7627CHOL    C290376  -1.782  19.934  17.041
 7628CHOL   ROH90377   5.548  -6.970   6.344
 7628CHOL    R190378   5.586  -6.818   6.377
 7628CHOL    R290379   5.797  -6.734   6.325
 7628CHOL    R390380   5.629  -6.648   6.415
 7628CHOL    R490381   5.831  -6.601   6.354
 7628CHOL    R590382   5.667  -6.496   6.448
 7628CHOL    C190383   5.725  -6.268   6.498
 7628CHOL    C290384   5.782  -6.041   6.548
 7629CHOL   ROH90385   0.862  23.216  17.885
 7629CHOL    R190386   0.942  23.095  17.817
 7629CHOL    R290387   1.159  23.043  17.882
 7629CHOL    R390388   1.031  22.959  17.740
 7629CHOL    R490389   1.229  22.937  17.822
 7629CHOL    R590390   1.111  22.838  17.672
 7629CHOL    C190391   1.230  22.657  17.570
 7629CHOL    C290392   1.349  22.475  17.468
 7630CHOL   ROH90393  19.059  25.174  11.169
 7630CHOL    R190394  18.981  25.034  11.165
 7630CHOL    R290395  19.006  24.878  11.336
 7630CHOL    R390396  18.894  24.877  11.159
 7630CHOL    R490397  18.938  24.756  11.332
 7630CHOL    R590398  18.816  24.738  11.155
 7630CHOL    C190399  18.699  24.528  11.148
 7630CHOL    C290400  18.583  24.318  11.142
 7631CHOL   ROH90401  -3.530   6.636  21.279
 7631CHOL    R190402  -3.410   6.665  21.177
 7631CHOL    R290403  -3.237   6.810  21.235
 7631CHOL    R390404  -3.275   6.698  21.063
 7631CHOL    R490405  -3.132   6.836  21.145
 7631CHOL    R590406  -3.156   6.727  20.961
 7631CHOL    C190407  -2.976   6.771  20.808
 7631CHOL    C290408  -2.796   6.814  20.656
 7632CHOL   ROH90409   7.741  12.699  -7.600
 7632CHOL    R190410   7.759  12.677  -7.443
 7632CHOL    R290411   7.582  12.712  -7.295
 7632CHOL    R390412   7.780  12.651  -7.266
 7632CHOL    R490413   7.598  12.693  -7.158
 7632CHOL    R590414   7.798  12.629  -7.109
 7632CHOL    C190415   7.825  12.595  -6.873
 7632CHOL    C290416   7.853  12.562  -6.637
 7633CHOL   ROH90417  25.205  10.809   0.892
 7633CHOL    R190418  25.069  10.802   0.976
 7633CHOL    R290419  24.928  10.988   0.991
 7633CHOL    R390420  24.917  10.795   1.072
 7633CHOL    R490421  24.809  10.982   1.065
 7633CHOL    R590422  24.781  10.788   1.156
 7633CHOL    C190423  24.577  10.779   1.283
 7633CHOL    C290424  24.374  10.769   1.409
 7634CHOL   ROH90425   1.701   9.941  25.867
 7634CHOL    R190426   1.770   9.940  25.723
 7634CHOL    R290427   1.952   9.800  25.678
 7634CHOL    R390428   1.848   9.938  25.560
 7634CHOL    R490429   2.012   9.799  25.552
 7634CHOL    R590430   1.917   9.937  25.416
 7634CHOL    C190431   2.021   9.934  25.200
 7634CHOL    C290432   2.124   9.932  24.983
 7635CHOL   ROH90433   8.191  -7.620  12.246
 7635CHOL    R190434   8.205  -7.462  12.228
 7635CHOL    R290435   8.276  -7.326  12.404
 7635CHOL    R390436   8.221  -7.284  12.207
 7635CHOL    R490437   8.289  -7.188  12.388
 7635CHOL    R590438   8.235  -7.125  12.189
 7635CHOL    C190439   8.257  -6.888  12.162
 7635CHOL    C290440   8.278  -6.651  12.134
 7636CHOL   ROH90441  -7.250  14.052   7.046
 7636CHOL    R190442  -7.097  14.017   7.076
 7636CHOL    R290443  -6.995  14.084   7.274
 7636CHOL    R390444  -6.924  13.977   7.109
 7636CHOL    R490445  -6.860  14.053   7.300
 7636CHOL    R590446  -6.771  13.942   7.139
 7636CHOL    C190447  -6.541  13.889   7.184
 7636CHOL    C290448  -6.311  13.836   7.228
 7637CHOL   ROH90449  10.845  17.072  -6.403
 7637CHOL    R190450  10.834  17.009  -6.256
 7637CHOL    R290451  10.844  16.778  -6.224
 7637CHOL    R390452  10.823  16.938  -6.091
 7637CHOL    R490453  10.834  16.723  -6.095
 7637CHOL    R590454  10.812  16.875  -5.944
 7637CHOL    C190455  10.796  16.780  -5.724
 7637CHOL    C290456  10.780  16.686  -5.504
 7638CHOL   ROH90457  -3.242   0.104  16.983
 7638CHOL    R190458  -3.124   0.192  16.922
 7638CHOL    R290459  -2.940   0.092  16.819
 7638CHOL    R390460  -2.990   0.292  16.853
 7638CHOL    R490461  -2.836   0.169  16.765
 7638CHOL    R590462  -2.872   0.380  16.791
 7638CHOL    C190463  -2.694   0.512  16.700
 7638CHOL    C290464  -2.517   0.645  16.608
 7639CHOL   ROH90465   5.707   6.144  26.838
 7639CHOL    R190466   5.742   6.184  26.687
 7639CHOL    R290467   5.956   6.258  26.629
 7639CHOL    R390468   5.782   6.228  26.517
 7639CHOL    R490469   5.986   6.292  26.497
 7639CHOL    R590470   5.817   6.268  26.366
 7639CHOL    C190471   5.870   6.327  26.139
 7639CHOL    C290472   5.923   6.386  25.913
 7640CHOL   ROH90473  -4.414  19.718   5.313
 7640CHOL    R190474  -4.286  19.634   5.357
 7640CHOL    R290475  -4.251  19.576   5.581
 7640CHOL    R390476  -4.141  19.539   5.408
 7640CHOL    R490477  -4.139  19.502   5.620
 7640CHOL    R590478  -4.012  19.455   5.452
 7640CHOL    C190479  -3.820  19.328   5.519
 7640CHOL    C290480  -3.627  19.202   5.585
 7641CHOL   ROH90481  11.886  23.416  -1.661
 7641CHOL    R190482  11.873  23.296  -1.556
 7641CHOL    R290483  12.062  23.183  -1.479
 7641CHOL    R390484  11.858  23.161  -1.437
 7641CHOL    R490485  12.050  23.078  -1.387
 7641CHOL    R590486  11.845  23.041  -1.332
 7641CHOL    C190487  11.825  22.862  -1.174
 7641CHOL    C290488  11.806  22.682  -1.016
 7642CHOL   ROH90489  21.942  19.109   0.495
 7642CHOL    R190490  21.835  19.023   0.577
 7642CHOL    R290491  21.667  18.904   0.466
 7642CHOL    R390492  21.714  18.926   0.669
 7642CHOL    R490493  21.573  18.829   0.538
 7642CHOL    R590494  21.607  18.840   0.750
 7642CHOL    C190495  21.446  18.711   0.873
 7642CHOL    C290496  21.285  18.582   0.996
 7643CHOL   ROH90497  26.359   7.374   3.593
 7643CHOL    R190498  26.211   7.397   3.649
 7643CHOL    R290499  26.109   7.606   3.636
 7643CHOL    R390500  26.044   7.422   3.712
 7643CHOL    R490501  25.979   7.626   3.685
 7643CHOL    R590502  25.896   7.445   3.767
 7643CHOL    C190503  25.674   7.479   3.851
 7643CHOL    C290504  25.452   7.513   3.935
 7644CHOL   ROH90505  22.829  19.593   2.301
 7644CHOL    R190506  22.715  19.504   2.370
 7644CHOL    R290507  22.702  19.275   2.331
 7644CHOL    R390508  22.588  19.405   2.449
 7644CHOL    R490509  22.602  19.197   2.392
 7644CHOL    R590510  22.474  19.316   2.518
 7644CHOL    C190511  22.304  19.183   2.622
 7644CHOL    C290512  22.133  19.050   2.726
 7645CHOL   ROH90513  19.208  -4.791   6.327
 7645CHOL    R190514  19.127  -4.657   6.361
 7645CHOL    R290515  19.239  -4.458   6.409
 7645CHOL    R390516  19.036  -4.507   6.399
 7645CHOL    R490517  19.168  -4.341   6.439
 7645CHOL    R590518  18.955  -4.373   6.432
 7645CHOL    C190519  18.834  -4.172   6.483
 7645CHOL    C290520  18.712  -3.972   6.534
 7646CHOL   ROH90521  -0.445   2.840  22.520
 7646CHOL    R190522  -0.352   2.901  22.405
 7646CHOL    R290523  -0.127   2.947  22.445
 7646CHOL    R390524  -0.247   2.970  22.276
 7646CHOL    R490525  -0.045   3.001  22.345
 7646CHOL    R590526  -0.153   3.031  22.161
 7646CHOL    C190527  -0.014   3.123  21.989
 7646CHOL    C290528   0.126   3.214  21.817
 7647CHOL   ROH90529   9.436  24.028  -1.020
 7647CHOL    R190530   9.443  23.902  -0.921
 7647CHOL    R290531   9.533  23.699  -0.991
 7647CHOL    R390532   9.450  23.761  -0.810
 7647CHOL    R490533   9.539  23.589  -0.905
 7647CHOL    R590534   9.457  23.635  -0.712
 7647CHOL    C190535   9.466  23.446  -0.563
 7647CHOL    C290536   9.476  23.258  -0.415
 7648CHOL   ROH90537   8.234  -6.470   3.230
 7648CHOL    R190538   8.249  -6.323   3.291
 7648CHOL    R290539   8.440  -6.261   3.410
 7648CHOL    R390540   8.266  -6.158   3.360
 7648CHOL    R490541   8.454  -6.133   3.463
 7648CHOL    R590542   8.281  -6.011   3.421
 7648CHOL    C190543   8.304  -5.790   3.513
 7648CHOL    C290544   8.327  -5.569   3.605
 7649CHOL   ROH90545  17.768  -0.857  21.695
 7649CHOL    R190546  17.696  -0.759  21.591
 7649CHOL    R290547  17.715  -0.527  21.612
 7649CHOL    R390548  17.615  -0.648  21.475
 7649CHOL    R490549  17.651  -0.441  21.522
 7649CHOL    R590550  17.543  -0.550  21.371
 7649CHOL    C190551  17.434  -0.403  21.215
 7649CHOL    C290552  17.326  -0.255  21.060
 7650CHOL   ROH90553   5.777   7.435  -7.261
 7650CHOL    R190554   5.812   7.457  -7.106
 7650CHOL    R290555   5.697   7.342  -6.940
 7650CHOL    R390556   5.850   7.483  -6.933
 7650CHOL    R490557   5.727   7.361  -6.804
 7650CHOL    R590558   5.885   7.505  -6.778
 7650CHOL    C190559   5.937   7.539  -6.546
 7650CHOL    C290560   5.989   7.572  -6.314
 7651CHOL   ROH90561  -2.647   7.625  -2.551
 7651CHOL    R190562  -2.533   7.642  -2.440
 7651CHOL    R290563  -2.567   7.777  -2.253
 7651CHOL    R390564  -2.405   7.662  -2.315
 7651CHOL    R490565  -2.468   7.792  -2.156
 7651CHOL    R590566  -2.291   7.679  -2.204
 7651CHOL    C190567  -2.120   7.705  -2.037
 7651CHOL    C290568  -1.949   7.731  -1.871
 7652CHOL   ROH90569  25.574   9.850   1.483
 7652CHOL    R190570  25.434   9.851   1.561
 7652CHOL    R290571  25.307   9.657   1.581
 7652CHOL    R390572  25.277   9.852   1.649
 7652CHOL    R490573  25.185   9.658   1.649
 7652CHOL    R590574  25.138   9.853   1.726
 7652CHOL    C190575  24.928   9.854   1.843
 7652CHOL    C290576  24.718   9.856   1.960
 7653CHOL   ROH90577  17.749  11.767  -5.964
 7653CHOL    R190578  17.676  11.755  -5.822
 7653CHOL    R290579  17.532  11.923  -5.747
 7653CHOL    R390580  17.593  11.742  -5.663
 7653CHOL    R490581  17.468  11.913  -5.623
 7653CHOL    R590582  17.520  11.730  -5.521
 7653CHOL    C190583  17.410  11.712  -5.308
 7653CHOL    C290584  17.300  11.694  -5.096
 7654CHOL   ROH90585  11.846  25.531   1.397
 7654CHOL    R190586  11.824  25.391   1.472
 7654CHOL    R290587  11.997  25.235   1.486
 7654CHOL    R390588  11.800  25.234   1.556
 7654CHOL    R490589  11.978  25.113   1.552
 7654CHOL    R590590  11.778  25.094   1.631
 7654CHOL    C190591  11.746  24.885   1.743
 7654CHOL    C290592  11.714  24.675   1.856
 7655CHOL   ROH90593  -7.041   8.792  15.580
 7655CHOL    R190594  -6.890   8.802  15.529
 7655CHOL    R290595  -6.741   8.625  15.561
 7655CHOL    R390596  -6.719   8.813  15.472
 7655CHOL    R490597  -6.608   8.634  15.516
 7655CHOL    R590598  -6.568   8.823  15.421
 7655CHOL    C190599  -6.341   8.838  15.345
 7655CHOL    C290600  -6.114   8.853  15.268
 7656CHOL   ROH90601  -7.321   6.090   6.844
 7656CHOL    R190602  -7.168   6.128   6.871
 7656CHOL    R290603  -7.108   6.259   7.054
 7656CHOL    R390604  -6.996   6.172   6.901
 7656CHOL    R490605  -6.974   6.292   7.078
 7656CHOL    R590606  -6.843   6.210   6.927
 7656CHOL    C190607  -6.614   6.268   6.968
 7656CHOL    C290608  -6.384   6.325   7.008
 7657CHOL   ROH90609   7.491  27.689   9.594
 7657CHOL    R190610   7.509  27.530   9.598
 7657CHOL    R290611   7.574  27.411   9.409
 7657CHOL    R390612   7.528  27.351   9.604
 7657CHOL    R490613   7.589  27.272   9.413
 7657CHOL    R590614   7.546  27.192   9.608
 7657CHOL    C190615   7.572  26.953   9.615
 7657CHOL    C290616   7.599  26.715   9.621
 7658CHOL   ROH90617  11.566  27.046  14.885
 7658CHOL    R190618  11.549  26.892  14.843
 7658CHOL    R290619  11.733  26.765  14.778
 7658CHOL    R390620  11.530  26.720  14.796
 7658CHOL    R490621  11.718  26.631  14.741
 7658CHOL    R590622  11.513  26.566  14.754
 7658CHOL    C190623  11.488  26.336  14.692
 7658CHOL    C290624  11.463  26.105  14.629
 7659CHOL   ROH90625  21.001  16.359  -2.498
 7659CHOL    R190626  20.903  16.302  -2.385
 7659CHOL    R290627  20.777  16.109  -2.421
 7659CHOL    R390628  20.793  16.239  -2.258
 7659CHOL    R490629  20.691  16.060  -2.322
 7659CHOL    R590630  20.695  16.182  -2.144
 7659CHOL    C190631  20.548  16.097  -1.975
 7659CHOL    C290632  20.401  16.012  -1.805
 7660CHOL   ROH90633  -4.684   6.348  19.703
 7660CHOL    R190634  -4.556   6.377  19.612
 7660CHOL    R290635  -4.402   6.542  19.670
 7660CHOL    R390636  -4.411   6.409  19.510
 7660CHOL    R490637  -4.289   6.567  19.591
 7660CHOL    R590638  -4.283   6.438  19.418
 7660CHOL    C190639  -4.090   6.481  19.282
 7660CHOL    C290640  -3.897   6.524  19.145
 7661CHOL   ROH90641  12.621   1.152  -5.322
 7661CHOL    R190642  12.597   1.233  -5.186
 7661CHOL    R290643  12.775   1.283  -5.044
 7661CHOL    R390644  12.571   1.325  -5.034
 7661CHOL    R490645  12.754   1.355  -4.925
 7661CHOL    R590646  12.547   1.406  -4.898
 7661CHOL    C190647  12.511   1.528  -4.694
 7661CHOL    C290648  12.476   1.650  -4.491
 7662CHOL   ROH90649  25.761   2.365  12.807
 7662CHOL    R190650  25.617   2.431  12.783
 7662CHOL    R290651  25.462   2.332  12.639
 7662CHOL    R390652  25.456   2.506  12.755
 7662CHOL    R490653  25.337   2.390  12.618
 7662CHOL    R590654  25.312   2.572  12.731
 7662CHOL    C190655  25.097   2.671  12.694
 7662CHOL    C290656  24.882   2.771  12.657
 7663CHOL   ROH90657  25.787   9.266   1.911
 7663CHOL    R190658  25.645   9.273   1.984
 7663CHOL    R290659  25.490   9.100   1.961
 7663CHOL    R390660  25.485   9.280   2.067
 7663CHOL    R490661  25.366   9.106   2.025
 7663CHOL    R590662  25.343   9.286   2.140
 7663CHOL    C190663  25.131   9.296   2.251
 7663CHOL    C290664  24.918   9.306   2.361
 7664CHOL   ROH90665  20.314   1.507  21.619
 7664CHOL    R190666  20.219   1.581  21.514
 7664CHOL    R290667  20.277   1.595  21.288
 7664CHOL    R390668  20.112   1.665  21.395
 7664CHOL    R490669  20.194   1.660  21.196
 7664CHOL    R590670  20.017   1.739  21.290
 7664CHOL    C190671  19.874   1.850  21.132
 7664CHOL    C290672  19.732   1.962  20.974
 7665CHOL   ROH90673   6.994  22.284  22.478
 7665CHOL    R190674   7.022  22.174  22.365
 7665CHOL    R290675   7.131  22.230  22.167
 7665CHOL    R390676   7.052  22.050  22.238
 7665CHOL    R490677   7.155  22.134  22.068
 7665CHOL    R590678   7.080  21.940  22.125
 7665CHOL    C190679   7.121  21.775  21.956
 7665CHOL    C290680   7.163  21.610  21.787
 7666CHOL   ROH90681   8.209  13.008  27.406
 7666CHOL    R190682   8.231  12.984  27.249
 7666CHOL    R290683   8.382  12.824  27.173
 7666CHOL    R390684   8.256  12.957  27.073
 7666CHOL    R490685   8.402  12.803  27.036
 7666CHOL    R590686   8.278  12.933  26.917
 7666CHOL    C190687   8.311  12.896  26.682
 7666CHOL    C290688   8.344  12.860  26.447
 7667CHOL   ROH90689  -5.843  11.288  18.365
 7667CHOL    R190690  -5.704  11.277  18.287
 7667CHOL    R290691  -5.561  11.096  18.321
 7667CHOL    R390692  -5.548  11.264  18.198
 7667CHOL    R490693  -5.439  11.086  18.253
 7667CHOL    R590694  -5.408  11.253  18.120
 7667CHOL    C190695  -5.200  11.236  18.002
 7667CHOL    C290696  -4.991  11.219  17.885
 7668CHOL   ROH90697  13.723   0.307  24.434
 7668CHOL    R190698  13.690   0.398  24.307
 7668CHOL    R290699  13.851   0.441  24.144
 7668CHOL    R390700  13.652   0.501  24.164
 7668CHOL    R490701  13.822   0.521  24.033
 7668CHOL    R590702  13.619   0.592  24.037
 7668CHOL    C190703  13.568   0.729  23.846
 7668CHOL    C290704  13.518   0.866  23.655
 7669CHOL   ROH90705  25.237   1.988   5.640
 7669CHOL    R190706  25.099   2.061   5.675
 7669CHOL    R290707  24.988   2.191   5.516
 7669CHOL    R390708  24.943   2.142   5.714
 7669CHOL    R490709  24.868   2.255   5.546
 7669CHOL    R590710  24.805   2.215   5.749
 7669CHOL    C190711  24.598   2.324   5.801
 7669CHOL    C290712  24.390   2.433   5.853
 7670CHOL   ROH90713  -0.869  18.648  -1.471
 7670CHOL    R190714  -0.773  18.572  -1.369
 7670CHOL    R290715  -0.545  18.622  -1.358
 7670CHOL    R390716  -0.664  18.486  -1.254
 7670CHOL    R490717  -0.461  18.555  -1.269
 7670CHOL    R590718  -0.568  18.410  -1.151
 7670CHOL    C190719  -0.423  18.295  -0.998
 7670CHOL    C290720  -0.278  18.181  -0.845
 7671CHOL   ROH90721   8.742   6.668  -7.534
 7671CHOL    R190722   8.752   6.700  -7.378
 7671CHOL    R290723   8.950   6.778  -7.283
 7671CHOL    R390724   8.763   6.737  -7.201
 7671CHOL    R490725   8.959   6.806  -7.146
 7671CHOL    R590726   8.772   6.769  -7.045
 7671CHOL    C190727   8.787   6.817  -6.810
 7671CHOL    C290728   8.802   6.866  -6.576
 7672CHOL   ROH90729  -6.527  15.127  14.968
 7672CHOL    R190730  -6.380  15.080  14.926
 7672CHOL    R290731  -6.192  15.206  14.983
 7672CHOL    R390732  -6.215  15.027  14.878
 7672CHOL    R490733  -6.064  15.165  14.947
 7672CHOL    R590734  -6.067  14.980  14.836
 7672CHOL    C190735  -5.847  14.909  14.773
 7672CHOL    C290736  -5.626  14.839  14.709
 7673CHOL   ROH90737  12.409  -7.235  13.904
 7673CHOL    R190738  12.387  -7.081  13.868
 7673CHOL    R290739  12.480  -6.987  13.676
 7673CHOL    R390740  12.362  -6.907  13.829
 7673CHOL    R490741  12.461  -6.852  13.645
 7673CHOL    R590742  12.340  -6.753  13.793
 7673CHOL    C190743  12.308  -6.521  13.740
 7673CHOL    C290744  12.275  -6.289  13.686
 7674CHOL   ROH90745   8.761  23.090  -2.079
 7674CHOL    R190746   8.772  22.972  -1.972
 7674CHOL    R290747   8.979  22.898  -1.895
 7674CHOL    R390748   8.784  22.838  -1.852
 7674CHOL    R490749   8.989  22.794  -1.802
 7674CHOL    R590750   8.795  22.720  -1.745
 7674CHOL    C190751   8.811  22.542  -1.584
 7674CHOL    C290752   8.828  22.365  -1.423
 7675CHOL   ROH90753  -4.798  13.443   0.211
 7675CHOL    R190754  -4.666  13.412   0.295
 7675CHOL    R290755  -4.666  13.252   0.465
 7675CHOL    R390756  -4.516  13.377   0.390
 7675CHOL    R490757  -4.550  13.225   0.539
 7675CHOL    R590758  -4.384  13.346   0.475
 7675CHOL    C190759  -4.185  13.300   0.601
 7675CHOL    C290760  -3.987  13.254   0.727
 7676CHOL   ROH90761  27.501  12.494   9.071
 7676CHOL    R190762  27.342  12.477   9.076
 7676CHOL    R290763  27.214  12.479   8.881
 7676CHOL    R390764  27.163  12.458   9.082
 7676CHOL    R490765  27.075  12.464   8.886
 7676CHOL    R590766  27.004  12.441   9.088
 7676CHOL    C190767  26.765  12.416   9.095
 7676CHOL    C290768  26.527  12.390   9.103
 7677CHOL   ROH90769  21.783  22.711   5.969
 7677CHOL    R190770  21.674  22.600   6.006
 7677CHOL    R290771  21.723  22.429   6.157
 7677CHOL    R390772  21.551  22.475   6.047
 7677CHOL    R490773  21.627  22.331   6.189
 7677CHOL    R590774  21.442  22.363   6.083
 7677CHOL    C190775  21.278  22.197   6.138
 7677CHOL    C290776  21.115  22.030   6.193
 7678CHOL   ROH90777  10.113  26.741  16.179
 7678CHOL    R190778  10.110  26.591  16.123
 7678CHOL    R290779  10.239  26.424  16.222
 7678CHOL    R390780  10.107  26.422  16.061
 7678CHOL    R490781  10.237  26.292  16.174
 7678CHOL    R590782  10.104  26.272  16.006
 7678CHOL    C190783  10.100  26.047  15.922
 7678CHOL    C290784  10.095  25.822  15.839
 7679CHOL   ROH90785  19.595  -4.860  11.683
 7679CHOL    R190786  19.508  -4.726  11.667
 7679CHOL    R290787  19.539  -4.584  11.485
 7679CHOL    R390788  19.411  -4.576  11.650
 7679CHOL    R490789  19.463  -4.467  11.471
 7679CHOL    R590790  19.324  -4.443  11.634
 7679CHOL    C190791  19.194  -4.242  11.610
 7679CHOL    C290792  19.064  -4.042  11.587
 7680CHOL   ROH90793   7.341  24.291  20.338
 7680CHOL    R190794   7.365  24.164  20.243
 7680CHOL    R290795   7.565  24.045  20.250
 7680CHOL    R390796   7.391  24.022  20.136
 7680CHOL    R490797   7.586  23.934  20.167
 7680CHOL    R590798   7.415  23.895  20.041
 7680CHOL    C190799   7.451  23.706  19.898
 7680CHOL    C290800   7.486  23.516  19.756
 7681CHOL   ROH90801  23.160   4.764  20.557
 7681CHOL    R190802  23.040   4.810  20.461
 7681CHOL    R290803  22.974   4.679  20.280
 7681CHOL    R390804  22.906   4.862  20.353
 7681CHOL    R490805  22.869   4.719  20.196
 7681CHOL    R590806  22.786   4.908  20.258
 7681CHOL    C190807  22.607   4.978  20.114
 7681CHOL    C290808  22.428   5.047  19.970
 7682CHOL   ROH90809  11.124  -4.229  -0.812
 7682CHOL    R190810  11.113  -4.101  -0.717
 7682CHOL    R290811  11.121  -3.885  -0.804
 7682CHOL    R390812  11.101  -3.957  -0.609
 7682CHOL    R490813  11.111  -3.773  -0.721
 7682CHOL    R590814  11.091  -3.829  -0.514
 7682CHOL    C190815  11.074  -3.637  -0.371
 7682CHOL    C290816  11.058  -3.445  -0.228
 7683CHOL   ROH90817  -5.527  15.602   2.981
 7683CHOL    R190818  -5.388  15.550   3.041
 7683CHOL    R290819  -5.315  15.619   3.251
 7683CHOL    R390820  -5.232  15.492   3.108
 7683CHOL    R490821  -5.193  15.574   3.304
 7683CHOL    R590822  -5.092  15.440   3.168
 7683CHOL    C190823  -4.884  15.362   3.258
 7683CHOL    C290824  -4.675  15.284   3.348
 7684CHOL   ROH90825  17.775   3.056  24.360
 7684CHOL    R190826  17.703   3.116  24.230
 7684CHOL    R290827  17.809   3.276  24.098
 7684CHOL    R390828  17.622   3.185  24.085
 7684CHOL    R490829  17.747   3.329  23.985
 7684CHOL    R590830  17.550   3.245  23.955
 7684CHOL    C190831  17.443   3.336  23.761
 7684CHOL    C290832  17.335   3.426  23.566
 7685CHOL   ROH90833  -7.213   8.643   5.001
 7685CHOL    R190834  -7.060   8.651   5.046
 7685CHOL    R290835  -6.974   8.505   5.206
 7685CHOL    R390836  -6.887   8.659   5.096
 7685CHOL    R490837  -6.839   8.511   5.245
 7685CHOL    R590838  -6.734   8.667   5.141
 7685CHOL    C190839  -6.503   8.679   5.207
 7685CHOL    C290840  -6.273   8.690   5.274
 7686CHOL   ROH90841  -6.862   6.022   4.972
 7686CHOL    R190842  -6.712   6.057   5.017
 7686CHOL    R290843  -6.671   6.188   5.205
 7686CHOL    R390844  -6.544   6.095   5.068
 7686CHOL    R490845  -6.540   6.218   5.244
 7686CHOL    R590846  -6.394   6.130   5.113
 7686CHOL    C190847  -6.170   6.182   5.180
 7686CHOL    C290848  -5.946   6.234   5.247
 7687CHOL   ROH90849   9.526  -0.802  24.174
 7687CHOL    R190850   9.528  -0.706  24.046
 7687CHOL    R290851   9.723  -0.594  23.983
 7687CHOL    R390852   9.530  -0.598  23.902
 7687CHOL    R490853   9.724  -0.510  23.871
 7687CHOL    R590854   9.532  -0.502  23.774
 7687CHOL    C190855   9.535  -0.358  23.582
 7687CHOL    C290856   9.538  -0.214  23.390
 7688CHOL   ROH90857  13.151  27.516  10.761
 7688CHOL    R190858  13.124  27.358  10.754
 7688CHOL    R290859  13.282  27.214  10.662
 7688CHOL    R390860  13.094  27.181  10.746
 7688CHOL    R490861  13.259  27.076  10.656
 7688CHOL    R590862  13.067  27.023  10.739
 7688CHOL    C190863  13.027  26.787  10.728
 7688CHOL    C290864  12.986  26.551  10.718
 7689CHOL   ROH90865  -1.751  -0.260   0.964
 7689CHOL    R190866  -1.649  -0.169   1.047
 7689CHOL    R290867  -1.494  -0.265   1.192
 7689CHOL    R390868  -1.534  -0.067   1.141
 7689CHOL    R490869  -1.404  -0.186   1.265
 7689CHOL    R590870  -1.432   0.024   1.224
 7689CHOL    C190871  -1.279   0.160   1.349
 7689CHOL    C290872  -1.126   0.297   1.474
 7690CHOL   ROH90873   3.356  15.613  -5.721
 7690CHOL    R190874   3.415  15.561  -5.581
 7690CHOL    R290875   3.301  15.600  -5.382
 7690CHOL    R390876   3.481  15.504  -5.424
 7690CHOL    R490877   3.352  15.555  -5.259
 7690CHOL    R590878   3.539  15.452  -5.284
 7690CHOL    C190879   3.628  15.375  -5.075
 7690CHOL    C290880   3.716  15.297  -4.865
 7691CHOL   ROH90881  25.770  17.789  12.108
 7691CHOL    R190882  25.628  17.719  12.088
 7691CHOL    R290883  25.562  17.639  11.878
 7691CHOL    R390884  25.467  17.640  12.064
 7691CHOL    R490885  25.437  17.577  11.860
 7691CHOL    R590886  25.325  17.569  12.044
 7691CHOL    C190887  25.111  17.464  12.013
 7691CHOL    C290888  24.898  17.359  11.983
 7692CHOL   ROH90889  27.404   7.296  11.617
 7692CHOL    R190890  27.246   7.316  11.605
 7692CHOL    R290891  27.122   7.203  11.443
 7692CHOL    R390892  27.068   7.339  11.591
 7692CHOL    R490893  26.984   7.220  11.432
 7692CHOL    R590894  26.910   7.359  11.579
 7692CHOL    C190895  26.672   7.389  11.561
 7692CHOL    C290896  26.435   7.419  11.543
 7693CHOL   ROH90897  14.635  20.362  23.674
 7693CHOL    R190898  14.593  20.270  23.550
 7693CHOL    R290899  14.722  20.265  23.355
 7693CHOL    R390900  14.546  20.168  23.410
 7693CHOL    R490901  14.685  20.185  23.247
 7693CHOL    R590902  14.503  20.076  23.285
 7693CHOL    C190903  14.440  19.939  23.099
 7693CHOL    C290904  14.377  19.801  22.913
 7694CHOL   ROH90905  -4.645   8.163  20.185
 7694CHOL    R190906  -4.515   8.177  20.093
 7694CHOL    R290907  -4.308   8.232  20.184
 7694CHOL    R390908  -4.369   8.192  19.989
 7694CHOL    R490909  -4.194   8.245  20.104
 7694CHOL    R590910  -4.239   8.206  19.896
 7694CHOL    C190911  -4.044   8.227  19.758
 7694CHOL    C290912  -3.849   8.247  19.620
 7695CHOL   ROH90913  17.470  22.498  -0.228
 7695CHOL    R190914  17.398  22.386  -0.140
 7695CHOL    R290915  17.328  22.185  -0.234
 7695CHOL    R390916  17.316  22.260  -0.040
 7695CHOL    R490917  17.264  22.087  -0.157
 7695CHOL    R590918  17.243  22.148   0.048
 7695CHOL    C190919  17.135  21.981   0.181
 7695CHOL    C290920  17.026  21.813   0.314
 7696CHOL   ROH90921   7.777  -4.084  -0.840
 7696CHOL    R190922   7.797  -3.957  -0.745
 7696CHOL    R290923   8.010  -3.876  -0.696
 7696CHOL    R390924   7.820  -3.814  -0.638
 7696CHOL    R490925   8.028  -3.765  -0.612
 7696CHOL    R590926   7.840  -3.687  -0.543
 7696CHOL    C190927   7.870  -3.496  -0.400
 7696CHOL    C290928   7.900  -3.306  -0.257
 7697CHOL   ROH90929   0.862   9.165  25.423
 7697CHOL    R190930   0.942   9.172  25.284
 7697CHOL    R290931   1.118   9.026  25.240
 7697CHOL    R390932   1.031   9.179  25.129
 7697CHOL    R490933   1.188   9.031  25.119
 7697CHOL    R590934   1.111   9.186  24.990
 7697CHOL    C190935   1.231   9.196  24.782
 7697CHOL    C290936   1.350   9.206  24.574
 7698CHOL   ROH90937   4.110  -0.770  23.039
 7698CHOL    R190938   4.161  -0.671  22.924
 7698CHOL    R290939   4.349  -0.723  22.796
 7698CHOL    R390940   4.218  -0.561  22.794
 7698CHOL    R490941   4.393  -0.637  22.695
 7698CHOL    R590942   4.269  -0.462  22.679
 7698CHOL    C190943   4.345  -0.314  22.505
 7698CHOL    C290944   4.421  -0.166  22.332
 7699CHOL   ROH90945  -7.057  15.354   7.931
 7699CHOL    R190946  -6.905  15.308   7.954
 7699CHOL    R290947  -6.729  15.458   7.927
 7699CHOL    R390948  -6.735  15.255   7.979
 7699CHOL    R490949  -6.596  15.417   7.947
 7699CHOL    R590950  -6.584  15.209   8.002
 7699CHOL    C190951  -6.356  15.139   8.035
 7699CHOL    C290952  -6.129  15.070   8.069
 7700CHOL   ROH90953   7.455  -4.644   0.026
 7700CHOL    R190954   7.476  -4.512   0.114
 7700CHOL    R290955   7.690  -4.443   0.177
 7700CHOL    R390956   7.501  -4.364   0.213
 7700CHOL    R490957   7.709  -4.328   0.254
 7700CHOL    R590958   7.522  -4.232   0.301
 7700CHOL    C190959   7.554  -4.034   0.433
 7700CHOL    C290960   7.586  -3.836   0.565
 7701CHOL   ROH90961   7.617  -3.848  21.014
 7701CHOL    R190962   7.637  -3.724  20.915
 7701CHOL    R290963   7.800  -3.728  20.749
 7701CHOL    R390964   7.658  -3.585  20.803
 7701CHOL    R490965   7.817  -3.619  20.662
 7701CHOL    R590966   7.678  -3.461  20.704
 7701CHOL    C190967   7.707  -3.275  20.555
 7701CHOL    C290968   7.737  -3.089  20.406
 7702CHOL   ROH90969  -2.466  21.842   4.813
 7702CHOL    R190970  -2.360  21.731   4.860
 7702CHOL    R290971  -2.385  21.621   5.064
 7702CHOL    R390972  -2.242  21.607   4.913
 7702CHOL    R490973  -2.292  21.524   5.105
 7702CHOL    R590974  -2.136  21.496   4.960
 7702CHOL    C190975  -1.978  21.330   5.031
 7702CHOL    C290976  -1.819  21.164   5.101
 7703CHOL   ROH90977   8.694   2.426  -6.180
 7703CHOL    R190978   8.702   2.491  -6.034
 7703CHOL    R290979   8.907   2.537  -5.933
 7703CHOL    R390980   8.710   2.564  -5.870
 7703CHOL    R490981   8.914   2.594  -5.805
 7703CHOL    R590982   8.718   2.629  -5.723
 7703CHOL    C190983   8.729   2.726  -5.504
 7703CHOL    C290984   8.740   2.824  -5.285
 7704CHOL   ROH90985   7.142  12.029  -7.601
 7704CHOL    R190986   7.166  12.013  -7.444
 7704CHOL    R290987   7.080  12.168  -7.292
 7704CHOL    R390988   7.193  11.994  -7.266
 7704CHOL    R490989   7.101  12.154  -7.155
 7704CHOL    R590990   7.217  11.978  -7.109
 7704CHOL    C190991   7.252  11.954  -6.873
 7704CHOL    C290992   7.288  11.929  -6.637
 7705CHOL   ROH90993  27.603   9.828   8.652
 7705CHOL    R190994  27.443   9.831   8.661
 7705CHOL    R290995  27.324  10.023   8.606
 7705CHOL    R390996  27.264   9.834   8.672
 7705CHOL    R490997  27.184  10.026   8.614
 7705CHOL    R590998  27.104   9.838   8.682
 7705CHOL    C190999  26.864   9.842   8.696
 7705CHOL    C291000  26.625   9.847   8.710
 7706CHOL   ROH91001  17.082  -6.311   9.152
 7706CHOL    R191002  17.017  -6.165   9.160
 7706CHOL    R291003  17.127  -5.980   9.071
 7706CHOL    R391004  16.944  -6.001   9.170
 7706CHOL    R491005  17.070  -5.852   9.079
 7706CHOL    R591006  16.879  -5.854   9.178
 7706CHOL    C191007  16.782  -5.635   9.190
 7706CHOL    C291008  16.685  -5.416   9.203
 7707CHOL   ROH91009  27.615  11.021   9.283
 7707CHOL    R191010  27.455  11.014   9.287
 7707CHOL    R291011  27.326  11.142   9.140
 7707CHOL    R391012  27.275  11.007   9.291
 7707CHOL    R491013  27.186  11.137   9.144
 7707CHOL    R591014  27.116  11.000   9.294
 7707CHOL    C191015  26.876  10.990   9.300
 7707CHOL    C291016  26.636  10.980   9.306
 7708CHOL   ROH91017  10.765   8.720  -7.864
 7708CHOL    R191018  10.761   8.733  -7.705
 7708CHOL    R291019  10.668   8.920  -7.602
 7708CHOL    R391020  10.758   8.748  -7.525
 7708CHOL    R491021  10.665   8.932  -7.462
 7708CHOL    R591022  10.754   8.760  -7.366
 7708CHOL    C191023  10.749   8.780  -7.127
 7708CHOL    C291024  10.743   8.799  -6.888
 7709CHOL   ROH91025  26.221   6.262   3.782
 7709CHOL    R191026  26.074   6.294   3.836
 7709CHOL    R291027  25.889   6.175   3.757
 7709CHOL    R391028  25.908   6.330   3.896
 7709CHOL    R491029  25.760   6.203   3.804
 7709CHOL    R591030  25.760   6.361   3.950
 7709CHOL    C191031  25.539   6.409   4.031
 7709CHOL    C291032  25.318   6.457   4.111
 7710CHOL   ROH91033  -1.734  14.508  -2.872
 7710CHOL    R191034  -1.633  14.470  -2.754
 7710CHOL    R291035  -1.712  14.416  -2.541
 7710CHOL    R391036  -1.519  14.427  -2.621
 7710CHOL    R491037  -1.623  14.383  -2.438
 7710CHOL    R591038  -1.418  14.390  -2.503
 7710CHOL    C191039  -1.266  14.333  -2.326
 7710CHOL    C291040  -1.115  14.276  -2.149
 7711CHOL   ROH91041  16.272  -3.183  -0.268
 7711CHOL    R191042  16.217  -3.065  -0.175
 7711CHOL    R291043  16.333  -2.863  -0.157
 7711CHOL    R391044  16.156  -2.932  -0.070
 7711CHOL    R491045  16.286  -2.760  -0.075
 7711CHOL    R591046  16.101  -2.814   0.022
 7711CHOL    C191047  16.020  -2.636   0.162
 7711CHOL    C291048  15.938  -2.459   0.301
 7712CHOL   ROH91049  -7.567  12.797  12.868
 7712CHOL    R191050  -7.411  12.773  12.840
 7712CHOL    R291051  -7.257  12.775  13.015
 7712CHOL    R391052  -7.236  12.745  12.809
 7712CHOL    R491053  -7.121  12.753  12.991
 7712CHOL    R591054  -7.080  12.721  12.781
 7712CHOL    C191055  -6.847  12.685  12.740
 7712CHOL    C291056  -6.613  12.648  12.698
 7713CHOL   ROH91057  -6.766  13.821  15.347
 7713CHOL    R191058  -6.617  13.788  15.300
 7713CHOL    R291059  -6.453  13.953  15.295
 7713CHOL    R391060  -6.449  13.750  15.246
 7713CHOL    R491061  -6.322  13.924  15.253
 7713CHOL    R591062  -6.300  13.716  15.199
 7713CHOL    C191063  -6.076  13.666  15.128
 7713CHOL    C291064  -5.853  13.616  15.057
 7714CHOL   ROH91065  24.893   3.011   3.189
 7714CHOL    R191066  24.759   3.074   3.250
 7714CHOL    R291067  24.717   3.303   3.235
 7714CHOL    R391068  24.609   3.145   3.318
 7714CHOL    R491069  24.600   3.358   3.288
 7714CHOL    R591070  24.475   3.208   3.379
 7714CHOL    C191071  24.274   3.303   3.470
 7714CHOL    C291072  24.074   3.398   3.561
 7715CHOL   ROH91073   7.300   8.756  -7.684
 7715CHOL    R191074   7.323   8.767  -7.526
 7715CHOL    R291075   7.181   8.657  -7.376
 7715CHOL    R391076   7.348   8.780  -7.348
 7715CHOL    R491077   7.201   8.667  -7.238
 7715CHOL    R591078   7.370   8.792  -7.190
 7715CHOL    C191079   7.404   8.809  -6.953
 7715CHOL    C291080   7.438   8.826  -6.716
 7716CHOL   ROH91081  13.090  -4.353  20.013
 7716CHOL    R191082  13.063  -4.229  19.916
 7716CHOL    R291083  13.221  -4.058  19.893
 7716CHOL    R391084  13.033  -4.088  19.807
 7716CHOL    R491085  13.197  -3.949  19.808
 7716CHOL    R591086  13.005  -3.964  19.711
 7716CHOL    C191087  12.965  -3.777  19.565
 7716CHOL    C291088  12.924  -3.591  19.420
 7717CHOL   ROH91089   8.909  27.782   9.177
 7717CHOL    R191090   8.916  27.622   9.184
 7717CHOL    R291091   9.094  27.506   9.088
 7717CHOL    R391092   8.924  27.443   9.192
 7717CHOL    R491093   9.100  27.366   9.094
 7717CHOL    R591094   8.931  27.283   9.199
 7717CHOL    C191095   8.942  27.043   9.210
 7717CHOL    C291096   8.953  26.804   9.220
 7718CHOL   ROH91097  -5.274  14.881  18.104
 7718CHOL    R191098  -5.138  14.839  18.032
 7718CHOL    R291099  -5.002  14.999  17.929
 7718CHOL    R391100  -4.984  14.792  17.951
 7718CHOL    R491101  -4.882  14.962  17.866
 7718CHOL    R591102  -4.847  14.750  17.878
 7718CHOL    C191103  -4.643  14.686  17.770
 7718CHOL    C291104  -4.438  14.623  17.662
 7719CHOL   ROH91105   4.860  -1.812  -2.488
 7719CHOL    R191106   4.904  -1.705  -2.377
 7719CHOL    R291107   4.864  -1.744  -2.151
 7719CHOL    R391108   4.955  -1.586  -2.252
 7719CHOL    R491109   4.903  -1.650  -2.054
 7719CHOL    R591110   4.999  -1.479  -2.141
 7719CHOL    C191111   5.066  -1.319  -1.975
 7719CHOL    C291112   5.132  -1.159  -1.809
 7720CHOL   ROH91113   8.093  10.109  -7.826
 7720CHOL    R191114   8.109  10.108  -7.667
 7720CHOL    R291115   7.952  10.003  -7.530
 7720CHOL    R391116   8.128  10.108  -7.488
 7720CHOL    R491117   7.967  10.003  -7.391
 7720CHOL    R591118   8.144  10.107  -7.329
 7720CHOL    C191119   8.169  10.106  -7.090
 7720CHOL    C291120   8.194  10.105  -6.851
 7721CHOL   ROH91121  16.192  17.845  24.653
 7721CHOL    R191122  16.138  17.774  24.520
 7721CHOL    R291123  16.083  17.900  24.332
 7721CHOL    R391124  16.076  17.695  24.371
 7721CHOL    R491125  16.035  17.838  24.215
 7721CHOL    R591126  16.022  17.624  24.238
 7721CHOL    C191127  15.940  17.519  24.039
 7721CHOL    C291128  15.859  17.413  23.840
 7722CHOL   ROH91129  21.296  -0.670   1.302
 7722CHOL    R191130  21.194  -0.576   1.382
 7722CHOL    R291131  21.271  -0.410   1.526
 7722CHOL    R391132  21.079  -0.470   1.471
 7722CHOL    R491133  21.182  -0.328   1.596
 7722CHOL    R591134  20.977  -0.376   1.551
 7722CHOL    C191135  20.824  -0.236   1.671
 7722CHOL    C291136  20.671  -0.095   1.790
 7723CHOL   ROH91137  26.539   9.800  16.411
 7723CHOL    R191138  26.390   9.799  16.353
 7723CHOL    R291139  26.344   9.716  16.140
 7723CHOL    R391140  26.222   9.799  16.288
 7723CHOL    R491141  26.214   9.716  16.089
 7723CHOL    R591142  26.073   9.798  16.230
 7723CHOL    C191143  25.849   9.797  16.143
 7723CHOL    C291144  25.626   9.796  16.056
 7724CHOL   ROH91145  -5.914  15.067  16.692
 7724CHOL    R191146  -5.774  15.022  16.630
 7724CHOL    R291147  -5.572  15.099  16.718
 7724CHOL    R391148  -5.616  14.971  16.560
 7724CHOL    R491149  -5.449  15.060  16.664
 7724CHOL    R591150  -5.475  14.925  16.498
 7724CHOL    C191151  -5.265  14.858  16.404
 7724CHOL    C291152  -5.055  14.790  16.311
 7725CHOL   ROH91153  11.415  22.636  -2.540
 7725CHOL    R191154  11.405  22.524  -2.427
 7725CHOL    R291155  11.590  22.467  -2.296
 7725CHOL    R391156  11.393  22.397  -2.299
 7725CHOL    R491157  11.581  22.369  -2.197
 7725CHOL    R591158  11.382  22.285  -2.185
 7725CHOL    C191159  11.367  22.117  -2.015
 7725CHOL    C291160  11.351  21.948  -1.845
 7726CHOL   ROH91161  10.781  17.323  26.156
 7726CHOL    R191162  10.768  17.262  26.009
 7726CHOL    R291163  10.905  17.086  25.940
 7726CHOL    R391164  10.754  17.193  25.843
 7726CHOL    R491165  10.893  17.032  25.811
 7726CHOL    R591166  10.741  17.132  25.696
 7726CHOL    C191167  10.722  17.040  25.474
 7726CHOL    C291168  10.703  16.949  25.253
 7727CHOL   ROH91169  22.843  15.295  -1.154
 7727CHOL    R191170  22.725  15.250  -1.055
 7727CHOL    R291171  22.649  15.030  -1.051
 7727CHOL    R391172  22.593  15.200  -0.944
 7727CHOL    R491173  22.546  14.991  -0.965
 7727CHOL    R591174  22.475  15.155  -0.845
 7727CHOL    C191175  22.298  15.089  -0.697
 7727CHOL    C291176  22.122  15.022  -0.549
 7728CHOL   ROH91177   8.729   7.284  27.540
 7728CHOL    R191178   8.741   7.307  27.382
 7728CHOL    R291179   8.950   7.334  27.281
 7728CHOL    R391180   8.755   7.333  27.205
 7728CHOL    R491181   8.960   7.354  27.143
 7728CHOL    R591182   8.767   7.357  27.047
 7728CHOL    C191183   8.786   7.391  26.810
 7728CHOL    C291184   8.804   7.426  26.574
 7729CHOL   ROH91185  14.051  26.944  13.561
 7729CHOL    R191186  14.015  26.792  13.526
 7729CHOL    R291187  14.054  26.705  13.314
 7729CHOL    R391188  13.975  26.621  13.488
 7729CHOL    R491189  14.023  26.572  13.283
 7729CHOL    R591190  13.939  26.468  13.453
 7729CHOL    C191191  13.886  26.240  13.401
 7729CHOL    C291192  13.832  26.012  13.349
 7730CHOL   ROH91193  10.348  -7.684   7.303
 7730CHOL    R191194  10.349  -7.525   7.323
 7730CHOL    R291195  10.539  -7.399   7.274
 7730CHOL    R391196  10.349  -7.347   7.346
 7730CHOL    R491197  10.539  -7.260   7.292
 7730CHOL    R591198  10.350  -7.188   7.366
 7730CHOL    C191199  10.351  -6.950   7.396
 7730CHOL    C291200  10.352  -6.712   7.426
 7731CHOL   ROH91201   3.202  23.446   0.318
 7731CHOL    R191202   3.261  23.325   0.404
 7731CHOL    R291203   3.325  23.355   0.626
 7731CHOL    R391204   3.327  23.188   0.501
 7731CHOL    R491205   3.377  23.249   0.701
 7731CHOL    R591206   3.386  23.066   0.587
 7731CHOL    C191207   3.474  22.884   0.715
 7731CHOL    C291208   3.563  22.702   0.844
 7732CHOL   ROH91209  23.120  -0.754   4.650
 7732CHOL    R191210  23.000  -0.658   4.696
 7732CHOL    R291211  22.995  -0.434   4.630
 7732CHOL    R391212  22.866  -0.550   4.747
 7732CHOL    R491213  22.890  -0.350   4.670
 7732CHOL    R591214  22.746  -0.453   4.792
 7732CHOL    C191215  22.567  -0.309   4.861
 7732CHOL    C291216  22.388  -0.165   4.929
 7733CHOL   ROH91217  25.688  12.567  17.782
 7733CHOL    R191218  25.545  12.543  17.715
 7733CHOL    R291219  25.523  12.416  17.521
 7733CHOL    R391220  25.384  12.517  17.639
 7733CHOL    R491221  25.398  12.395  17.462
 7733CHOL    R591222  25.240  12.493  17.572
 7733CHOL    C191223  25.026  12.457  17.471
 7733CHOL    C291224  24.811  12.422  17.370
 7734CHOL   ROH91225   9.883   2.676  -6.328
 7734CHOL    R191226   9.884   2.739  -6.181
 7734CHOL    R291227  10.052   2.886  -6.115
 7734CHOL    R391228   9.886   2.809  -6.015
 7734CHOL    R491229  10.053   2.941  -5.986
 7734CHOL    R591230   9.887   2.872  -5.868
 7734CHOL    C191231   9.889   2.965  -5.647
 7734CHOL    C291232   9.891   3.059  -5.426
 7735CHOL   ROH91233  14.456   6.577  -6.991
 7735CHOL    R191234  14.410   6.608  -6.841
 7735CHOL    R291235  14.351   6.824  -6.776
 7735CHOL    R391236  14.357   6.643  -6.672
 7735CHOL    R491237  14.310   6.852  -6.645
 7735CHOL    R591238  14.311   6.675  -6.523
 7735CHOL    C191239  14.241   6.721  -6.298
 7735CHOL    C291240  14.172   6.768  -6.073
 7736CHOL   ROH91241  -3.459  -0.426  15.673
 7736CHOL    R191242  -3.338  -0.335  15.621
 7736CHOL    R291243  -3.259  -0.157  15.750
 7736CHOL    R391244  -3.202  -0.233  15.564
 7736CHOL    R491245  -3.153  -0.077  15.705
 7736CHOL    R591246  -3.081  -0.141  15.512
 7736CHOL    C191247  -2.900  -0.005  15.435
 7736CHOL    C291248  -2.718   0.132  15.357
 7737CHOL   ROH91249   7.220  -6.587   3.866
 7737CHOL    R191250   7.244  -6.439   3.921
 7737CHOL    R291251   7.311  -6.403   4.142
 7737CHOL    R391252   7.271  -6.272   3.984
 7737CHOL    R491253   7.332  -6.273   4.190
 7737CHOL    R591254   7.295  -6.124   4.039
 7737CHOL    C191255   7.332  -5.902   4.122
 7737CHOL    C291256   7.368  -5.680   4.205
 7738CHOL   ROH91257  14.588  26.987  12.700
 7738CHOL    R191258  14.547  26.835  12.673
 7738CHOL    R291259  14.677  26.659  12.755
 7738CHOL    R391260  14.501  26.663  12.643
 7738CHOL    R491261  14.641  26.526  12.732
 7738CHOL    R591262  14.460  26.511  12.616
 7738CHOL    C191263  14.399  26.283  12.576
 7738CHOL    C291264  14.337  26.054  12.536
 7739CHOL   ROH91265  17.361  -2.228  -0.730
 7739CHOL    R191266  17.295  -2.118  -0.634
 7739CHOL    R291267  17.283  -1.894  -0.699
 7739CHOL    R391268  17.220  -1.995  -0.527
 7739CHOL    R491269  17.225  -1.798  -0.615
 7739CHOL    R591270  17.154  -1.885  -0.431
 7739CHOL    C191271  17.054  -1.720  -0.287
 7739CHOL    C291272  16.954  -1.556  -0.144
 7740CHOL   ROH91273  -2.378  22.933  11.459
 7740CHOL    R191274  -2.268  22.817  11.449
 7740CHOL    R291275  -2.054  22.847  11.536
 7740CHOL    R391276  -2.144  22.687  11.438
 7740CHOL    R491277  -1.957  22.746  11.527
 7740CHOL    R591278  -2.035  22.571  11.428
 7740CHOL    C191279  -1.870  22.397  11.412
 7740CHOL    C291280  -1.705  22.223  11.397
 7741CHOL   ROH91281  17.056  14.798  -5.725
 7741CHOL    R191282  16.992  14.754  -5.585
 7741CHOL    R291283  17.090  14.586  -5.456
 7741CHOL    R391284  16.920  14.704  -5.428
 7741CHOL    R491285  17.034  14.548  -5.334
 7741CHOL    R591286  16.856  14.660  -5.288
 7741CHOL    C191287  16.760  14.594  -5.078
 7741CHOL    C291288  16.664  14.528  -4.868
 7742CHOL   ROH91289  13.530   6.631  27.061
 7742CHOL    R191290  13.495   6.659  26.908
 7742CHOL    R291291  13.536   6.868  26.812
 7742CHOL    R391292  13.456   6.692  26.735
 7742CHOL    R491293  13.505   6.893  26.678
 7742CHOL    R591294  13.421   6.720  26.581
 7742CHOL    C191295  13.368   6.763  26.351
 7742CHOL    C291296  13.315   6.805  26.121
 7743CHOL   ROH91297  14.399  -4.140  19.853
 7743CHOL    R191298  14.362  -4.016  19.759
 7743CHOL    R291299  14.476  -3.813  19.778
 7743CHOL    R391300  14.321  -3.877  19.653
 7743CHOL    R491301  14.444  -3.705  19.695
 7743CHOL    R591302  14.284  -3.753  19.558
 7743CHOL    C191303  14.230  -3.567  19.417
 7743CHOL    C291304  14.175  -3.381  19.276
 7744CHOL   ROH91305  -0.771  18.732  21.259
 7744CHOL    R191306  -0.677  18.656  21.155
 7744CHOL    R291307  -0.446  18.692  21.153
 7744CHOL    R391308  -0.570  18.570  21.037
 7744CHOL    R491309  -0.364  18.625  21.061
 7744CHOL    R591310  -0.476  18.494  20.933
 7744CHOL    C191311  -0.334  18.379  20.777
 7744CHOL    C291312  -0.193  18.265  20.620
 7745CHOL   ROH91313  16.664  -4.605  17.686
 7745CHOL    R191314  16.605  -4.472  17.619
 7745CHOL    R291315  16.745  -4.293  17.565
 7745CHOL    R391316  16.539  -4.323  17.543
 7745CHOL    R491317  16.693  -4.177  17.506
 7745CHOL    R591318  16.480  -4.190  17.476
 7745CHOL    C191319  16.392  -3.991  17.375
 7745CHOL    C291320  16.304  -3.792  17.274
 7746CHOL   ROH91321  22.739   3.560  -0.587
 7746CHOL    R191322  22.626   3.621  -0.491
 7746CHOL    R291323  22.666   3.815  -0.368
 7746CHOL    R391324  22.500   3.690  -0.384
 7746CHOL    R491325  22.568   3.868  -0.284
 7746CHOL    R591326  22.387   3.751  -0.288
 7746CHOL    C191327  22.218   3.843  -0.144
 7746CHOL    C291328  22.049   3.934  -0.001
 7747CHOL   ROH91329  27.111  14.339  11.350
 7747CHOL    R191330  26.956  14.302  11.334
 7747CHOL    R291331  26.857  14.288  11.123
 7747CHOL    R391332  26.782  14.260  11.316
 7747CHOL    R491333  26.721  14.255  11.110
 7747CHOL    R591334  26.627  14.223  11.301
 7747CHOL    C191335  26.395  14.167  11.277
 7747CHOL    C291336  26.162  14.111  11.253
 7748CHOL   ROH91337   8.760  13.546  -7.540
 7748CHOL    R191338   8.769  13.514  -7.384
 7748CHOL    R291339   8.952  13.400  -7.294
 7748CHOL    R391340   8.779  13.478  -7.207
 7748CHOL    R491341   8.959  13.372  -7.157
 7748CHOL    R591342   8.787  13.447  -7.051
 7748CHOL    C191343   8.801  13.399  -6.816
 7748CHOL    C291344   8.814  13.351  -6.582
 7749CHOL   ROH91345  -5.605   1.104  10.848
 7749CHOL    R191346  -5.466   1.182  10.839
 7749CHOL    R291347  -5.265   1.066  10.815
 7749CHOL    R391348  -5.309   1.270  10.830
 7749CHOL    R491349  -5.143   1.135  10.807
 7749CHOL    R591350  -5.170   1.348  10.821
 7749CHOL    C191351  -4.960   1.465  10.808
 7749CHOL    C291352  -4.751   1.582  10.795
 7750CHOL   ROH91353  22.161   2.809  -0.753
 7750CHOL    R191354  22.052   2.875  -0.656
 7750CHOL    R291355  22.022   3.107  -0.651
 7750CHOL    R391356  21.930   2.950  -0.547
 7750CHOL    R491357  21.927   3.165  -0.566
 7750CHOL    R591358  21.821   3.016  -0.450
 7750CHOL    C191359  21.659   3.116  -0.305
 7750CHOL    C291360  21.496   3.216  -0.159
 7751CHOL   ROH91361  -5.661  10.195  18.763
 7751CHOL    R191362  -5.523  10.194  18.682
 7751CHOL    R291363  -5.383  10.007  18.685
 7751CHOL    R391364  -5.368  10.193  18.591
 7751CHOL    R491365  -5.263  10.006  18.614
 7751CHOL    R591366  -5.230  10.191  18.510
 7751CHOL    C191367  -5.023  10.190  18.388
 7751CHOL    C291368  -4.816  10.188  18.266
 7752CHOL   ROH91369  16.539  15.767  25.468
 7752CHOL    R191370  16.479  15.713  25.330
 7752CHOL    R291371  16.468  15.850  25.142
 7752CHOL    R391372  16.413  15.652  25.174
 7752CHOL    R491373  16.416  15.803  25.021
 7752CHOL    R591374  16.353  15.597  25.036
 7752CHOL    C191375  16.264  15.516  24.829
 7752CHOL    C291376  16.174  15.435  24.621
 7753CHOL   ROH91377  -4.951  19.914  11.186
 7753CHOL    R191378  -4.819  19.824  11.172
 7753CHOL    R291379  -4.714  19.735  11.360
 7753CHOL    R391380  -4.671  19.723  11.156
 7753CHOL    R491381  -4.599  19.656  11.348
 7753CHOL    R591382  -4.540  19.633  11.142
 7753CHOL    C191383  -4.342  19.498  11.121
 7753CHOL    C291384  -4.144  19.363  11.100
 7754CHOL   ROH91385  10.886  -3.559  -1.680
 7754CHOL    R191386  10.877  -3.437  -1.576
 7754CHOL    R291387  11.026  -3.421  -1.398
 7754CHOL    R391388  10.867  -3.300  -1.460
 7754CHOL    R491389  11.018  -3.314  -1.307
 7754CHOL    R591390  10.858  -3.178  -1.356
 7754CHOL    C191391  10.845  -2.996  -1.201
 7754CHOL    C291392  10.832  -2.813  -1.046
 7755CHOL   ROH91393  18.131  11.622  -5.774
 7755CHOL    R191394  18.055  11.611  -5.633
 7755CHOL    R291395  17.880  11.754  -5.580
 7755CHOL    R391396  17.971  11.598  -5.475
 7755CHOL    R491397  17.814  11.744  -5.457
 7755CHOL    R591398  17.895  11.586  -5.334
 7755CHOL    C191399  17.782  11.569  -5.124
 7755CHOL    C291400  17.668  11.552  -4.913
 7756CHOL   ROH91401  22.525  11.271  -2.539
 7756CHOL    R191402  22.408  11.260  -2.430
 7756CHOL    R291403  22.252  11.432  -2.404
 7756CHOL    R391404  22.276  11.248  -2.308
 7756CHOL    R491405  22.150  11.423  -2.309
 7756CHOL    R591406  22.159  11.238  -2.199
 7756CHOL    C191407  21.984  11.221  -2.037
 7756CHOL    C291408  21.809  11.205  -1.874
 7757CHOL   ROH91409  10.514  19.783  24.879
 7757CHOL    R191410  10.507  19.694  24.746
 7757CHOL    R291411  10.638  19.744  24.560
 7757CHOL    R391412  10.498  19.594  24.597
 7757CHOL    R491413  10.631  19.666  24.444
 7757CHOL    R591414  10.491  19.505  24.465
 7757CHOL    C191415  10.480  19.371  24.266
 7757CHOL    C291416  10.469  19.237  24.067
 7758CHOL   ROH91417  -4.429   0.657  15.106
 7758CHOL    R191418  -4.300   0.739  15.060
 7758CHOL    R291419  -4.186   0.878  15.209
 7758CHOL    R391420  -4.155   0.832  15.007
 7758CHOL    R491421  -4.073   0.950  15.168
 7758CHOL    R591422  -4.025   0.914  14.961
 7758CHOL    C191423  -3.832   1.037  14.891
 7758CHOL    C291424  -3.638   1.161  14.822
 7759CHOL   ROH91425  13.386  27.243   7.126
 7759CHOL    R191426  13.354  27.089   7.154
 7759CHOL    R291427  13.525  26.933   7.180
 7759CHOL    R391428  13.317  26.915   7.184
 7759CHOL    R491429  13.497  26.798   7.204
 7759CHOL    R591430  13.285  26.761   7.212
 7759CHOL    C191431  13.237  26.530   7.253
 7759CHOL    C291432  13.188  26.298   7.295
 7760CHOL   ROH91433  25.504  18.337  11.991
 7760CHOL    R191434  25.364  18.262  11.971
 7760CHOL    R291435  25.348  18.030  11.990
 7760CHOL    R391436  25.207  18.178  11.950
 7760CHOL    R491437  25.226  17.965  11.973
 7760CHOL    R591438  25.067  18.103  11.930
 7760CHOL    C191439  24.857  17.991  11.901
 7760CHOL    C291440  24.647  17.878  11.871
 7761CHOL   ROH91441  11.542  24.857  19.665
 7761CHOL    R191442  11.521  24.726  19.576
 7761CHOL    R291443  11.554  24.513  19.666
 7761CHOL    R391444  11.498  24.578  19.476
 7761CHOL    R491445  11.536  24.398  19.588
 7761CHOL    R591446  11.477  24.447  19.387
 7761CHOL    C191447  11.446  24.250  19.253
 7761CHOL    C291448  11.415  24.053  19.119
 7762CHOL   ROH91449  10.521  23.211  21.904
 7762CHOL    R191450  10.514  23.092  21.797
 7762CHOL    R291451  10.536  22.870  21.863
 7762CHOL    R391452  10.507  22.958  21.677
 7762CHOL    R491453  10.530  22.766  21.770
 7762CHOL    R591454  10.500  22.839  21.570
 7762CHOL    C191455  10.491  22.661  21.409
 7762CHOL    C291456  10.481  22.483  21.248
 7763CHOL   ROH91457   2.092  14.433  -5.507
 7763CHOL    R191458   2.164  14.394  -5.369
 7763CHOL    R291459   2.063  14.441  -5.164
 7763CHOL    R391460   2.245  14.351  -5.215
 7763CHOL    R491461   2.126  14.407  -5.044
 7763CHOL    R591462   2.317  14.312  -5.077
 7763CHOL    C191463   2.425  14.255  -4.871
 7763CHOL    C291464   2.533  14.197  -4.664
 7764CHOL   ROH91465  23.381   0.687   2.839
 7764CHOL    R191466  23.261   0.771   2.903
 7764CHOL    R291467  23.290   0.993   2.967
 7764CHOL    R391468  23.126   0.865   2.976
 7764CHOL    R491469  23.185   1.066   3.023
 7764CHOL    R591470  23.005   0.949   3.040
 7764CHOL    C191471  22.825   1.074   3.137
 7764CHOL    C291472  22.645   1.200   3.234
 7765CHOL   ROH91473   5.407  26.237  15.799
 7765CHOL    R191474   5.449  26.092  15.746
 7765CHOL    R291475   5.527  26.061  15.529
 7765CHOL    R391476   5.495  25.929  15.686
 7765CHOL    R491477   5.563  25.934  15.482
 7765CHOL    R591478   5.537  25.783  15.633
 7765CHOL    C191479   5.599  25.566  15.554
 7765CHOL    C291480   5.662  25.348  15.475
 7766CHOL   ROH91481  11.369  -4.845   0.102
 7766CHOL    R191482  11.355  -4.712   0.190
 7766CHOL    R291483  11.366  -4.501   0.091
 7766CHOL    R391484  11.340  -4.562   0.289
 7766CHOL    R491485  11.354  -4.385   0.168
 7766CHOL    R591486  11.326  -4.429   0.376
 7766CHOL    C191487  11.306  -4.229   0.508
 7766CHOL    C291488  11.286  -4.030   0.640
 7767CHOL   ROH91489  14.290  20.195  23.907
 7767CHOL    R191490  14.251  20.105  23.781
 7767CHOL    R291491  14.411  20.042  23.624
 7767CHOL    R391492  14.207  20.004  23.638
 7767CHOL    R491493  14.377  19.964  23.513
 7767CHOL    R591494  14.167  19.914  23.512
 7767CHOL    C191495  14.109  19.779  23.322
 7767CHOL    C291496  14.050  19.644  23.133
 7768CHOL   ROH91497  -3.641   2.046  18.549
 7768CHOL    R191498  -3.521   2.118  18.472
 7768CHOL    R291499  -3.362   1.995  18.354
 7768CHOL    R391500  -3.386   2.200  18.384
 7768CHOL    R491501  -3.257   2.058  18.286
 7768CHOL    R591502  -3.267   2.273  18.307
 7768CHOL    C191503  -3.087   2.381  18.191
 7768CHOL    C291504  -2.907   2.490  18.075
 7769CHOL   ROH91505  -4.289  13.700  20.193
 7769CHOL    R191506  -4.162  13.672  20.099
 7769CHOL    R291507  -3.948  13.739  20.163
 7769CHOL    R391508  -4.020  13.639  19.994
 7769CHOL    R491509  -3.838  13.714  20.081
 7769CHOL    R591510  -3.893  13.611  19.900
 7769CHOL    C191511  -3.704  13.568  19.759
 7769CHOL    C291512  -3.514  13.526  19.619
 7770CHOL   ROH91513  11.345   7.321  27.546
 7770CHOL    R191514  11.330   7.345  27.389
 7770CHOL    R291515  11.351   7.169  27.237
 7770CHOL    R391516  11.313   7.373  27.211
 7770CHOL    R491517  11.338   7.190  27.100
 7770CHOL    R591518  11.298   7.397  27.054
 7770CHOL    C191519  11.275   7.433  26.818
 7770CHOL    C291520  11.253   7.470  26.582
 7771CHOL   ROH91521  12.765  20.193  24.291
 7771CHOL    R191522  12.739  20.103  24.161
 7771CHOL    R291523  12.915  20.044  24.020
 7771CHOL    R391524  12.710  20.002  24.015
 7771CHOL    R491525  12.892  19.965  23.906
 7771CHOL    R591526  12.685  19.912  23.885
 7771CHOL    C191527  12.646  19.778  23.690
 7771CHOL    C291528  12.607  19.643  23.495
 7772CHOL   ROH91529  15.485  15.646  -6.043
 7772CHOL    R191530  15.439  15.594  -5.899
 7772CHOL    R291531  15.560  15.430  -5.786
 7772CHOL    R391532  15.387  15.535  -5.737
 7772CHOL    R491533  15.520  15.384  -5.660
 7772CHOL    R591534  15.341  15.483  -5.593
 7772CHOL    C191535  15.272  15.405  -5.377
 7772CHOL    C291536  15.203  15.327  -5.161
 7773CHOL   ROH91537  -5.909  13.067  17.768
 7773CHOL    R191538  -5.769  13.038  17.696
 7773CHOL    R291539  -5.592  13.189  17.716
 7773CHOL    R391540  -5.611  13.006  17.616
 7773CHOL    R491541  -5.469  13.164  17.653
 7773CHOL    R591542  -5.471  12.977  17.545
 7773CHOL    C191543  -5.261  12.935  17.437
 7773CHOL    C291544  -5.051  12.892  17.330
 7774CHOL   ROH91545   1.068  11.790  25.391
 7774CHOL    R191546   1.145  11.771  25.252
 7774CHOL    R291547   1.260  11.948  25.153
 7774CHOL    R391548   1.232  11.749  25.096
 7774CHOL    R491549   1.327  11.931  25.032
 7774CHOL    R591550   1.309  11.730  24.958
 7774CHOL    C191551   1.425  11.701  24.749
 7774CHOL    C291552   1.541  11.672  24.541
 7775CHOL   ROH91553  -5.306  18.665  13.652
 7775CHOL    R191554  -5.170  18.586  13.620
 7775CHOL    R291555  -5.077  18.439  13.775
 7775CHOL    R391556  -5.018  18.498  13.583
 7775CHOL    R491557  -4.958  18.370  13.746
 7775CHOL    R591558  -4.882  18.419  13.551
 7775CHOL    C191559  -4.679  18.301  13.502
 7775CHOL    C291560  -4.476  18.183  13.453
 7776CHOL   ROH91561  -1.013  16.347  -2.738
 7776CHOL    R191562  -0.917  16.291  -2.622
 7776CHOL    R291563  -0.702  16.376  -2.594
 7776CHOL    R391564  -0.810  16.229  -2.493
 7776CHOL    R491565  -0.618  16.328  -2.493
 7776CHOL    R591566  -0.714  16.173  -2.377
 7776CHOL    C191567  -0.570  16.090  -2.204
 7776CHOL    C291568  -0.427  16.007  -2.030
 7777CHOL   ROH91569   0.653  13.477  24.786
 7777CHOL    R191570   0.740  13.443  24.656
 7777CHOL    R291571   0.927  13.305  24.670
 7777CHOL    R391572   0.837  13.404  24.510
 7777CHOL    R491573   1.003  13.275  24.556
 7777CHOL    R591574   0.924  13.370  24.379
 7777CHOL    C191575   1.053  13.318  24.184
 7777CHOL    C291576   1.183  13.266  23.989
 7778CHOL   ROH91577  14.491  -4.273   0.239
 7778CHOL    R191578  14.449  -4.147   0.328
 7778CHOL    R291579  14.611  -4.008   0.424
 7778CHOL    R391580  14.402  -4.005   0.429
 7778CHOL    R491581  14.574  -3.898   0.502
 7778CHOL    R591582  14.360  -3.879   0.519
 7778CHOL    C191583  14.297  -3.691   0.653
 7778CHOL    C291584  14.234  -3.502   0.787
 7779CHOL   ROH91585   3.275  26.112   5.926
 7779CHOL    R191586   3.340  25.970   5.962
 7779CHOL    R291587   3.345  25.892   6.181
 7779CHOL    R391588   3.413  25.810   6.001
 7779CHOL    R491589   3.401  25.768   6.212
 7779CHOL    R591590   3.477  25.668   6.037
 7779CHOL    C191591   3.575  25.456   6.090
 7779CHOL    C291592   3.672  25.243   6.144
 7780CHOL   ROH91593  -4.388  17.682   2.511
 7780CHOL    R191594  -4.258  17.615   2.576
 7780CHOL    R291595  -4.129  17.731   2.732
 7780CHOL    R391596  -4.112  17.540   2.649
 7780CHOL    R491597  -4.015  17.672   2.789
 7780CHOL    R591598  -3.981  17.473   2.714
 7780CHOL    C191599  -3.786  17.373   2.811
 7780CHOL    C291600  -3.591  17.273   2.909
 7781CHOL   ROH91601  17.310  -6.189   8.867
 7781CHOL    R191602  17.243  -6.044   8.878
 7781CHOL    R291603  17.354  -5.855   8.797
 7781CHOL    R391604  17.169  -5.881   8.890
 7781CHOL    R491605  17.295  -5.728   8.806
 7781CHOL    R591606  17.102  -5.735   8.900
 7781CHOL    C191607  17.002  -5.518   8.917
 7781CHOL    C291608  16.902  -5.300   8.933
 7782CHOL   ROH91609   0.913  11.165  -5.408
 7782CHOL    R191610   0.996  11.153  -5.272
 7782CHOL    R291611   0.951  11.292  -5.091
 7782CHOL    R391612   1.090  11.139  -5.119
 7782CHOL    R491613   1.024  11.282  -4.972
 7782CHOL    R591614   1.173  11.127  -4.983
 7782CHOL    C191615   1.299  11.109  -4.779
 7782CHOL    C291616   1.424  11.091  -4.575
 7783CHOL   ROH91617  -2.714   7.174  -2.403
 7783CHOL    R191618  -2.600   7.195  -2.293
 7783CHOL    R291619  -2.628   7.117  -2.075
 7783CHOL    R391620  -2.471   7.218  -2.169
 7783CHOL    R491621  -2.528   7.136  -1.978
 7783CHOL    R591622  -2.357   7.239  -2.059
 7783CHOL    C191623  -2.186   7.270  -1.894
 7783CHOL    C291624  -2.014   7.301  -1.729
 7784CHOL   ROH91625  25.501  17.398   5.729
 7784CHOL    R191626  25.361  17.329   5.764
 7784CHOL    R291627  25.258  17.183   5.614
 7784CHOL    R391628  25.203  17.252   5.803
 7784CHOL    R491629  25.136  17.123   5.645
 7784CHOL    R591630  25.063  17.184   5.838
 7784CHOL    C191631  24.853  17.081   5.891
 7784CHOL    C291632  24.643  16.978   5.944
 7785CHOL   ROH91633   5.414  15.347  26.409
 7785CHOL    R191634   5.451  15.309  26.258
 7785CHOL    R291635   5.619  15.424  26.143
 7785CHOL    R391636   5.494  15.266  26.089
 7785CHOL    R491637   5.651  15.390  26.011
 7785CHOL    R591638   5.531  15.227  25.938
 7785CHOL    C191639   5.587  15.170  25.712
 7785CHOL    C291640   5.643  15.113  25.486
 7786CHOL   ROH91641  10.308  20.019  24.726
 7786CHOL    R191642  10.303  19.927  24.595
 7786CHOL    R291643  10.437  19.975  24.410
 7786CHOL    R391644  10.298  19.824  24.448
 7786CHOL    R491645  10.433  19.895  24.296
 7786CHOL    R591646  10.294  19.732  24.318
 7786CHOL    C191647  10.287  19.594  24.121
 7786CHOL    C291648  10.280  19.456  23.925
 7787CHOL   ROH91649  12.810  -7.484  12.224
 7787CHOL    R191650  12.786  -7.327  12.202
 7787CHOL    R291651  12.799  -7.232  11.990
 7787CHOL    R391652  12.758  -7.151  12.178
 7787CHOL    R491653  12.778  -7.095  11.971
 7787CHOL    R591654  12.734  -6.995  12.157
 7787CHOL    C191655  12.698  -6.760  12.124
 7787CHOL    C291656  12.661  -6.525  12.092
 7788CHOL   ROH91657  20.845  23.948   8.076
 7788CHOL    R191658  20.751  23.819   8.090
 7788CHOL    R291659  20.603  23.761   7.919
 7788CHOL    R391660  20.645  23.675   8.105
 7788CHOL    R491661  20.520  23.648   7.931
 7788CHOL    R591662  20.550  23.546   8.118
 7788CHOL    C191663  20.409  23.353   8.139
 7788CHOL    C291664  20.268  23.160   8.159
 7789CHOL   ROH91665  26.877   6.195  13.816
 7789CHOL    R191666  26.725   6.230  13.782
 7789CHOL    R291667  26.616   6.132  13.600
 7789CHOL    R391668  26.553   6.269  13.745
 7789CHOL    R491669  26.483   6.163  13.571
 7789CHOL    R591670  26.401   6.304  13.711
 7789CHOL    C191671  26.172   6.356  13.661
 7789CHOL    C291672  25.943   6.409  13.610
 7790CHOL   ROH91673  -5.878  15.569   3.815
 7790CHOL    R191674  -5.736  15.518   3.869
 7790CHOL    R291675  -5.659  15.581   4.080
 7790CHOL    R391676  -5.577  15.461   3.930
 7790CHOL    R491677  -5.535  15.536   4.128
 7790CHOL    R591678  -5.436  15.410   3.984
 7790CHOL    C191679  -5.223  15.334   4.066
 7790CHOL    C291680  -5.011  15.257   4.147
 7791CHOL   ROH91681   4.778  27.134   9.325
 7791CHOL    R191682   4.824  26.981   9.331
 7791CHOL    R291683   4.896  26.884   9.530
 7791CHOL    R391684   4.875  26.808   9.337
 7791CHOL    R491685   4.936  26.750   9.535
 7791CHOL    R591686   4.921  26.655   9.342
 7791CHOL    C191687   4.990  26.425   9.351
 7791CHOL    C291688   5.058  26.195   9.359
 7792CHOL   ROH91689  12.234   6.842  27.348
 7792CHOL    R191690  12.209   6.870  27.192
 7792CHOL    R291691  12.364   6.804  27.032
 7792CHOL    R391692  12.180   6.902  27.018
 7792CHOL    R491693  12.342   6.829  26.896
 7792CHOL    R591694  12.154   6.930  26.862
 7792CHOL    C191695  12.116   6.972  26.629
 7792CHOL    C291696  12.078   7.014  26.395
 7793CHOL   ROH91697   2.297  25.810   6.784
 7793CHOL    R191698   2.373  25.672   6.813
 7793CHOL    R291699   2.579  25.669   6.922
 7793CHOL    R391700   2.458  25.517   6.845
 7793CHOL    R491701   2.645  25.548   6.947
 7793CHOL    R591702   2.534  25.379   6.874
 7793CHOL    C191703   2.648  25.172   6.917
 7793CHOL    C291704   2.762  24.965   6.960
 7794CHOL   ROH91705  23.804  10.091  -1.107
 7794CHOL    R191706  23.678  10.088  -1.009
 7794CHOL    R291707  23.460  10.098  -1.092
 7794CHOL    R391708  23.536  10.085  -0.898
 7794CHOL    R491709  23.350  10.096  -1.006
 7794CHOL    R591710  23.410  10.083  -0.799
 7794CHOL    C191711  23.221  10.078  -0.652
 7794CHOL    C291712  23.032  10.074  -0.504
 7795CHOL   ROH91713  23.482  17.106   0.832
 7795CHOL    R191714  23.359  17.042   0.912
 7795CHOL    R291715  23.184  16.936   0.800
 7795CHOL    R391716  23.222  16.970   1.003
 7795CHOL    R491717  23.077  16.881   0.871
 7795CHOL    R591718  23.099  16.907   1.084
 7795CHOL    C191719  22.915  16.811   1.204
 7795CHOL    C291720  22.731  16.715   1.325
 7796CHOL   ROH91721  -5.084   6.368   0.841
 7796CHOL    R191722  -4.949   6.396   0.923
 7796CHOL    R291723  -4.835   6.222   1.027
 7796CHOL    R391724  -4.798   6.427   1.015
 7796CHOL    R491725  -4.717   6.246   1.099
 7796CHOL    R591726  -4.663   6.455   1.096
 7796CHOL    C191727  -4.461   6.496   1.219
 7796CHOL    C291728  -4.259   6.538   1.342
 7797CHOL   ROH91729   2.924  20.544  22.553
 7797CHOL    R191730   2.985  20.449  22.440
 7797CHOL    R291731   3.106  20.258  22.496
 7797CHOL    R391732   3.053  20.341  22.313
 7797CHOL    R491733   3.159  20.174  22.397
 7797CHOL    R591734   3.114  20.246  22.200
 7797CHOL    C191735   3.205  20.103  22.030
 7797CHOL    C291736   3.296  19.960  21.860
 7798CHOL   ROH91737  -2.832  15.991  20.976
 7798CHOL    R191738  -2.722  15.935  20.874
 7798CHOL    R291739  -2.555  16.074  20.790
 7798CHOL    R391740  -2.598  15.872  20.759
 7798CHOL    R491741  -2.459  16.026  20.700
 7798CHOL    R591742  -2.488  15.817  20.658
 7798CHOL    C191743  -2.323  15.733  20.505
 7798CHOL    C291744  -2.158  15.649  20.352
 7799CHOL   ROH91745   6.832  -7.470   7.861
 7799CHOL    R191746   6.857  -7.313   7.877
 7799CHOL    R291747   7.069  -7.229   7.925
 7799CHOL    R391748   6.885  -7.136   7.896
 7799CHOL    R491749   7.091  -7.091   7.939
 7799CHOL    R591750   6.909  -6.979   7.912
 7799CHOL    C191751   6.947  -6.743   7.936
 7799CHOL    C291752   6.984  -6.507   7.961
 7800CHOL   ROH91753   2.201   1.722  23.803
 7800CHOL    R191754   2.275   1.794  23.681
 7800CHOL    R291755   2.367   2.006  23.704
 7800CHOL    R391756   2.358   1.874  23.543
 7800CHOL    R491757   2.432   2.069  23.597
 7800CHOL    R591758   2.432   1.945  23.421
 7800CHOL    C191759   2.544   2.053  23.237
 7800CHOL    C291760   2.655   2.160  23.053
 7801CHOL   ROH91761  -4.451   7.614  20.354
 7801CHOL    R191762  -4.323   7.633  20.260
 7801CHOL    R291763  -4.157   7.788  20.313
 7801CHOL    R391764  -4.179   7.655  20.154
 7801CHOL    R491765  -4.045   7.804  20.231
 7801CHOL    R591766  -4.052   7.674  20.059
 7801CHOL    C191767  -3.860   7.703  19.918
 7801CHOL    C291768  -3.668   7.732  19.777
 7802CHOL   ROH91769   2.735   3.507  24.994
 7802CHOL    R191770   2.802   3.563  24.860
 7802CHOL    R291771   2.845   3.791  24.834
 7802CHOL    R391772   2.877   3.626  24.709
 7802CHOL    R491773   2.903   3.840  24.716
 7802CHOL    R591774   2.944   3.683  24.575
 7802CHOL    C191775   3.044   3.767  24.374
 7802CHOL    C291776   3.144   3.851  24.173
 7803CHOL   ROH91777  21.212  22.656   4.441
 7803CHOL    R191778  21.107  22.548   4.495
 7803CHOL    R291779  21.175  22.331   4.548
 7803CHOL    R391780  20.990  22.426   4.557
 7803CHOL    R491781  21.084  22.236   4.596
 7803CHOL    R591782  20.885  22.318   4.611
 7803CHOL    C191783  20.728  22.156   4.693
 7803CHOL    C291784  20.571  21.994   4.774
 7804CHOL   ROH91785  25.461  14.032   2.235
 7804CHOL    R191786  25.322  13.997   2.307
 7804CHOL    R291787  25.122  13.998   2.188
 7804CHOL    R391788  25.167  13.958   2.388
 7804CHOL    R491789  25.001  13.968   2.251
 7804CHOL    R591790  25.028  13.923   2.460
 7804CHOL    C191791  24.820  13.871   2.567
 7804CHOL    C291792  24.612  13.818   2.675
 7805CHOL   ROH91793   1.539   6.042  -5.406
 7805CHOL    R191794   1.614   6.076  -5.269
 7805CHOL    R291795   1.494   6.123  -5.075
 7805CHOL    R391796   1.699   6.114  -5.115
 7805CHOL    R491797   1.560   6.153  -4.955
 7805CHOL    R591798   1.774   6.148  -4.978
 7805CHOL    C191799   1.888   6.200  -4.773
 7805CHOL    C291800   2.001   6.251  -4.567
 7806CHOL   ROH91801  14.241  16.073  -6.243
 7806CHOL    R191802  14.204  16.018  -6.098
 7806CHOL    R291803  14.105  15.808  -6.070
 7806CHOL    R391804  14.162  15.955  -5.934
 7806CHOL    R491805  14.073  15.759  -5.943
 7806CHOL    R591806  14.125  15.900  -5.789
 7806CHOL    C191807  14.069  15.817  -5.570
 7806CHOL    C291808  14.013  15.734  -5.352
 7807CHOL   ROH91809  -6.096  17.920   8.354
 7807CHOL    R191810  -5.952  17.852   8.369
 7807CHOL    R291811  -5.757  17.979   8.349
 7807CHOL    R391812  -5.790  17.776   8.386
 7807CHOL    R491813  -5.631  17.919   8.362
 7807CHOL    R591814  -5.645  17.708   8.401
 7807CHOL    C191815  -5.429  17.606   8.424
 7807CHOL    C291816  -5.213  17.504   8.446
 7808CHOL   ROH91817  -6.311  10.039   2.405
 7808CHOL    R191818  -6.165  10.039   2.470
 7808CHOL    R291819  -6.107   9.884   2.634
 7808CHOL    R391820  -6.001  10.040   2.544
 7808CHOL    R491821  -5.979   9.884   2.691
 7808CHOL    R591822  -5.855  10.040   2.609
 7808CHOL    C191823  -5.635  10.040   2.707
 7808CHOL    C291824  -5.416  10.041   2.805
 7809CHOL   ROH91825   4.177  21.472  -2.557
 7809CHOL    R191826   4.225  21.366  -2.447
 7809CHOL    R291827   4.425  21.248  -2.473
 7809CHOL    R391828   4.279  21.246  -2.324
 7809CHOL    R491829   4.466  21.155  -2.377
 7809CHOL    R591830   4.326  21.140  -2.214
 7809CHOL    C191831   4.398  20.981  -2.050
 7809CHOL    C291832   4.470  20.821  -1.886
 7810CHOL   ROH91833   2.352  -4.961  16.231
 7810CHOL    R191834   2.418  -4.827  16.175
 7810CHOL    R291835   2.590  -4.720  16.290
 7810CHOL    R391836   2.492  -4.675  16.111
 7810CHOL    R491837   2.648  -4.603  16.241
 7810CHOL    R591838   2.559  -4.541  16.055
 7810CHOL    C191839   2.658  -4.339  15.971
 7810CHOL    C291840   2.757  -4.138  15.886
 7811CHOL   ROH91841   1.156  19.953  21.919
 7811CHOL    R191842   1.236  19.866  21.811
 7811CHOL    R291843   1.405  19.719  21.875
 7811CHOL    R391844   1.325  19.768  21.689
 7811CHOL    R491845   1.474  19.643  21.781
 7811CHOL    R591846   1.405  19.682  21.581
 7811CHOL    C191847   1.524  19.551  21.418
 7811CHOL    C291848   1.643  19.421  21.256
 7812CHOL   ROH91849  -6.825  10.701  16.262
 7812CHOL    R191850  -6.674  10.700  16.208
 7812CHOL    R291851  -6.521  10.861  16.278
 7812CHOL    R391852  -6.505  10.699  16.147
 7812CHOL    R491853  -6.389  10.860  16.231
 7812CHOL    R591854  -6.355  10.698  16.093
 7812CHOL    C191855  -6.129  10.697  16.012
 7812CHOL    C291856  -5.903  10.695  15.931
 7813CHOL   ROH91857  -6.883   4.090  11.552
 7813CHOL    R191858  -6.733   4.142  11.536
 7813CHOL    R291859  -6.552   3.995  11.546
 7813CHOL    R391860  -6.564   4.202  11.518
 7813CHOL    R491861  -6.421   4.041  11.532
 7813CHOL    R591862  -6.414   4.254  11.502
 7813CHOL    C191863  -6.188   4.333  11.478
 7813CHOL    C291864  -5.963   4.411  11.454
 7814CHOL   ROH91865  16.218  -6.685  10.677
 7814CHOL    R191866  16.159  -6.536  10.671
 7814CHOL    R291867  16.277  -6.364  10.566
 7814CHOL    R391868  16.093  -6.369  10.664
 7814CHOL    R491869  16.225  -6.234  10.561
 7814CHOL    R591870  16.033  -6.220  10.658
 7814CHOL    C191871  15.945  -5.998  10.649
 7814CHOL    C291872  15.856  -5.775  10.640
 7815CHOL   ROH91873  24.308  20.463   9.824
 7815CHOL    R191874  24.177  20.371   9.828
 7815CHOL    R291875  24.193  20.139   9.838
 7815CHOL    R391876  24.029  20.269   9.831
 7815CHOL    R491877  24.078  20.059   9.841
 7815CHOL    R591878  23.898  20.177   9.835
 7815CHOL    C191879  23.701  20.040   9.840
 7815CHOL    C291880  23.504  19.902   9.846
 7816CHOL   ROH91881   8.023   3.454  -6.560
 7816CHOL    R191882   8.035   3.510  -6.411
 7816CHOL    R291883   8.170   3.695  -6.363
 7816CHOL    R391884   8.049   3.574  -6.243
 7816CHOL    R491885   8.181   3.744  -6.232
 7816CHOL    R591886   8.061   3.631  -6.094
 7816CHOL    C191887   8.080   3.715  -5.870
 7816CHOL    C291888   8.098   3.800  -5.646
 7817CHOL   ROH91889   6.175  17.717  25.664
 7817CHOL    R191890   6.205  17.645  25.524
 7817CHOL    R291891   6.369  17.727  25.380
 7817CHOL    R391892   6.239  17.564  25.368
 7817CHOL    R491893   6.395  17.664  25.258
 7817CHOL    R591894   6.269  17.492  25.228
 7817CHOL    C191895   6.314  17.383  25.019
 7817CHOL    C291896   6.359  17.275  24.809
 7818CHOL   ROH91897   8.464  27.493  13.252
 7818CHOL    R191898   8.473  27.336  13.224
 7818CHOL    R291899   8.643  27.206  13.318
 7818CHOL    R391900   8.483  27.159  13.192
 7818CHOL    R491901   8.651  27.069  13.293
 7818CHOL    R591902   8.492  27.002  13.164
 7818CHOL    C191903   8.505  26.766  13.121
 7818CHOL    C291904   8.519  26.530  13.079
 7819CHOL   ROH91905  10.285  23.073  22.067
 7819CHOL    R191906  10.281  22.955  21.959
 7819CHOL    R291907  10.368  22.745  22.007
 7819CHOL    R391908  10.277  22.823  21.837
 7819CHOL    R491909  10.365  22.642  21.913
 7819CHOL    R591910  10.273  22.705  21.729
 7819CHOL    C191911  10.268  22.529  21.566
 7819CHOL    C291912  10.262  22.353  21.404
 7820CHOL   ROH91913  16.438  24.988   2.868
 7820CHOL    R191914  16.381  24.852   2.931
 7820CHOL    R291915  16.488  24.749   3.110
 7820CHOL    R391916  16.317  24.699   3.001
 7820CHOL    R491917  16.438  24.630   3.165
 7820CHOL    R591918  16.260  24.563   3.063
 7820CHOL    C191919  16.175  24.360   3.157
 7820CHOL    C291920  16.090  24.156   3.251
 7821CHOL   ROH91921  -6.720   4.410  13.311
 7821CHOL    R191922  -6.571   4.460  13.282
 7821CHOL    R291923  -6.444   4.564  13.447
 7821CHOL    R391924  -6.403   4.517  13.248
 7821CHOL    R491925  -6.314   4.608  13.422
 7821CHOL    R591926  -6.254   4.567  13.219
 7821CHOL    C191927  -6.030   4.642  13.175
 7821CHOL    C291928  -5.807   4.718  13.131
 7822CHOL   ROH91929   4.866  -5.448  17.461
 7822CHOL    R191930   4.911  -5.310  17.394
 7822CHOL    R291931   4.980  -5.302  17.171
 7822CHOL    R391932   4.962  -5.155  17.318
 7822CHOL    R491933   5.020  -5.181  17.112
 7822CHOL    R591934   5.007  -5.016  17.251
 7822CHOL    C191935   5.075  -4.809  17.150
 7822CHOL    C291936   5.142  -4.602  17.049
 7823CHOL   ROH91937  21.491  -1.708  16.784
 7823CHOL    R191938  21.388  -1.602  16.722
 7823CHOL    R291939  21.320  -1.616  16.500
 7823CHOL    R391940  21.272  -1.483  16.653
 7823CHOL    R491941  21.230  -1.524  16.446
 7823CHOL    R591942  21.170  -1.377  16.591
 7823CHOL    C191943  21.015  -1.218  16.499
 7823CHOL    C291944  20.861  -1.059  16.407
 7824CHOL   ROH91945  10.415  17.181  -6.382
 7824CHOL    R191946  10.408  17.117  -6.235
 7824CHOL    R291947  10.435  16.888  -6.203
 7824CHOL    R391948  10.400  17.045  -6.071
 7824CHOL    R491949  10.429  16.832  -6.075
 7824CHOL    R591950  10.393  16.981  -5.924
 7824CHOL    C191951  10.383  16.886  -5.704
 7824CHOL    C291952  10.373  16.790  -5.484
 7825CHOL   ROH91953   0.288  12.292  24.813
 7825CHOL    R191954   0.378  12.266  24.683
 7825CHOL    R291955   0.582  12.154  24.699
 7825CHOL    R391956   0.479  12.237  24.538
 7825CHOL    R491957   0.660  12.131  24.586
 7825CHOL    R591958   0.569  12.211  24.408
 7825CHOL    C191959   0.705  12.172  24.214
 7825CHOL    C291960   0.840  12.133  24.019
 7826CHOL   ROH91961   9.138  17.011  26.342
 7826CHOL    R191962   9.140  16.953  26.193
 7826CHOL    R291963   9.233  17.076  26.018
 7826CHOL    R391964   9.142  16.888  26.025
 7826CHOL    R491965   9.234  17.026  25.887
 7826CHOL    R591966   9.145  16.830  25.876
 7826CHOL    C191967   9.148  16.744  25.652
 7826CHOL    C291968   9.151  16.657  25.429
 7827CHOL   ROH91969  15.105  26.958  11.830
 7827CHOL    R191970  15.055  26.807  11.814
 7827CHOL    R291971  15.085  26.651  11.985
 7827CHOL    R391972  14.998  26.637  11.796
 7827CHOL    R491973  15.041  26.519  11.971
 7827CHOL    R591974  14.948  26.486  11.779
 7827CHOL    C191975  14.873  26.259  11.755
 7827CHOL    C291976  14.797  26.033  11.731
 7828CHOL   ROH91977  21.697  22.885  13.212
 7828CHOL    R191978  21.589  22.773  13.176
 7828CHOL    R291979  21.594  22.564  13.281
 7828CHOL    R391980  21.467  22.646  13.136
 7828CHOL    R491981  21.499  22.466  13.249
 7828CHOL    R591982  21.359  22.534  13.101
 7828CHOL    C191983  21.197  22.365  13.047
 7828CHOL    C291984  21.035  22.196  12.993
 7829CHOL   ROH91985  17.990  24.554   3.525
 7829CHOL    R191986  17.921  24.423   3.585
 7829CHOL    R291987  18.013  24.311   3.768
 7829CHOL    R391988  17.843  24.275   3.652
 7829CHOL    R491989  17.952  24.196   3.820
 7829CHOL    R591990  17.774  24.143   3.711
 7829CHOL    C191991  17.670  23.946   3.801
 7829CHOL    C291992  17.567  23.749   3.891
 7830CHOL   ROH91993  21.784  20.101   1.404
 7830CHOL    R191994  21.680  20.007   1.481
 7830CHOL    R291995  21.515  19.890   1.365
 7830CHOL    R391996  21.563  19.902   1.568
 7830CHOL    R491997  21.424  19.808   1.433
 7830CHOL    R591998  21.458  19.808   1.646
 7830CHOL    C191999  21.302  19.667   1.761
 7830CHOL    C292000  21.146  19.527   1.877
 7831CHOL   ROH92001   6.129  -3.825  20.639
 7831CHOL    R192002   6.163  -3.702  20.542
 7831CHOL    R292003   6.316  -3.538  20.606
 7831CHOL    R392004   6.202  -3.564  20.433
 7831CHOL    R492005   6.346  -3.431  20.521
 7831CHOL    R592006   6.236  -3.441  20.337
 7831CHOL    C192007   6.287  -3.257  20.191
 7831CHOL    C292008   6.339  -3.073  20.046
 7832CHOL   ROH92009  22.356  20.229  17.419
 7832CHOL    R192010  22.246  20.132  17.355
 7832CHOL    R292011  22.272  20.044  17.141
 7832CHOL    R392012  22.121  20.023  17.284
 7832CHOL    R492013  22.176  19.960  17.086
 7832CHOL    R592014  22.011  19.927  17.221
 7832CHOL    C192015  21.845  19.781  17.125
 7832CHOL    C292016  21.680  19.636  17.030
 7833CHOL   ROH92017   9.932   6.420  27.436
 7833CHOL    R192018   9.933   6.453  27.280
 7833CHOL    R292019  10.113   6.393  27.145
 7833CHOL    R392020   9.934   6.491  27.103
 7833CHOL    R492021  10.114   6.422  27.008
 7833CHOL    R592022   9.935   6.524  26.947
 7833CHOL    C192023   9.936   6.575  26.712
 7833CHOL    C292024   9.938   6.625  26.478
 7834CHOL   ROH92025  -4.873  10.989  19.912
 7834CHOL    R192026  -4.743  10.979  19.820
 7834CHOL    R292027  -4.529  10.986  19.913
 7834CHOL    R392028  -4.596  10.968  19.716
 7834CHOL    R492029  -4.415  10.977  19.832
 7834CHOL    R592030  -4.465  10.958  19.624
 7834CHOL    C192031  -4.270  10.944  19.486
 7834CHOL    C292032  -4.074  10.929  19.348
 7835CHOL   ROH92033  21.987  10.782  -3.130
 7835CHOL    R192034  21.876  10.775  -3.015
 7835CHOL    R292035  21.788  10.571  -2.945
 7835CHOL    R392036  21.751  10.767  -2.886
 7835CHOL    R492037  21.691  10.565  -2.845
 7835CHOL    R592038  21.640  10.761  -2.771
 7835CHOL    C192039  21.473  10.750  -2.599
 7835CHOL    C292040  21.306  10.740  -2.426
 7836CHOL   ROH92041  24.729  14.954  18.538
 7836CHOL    R192042  24.594  14.912  18.463
 7836CHOL    R292043  24.556  14.690  18.401
 7836CHOL    R392044  24.443  14.864  18.378
 7836CHOL    R492045  24.438  14.653  18.336
 7836CHOL    R592046  24.308  14.822  18.303
 7836CHOL    C192047  24.106  14.758  18.190
 7836CHOL    C292048  23.904  14.694  18.077
 7837CHOL   ROH92049  -0.802  -0.182  20.012
 7837CHOL    R192050  -0.706  -0.093  19.919
 7837CHOL    R292051  -0.474  -0.106  19.940
 7837CHOL    R392052  -0.599   0.006  19.815
 7837CHOL    R492053  -0.391  -0.028  19.859
 7837CHOL    R592054  -0.503   0.095  19.723
 7837CHOL    C192055  -0.359   0.228  19.584
 7837CHOL    C292056  -0.216   0.361  19.445
 7838CHOL   ROH92057  -4.155  21.096   9.594
 7838CHOL    R192058  -4.031  20.995   9.594
 7838CHOL    R292059  -3.881  20.990   9.773
 7838CHOL    R392060  -3.891  20.882   9.595
 7838CHOL    R492061  -3.772  20.902   9.774
 7838CHOL    R592062  -3.767  20.781   9.595
 7838CHOL    C192063  -3.580  20.630   9.596
 7838CHOL    C292064  -3.394  20.479   9.597
 7839CHOL   ROH92065   0.722  15.702  24.099
 7839CHOL    R192066   0.807  15.651  23.973
 7839CHOL    R292067   1.028  15.581  23.998
 7839CHOL    R392068   0.902  15.593  23.832
 7839CHOL    R492069   1.102  15.536  23.889
 7839CHOL    R592070   0.987  15.542  23.707
 7839CHOL    C192071   1.114  15.464  23.518
 7839CHOL    C292072   1.241  15.387  23.330
 7840CHOL   ROH92073   7.541  -7.535   7.549
 7840CHOL    R192074   7.561  -7.377   7.568
 7840CHOL    R292075   7.774  -7.282   7.567
 7840CHOL    R392076   7.583  -7.200   7.589
 7840CHOL    R492077   7.791  -7.144   7.584
 7840CHOL    R592078   7.603  -7.042   7.608
 7840CHOL    C192079   7.632  -6.806   7.637
 7840CHOL    C292080   7.662  -6.570   7.666
 7841CHOL   ROH92081  22.003  21.248  16.352
 7841CHOL    R192082  21.896  21.144  16.295
 7841CHOL    R292083  21.930  21.036  16.091
 7841CHOL    R392084  21.776  21.026  16.231
 7841CHOL    R492085  21.836  20.945  16.041
 7841CHOL    R592086  21.669  20.922  16.173
 7841CHOL    C192087  21.508  20.766  16.088
 7841CHOL    C292088  21.347  20.609  16.002
 7842CHOL   ROH92089  24.860  18.923  13.628
 7842CHOL    R192090  24.726  18.843  13.595
 7842CHOL    R292091  24.605  18.885  13.400
 7842CHOL    R392092  24.575  18.752  13.558
 7842CHOL    R492093  24.488  18.815  13.371
 7842CHOL    R592094  24.441  18.672  13.525
 7842CHOL    C192095  24.239  18.551  13.476
 7842CHOL    C292096  24.038  18.430  13.426
 7843CHOL   ROH92097   1.522   5.076  24.920
 7843CHOL    R192098   1.600   5.121  24.788
 7843CHOL    R292099   1.768   4.988  24.696
 7843CHOL    R392100   1.688   5.173  24.639
 7843CHOL    R492101   1.836   5.028  24.580
 7843CHOL    R592102   1.765   5.218  24.507
 7843CHOL    C192103   1.882   5.286  24.309
 7843CHOL    C292104   1.999   5.354  24.111
 7844CHOL   ROH92105   4.315  26.703  12.937
 7844CHOL    R192106   4.368  26.555  12.908
 7844CHOL    R292107   4.591  26.515  12.854
 7844CHOL    R392108   4.427  26.388  12.876
 7844CHOL    R492109   4.637  26.385  12.829
 7844CHOL    R592110   4.479  26.240  12.847
 7844CHOL    C192111   4.558  26.017  12.804
 7844CHOL    C292112   4.637  25.795  12.761
 7845CHOL   ROH92113   6.919   1.476  25.300
 7845CHOL    R192114   6.945   1.547  25.159
 7845CHOL    R292115   7.161   1.602  25.090
 7845CHOL    R392116   6.974   1.627  25.000
 7845CHOL    R492117   7.184   1.664  24.967
 7845CHOL    R592118   7.000   1.698  24.859
 7845CHOL    C192119   7.039   1.805  24.648
 7845CHOL    C292120   7.078   1.912  24.437
 7846CHOL   ROH92121   6.858  -0.591  24.042
 7846CHOL    R192122   6.884  -0.498  23.914
 7846CHOL    R292123   7.095  -0.483  23.817
 7846CHOL    R392124   6.913  -0.393  23.771
 7846CHOL    R492125   7.118  -0.402  23.706
 7846CHOL    R592126   6.938  -0.299  23.644
 7846CHOL    C192127   6.977  -0.160  23.452
 7846CHOL    C292128   7.016  -0.020  23.261
 7847CHOL   ROH92129   5.268  17.406  25.594
 7847CHOL    R192130   5.308  17.337  25.455
 7847CHOL    R292131   5.491  17.193  25.441
 7847CHOL    R392132   5.353  17.259  25.299
 7847CHOL    R492133   5.526  17.133  25.320
 7847CHOL    R592134   5.394  17.190  25.160
 7847CHOL    C192135   5.454  17.087  24.952
 7847CHOL    C292136   5.514  16.984  24.744
 7848CHOL   ROH92137   5.634  27.284  11.739
 7848CHOL    R192138   5.673  27.130  11.722
 7848CHOL    R292139   5.804  27.021  11.881
 7848CHOL    R392140   5.716  26.956  11.703
 7848CHOL    R492141   5.838  26.886  11.867
 7848CHOL    R592142   5.754  26.802  11.687
 7848CHOL    C192143   5.812  26.570  11.661
 7848CHOL    C292144   5.870  26.338  11.636
 7849CHOL   ROH92145   3.682   2.213  -4.942
 7849CHOL    R192146   3.740   2.285  -4.811
 7849CHOL    R292147   3.955   2.239  -4.735
 7849CHOL    R392148   3.804   2.365  -4.664
 7849CHOL    R492149   4.006   2.302  -4.620
 7849CHOL    R592150   3.862   2.437  -4.532
 7849CHOL    C192151   3.948   2.544  -4.336
 7849CHOL    C292152   4.035   2.651  -4.139
 7850CHOL   ROH92153   7.021  18.870  25.190
 7850CHOL    R192154   7.047  18.788  25.055
 7850CHOL    R292155   7.262  18.723  24.993
 7850CHOL    R392156   7.075  18.696  24.903
 7850CHOL    R492157   7.284  18.651  24.875
 7850CHOL    R592158   7.101  18.615  24.768
 7850CHOL    C192159   7.139  18.492  24.565
 7850CHOL    C292160   7.178  18.369  24.363
 7851CHOL   ROH92161   4.611  18.205  -5.038
 7851CHOL    R192162   4.659  18.135  -4.902
 7851CHOL    R292163   4.659  18.253  -4.700
 7851CHOL    R392164   4.713  18.057  -4.749
 7851CHOL    R492165   4.700  18.192  -4.581
 7851CHOL    R592166   4.761  17.988  -4.613
 7851CHOL    C192167   4.832  17.883  -4.409
 7851CHOL    C292168   4.904  17.779  -4.205
 7852CHOL   ROH92169  -6.353  13.200   3.287
 7852CHOL    R192170  -6.206  13.170   3.343
 7852CHOL    R292171  -6.159  13.189   3.571
 7852CHOL    R392172  -6.042  13.136   3.407
 7852CHOL    R492173  -6.031  13.162   3.621
 7852CHOL    R592174  -5.895  13.106   3.463
 7852CHOL    C192175  -5.675  13.060   3.548
 7852CHOL    C292176  -5.455  13.015   3.633
 7853CHOL   ROH92177  10.440  -6.490  16.889
 7853CHOL    R192178  10.438  -6.342  16.828
 7853CHOL    R292179  10.617  -6.197  16.859
 7853CHOL    R392180  10.435  -6.176  16.759
 7853CHOL    R492181  10.616  -6.068  16.805
 7853CHOL    R592182  10.433  -6.028  16.698
 7853CHOL    C192183  10.430  -5.806  16.606
 7853CHOL    C292184  10.426  -5.584  16.515
 7854CHOL   ROH92185  24.278  -0.393   8.304
 7854CHOL    R192186  24.148  -0.301   8.320
 7854CHOL    R292187  23.960  -0.336   8.186
 7854CHOL    R392188  24.002  -0.198   8.337
 7854CHOL    R492189  23.846  -0.256   8.200
 7854CHOL    R592190  23.872  -0.106   8.353
 7854CHOL    C192191  23.676   0.032   8.377
 7854CHOL    C292192  23.481   0.170   8.400
 7855CHOL   ROH92193  17.616  23.187  19.060
 7855CHOL    R192194  17.543  23.069  18.981
 7855CHOL    R292195  17.475  23.096  18.759
 7855CHOL    R392196  17.461  22.935  18.892
 7855CHOL    R492197  17.411  22.993  18.690
 7855CHOL    R592198  17.388  22.817  18.812
 7855CHOL    C192199  17.279  22.639  18.694
 7855CHOL    C292200  17.169  22.462  18.575
 7856CHOL   ROH92201  23.522  -1.481  11.256
 7856CHOL    R192202  23.400  -1.378  11.243
 7856CHOL    R292203  23.428  -1.152  11.291
 7856CHOL    R392204  23.263  -1.263  11.228
 7856CHOL    R492205  23.322  -1.062  11.279
 7856CHOL    R592206  23.141  -1.160  11.214
 7856CHOL    C192207  22.958  -1.006  11.195
 7856CHOL    C292208  22.775  -0.852  11.175
 7857CHOL   ROH92209  26.552  16.227   9.542
 7857CHOL    R192210  26.404  16.167   9.548
 7857CHOL    R292211  26.367  15.937   9.535
 7857CHOL    R392212  26.237  16.099   9.554
 7857CHOL    R492213  26.238  15.884   9.540
 7857CHOL    R592214  26.089  16.039   9.560
 7857CHOL    C192215  25.867  15.948   9.568
 7857CHOL    C292216  25.645  15.858   9.576
 7858CHOL   ROH92217  22.615  -2.172  12.760
 7858CHOL    R192218  22.500  -2.064  12.734
 7858CHOL    R292219  22.508  -1.923  12.548
 7858CHOL    R392220  22.371  -1.942  12.704
 7858CHOL    R492221  22.408  -1.828  12.525
 7858CHOL    R592222  22.256  -1.834  12.677
 7858CHOL    C192223  22.084  -1.672  12.638
 7858CHOL    C292224  21.911  -1.510  12.598
 7859CHOL   ROH92225  -6.158   2.782   7.074
 7859CHOL    R192226  -6.014   2.846   7.099
 7859CHOL    R292227  -5.890   2.791   7.290
 7859CHOL    R392228  -5.851   2.918   7.128
 7859CHOL    R492229  -5.764   2.847   7.312
 7859CHOL    R592230  -5.707   2.982   7.153
 7859CHOL    C192231  -5.490   3.077   7.192
 7859CHOL    C292232  -5.273   3.173   7.230
 7860CHOL   ROH92233  21.216  21.339   2.257
 7860CHOL    R192234  21.116  21.237   2.329
 7860CHOL    R292235  21.176  21.014   2.362
 7860CHOL    R392236  21.003  21.121   2.409
 7860CHOL    R492237  21.088  20.924   2.424
 7860CHOL    R592238  20.903  21.019   2.480
 7860CHOL    C192239  20.753  20.865   2.588
 7860CHOL    C292240  20.603  20.712   2.695
 7861CHOL   ROH92241  23.697   7.875  20.968
 7861CHOL    R192242  23.572   7.896  20.871
 7861CHOL    R292243  23.530   8.104  20.772
 7861CHOL    R392244  23.430   7.921  20.762
 7861CHOL    R492245  23.420   8.122  20.687
 7861CHOL    R592246  23.305   7.942  20.664
 7861CHOL    C192247  23.117   7.974  20.519
 7861CHOL    C292248  22.929   8.006  20.373
 7862CHOL   ROH92249  25.017   6.119  18.445
 7862CHOL    R192250  24.882   6.153  18.366
 7862CHOL    R292251  24.818   6.373  18.326
 7862CHOL    R392252  24.730   6.190  18.276
 7862CHOL    R492253  24.700   6.403  18.256
 7862CHOL    R592254  24.596   6.224  18.197
 7862CHOL    C192255  24.393   6.274  18.078
 7862CHOL    C292256  24.191   6.325  17.959
 7863CHOL   ROH92257  27.319   7.961   7.061
 7863CHOL    R192258  27.162   7.977   7.086
 7863CHOL    R292259  27.063   8.189   7.098
 7863CHOL    R392260  26.985   7.996   7.114
 7863CHOL    R492261  26.926   8.203   7.119
 7863CHOL    R592262  26.828   8.012   7.138
 7863CHOL    C192263  26.592   8.036   7.176
 7863CHOL    C292264  26.356   8.061   7.213
 7864CHOL   ROH92265   9.069  -7.400  14.032
 7864CHOL    R192266   9.075  -7.243  14.000
 7864CHOL    R292267   9.116  -7.166  13.784
 7864CHOL    R392268   9.082  -7.067  13.965
 7864CHOL    R492269   9.122  -7.029  13.756
 7864CHOL    R592270   9.088  -6.910  13.933
 7864CHOL    C192271   9.097  -6.675  13.885
 7864CHOL    C292272   9.106  -6.440  13.838
 7865CHOL   ROH92273  -3.675  -1.440  12.322
 7865CHOL    R192274  -3.554  -1.337  12.301
 7865CHOL    R292275  -3.359  -1.353  12.428
 7865CHOL    R392276  -3.418  -1.222  12.277
 7865CHOL    R492277  -3.253  -1.263  12.409
 7865CHOL    R592278  -3.297  -1.119  12.256
 7865CHOL    C192279  -3.116  -0.965  12.224
 7865CHOL    C292280  -2.935  -0.811  12.192
 7866CHOL   ROH92281  22.608  21.801  13.714
 7866CHOL    R192282  22.495  21.694  13.677
 7866CHOL    R292283  22.342  21.735  13.505
 7866CHOL    R392284  22.369  21.573  13.635
 7866CHOL    R492285  22.244  21.641  13.473
 7866CHOL    R592286  22.256  21.466  13.597
 7866CHOL    C192287  22.087  21.304  13.542
 7866CHOL    C292288  21.918  21.143  13.486
 7867CHOL   ROH92289  21.238  23.574   7.538
 7867CHOL    R192290  21.138  23.451   7.557
 7867CHOL    R292291  20.973  23.404   7.399
 7867CHOL    R392292  21.025  23.313   7.579
 7867CHOL    R492293  20.885  23.296   7.416
 7867CHOL    R592294  20.925  23.190   7.598
 7867CHOL    C192295  20.774  23.005   7.628
 7867CHOL    C292296  20.624  22.820   7.657
 7868CHOL   ROH92297  19.822   0.486  21.268
 7868CHOL    R192298  19.732   0.572  21.167
 7868CHOL    R292299  19.824   0.660  20.971
 7868CHOL    R392300  19.632   0.668  21.053
 7868CHOL    R492301  19.745   0.735  20.883
 7868CHOL    R592302  19.542   0.753  20.952
 7868CHOL    C192303  19.408   0.882  20.800
 7868CHOL    C292304  19.273   1.010  20.648
 7869CHOL   ROH92305  16.673  23.017  20.057
 7869CHOL    R192306  16.612  22.899  19.968
 7869CHOL    R292307  16.655  22.675  20.020
 7869CHOL    R392308  16.544  22.765  19.868
 7869CHOL    R492309  16.602  22.572  19.943
 7869CHOL    R592310  16.483  22.647  19.780
 7869CHOL    C192311  16.392  22.469  19.646
 7869CHOL    C292312  16.301  22.292  19.513
 7870CHOL   ROH92313  16.323  25.294  16.405
 7870CHOL    R192314  16.265  25.157  16.346
 7870CHOL    R292315  16.398  25.017  16.215
 7870CHOL    R392316  16.200  25.003  16.279
 7870CHOL    R492317  16.347  24.898  16.163
 7870CHOL    R592318  16.142  24.866  16.220
 7870CHOL    C192319  16.055  24.661  16.130
 7870CHOL    C292320  15.968  24.456  16.041
 7871CHOL   ROH92321   1.506   1.390  23.146
 7871CHOL    R192322   1.587   1.463  23.029
 7871CHOL    R292323   1.775   1.593  23.076
 7871CHOL    R392324   1.678   1.546  22.897
 7871CHOL    R492325   1.846   1.657  22.973
 7871CHOL    R592326   1.758   1.619  22.780
 7871CHOL    C192327   1.880   1.729  22.604
 7871CHOL    C292328   2.001   1.839  22.429
 7872CHOL   ROH92329  18.039   7.419  25.593
 7872CHOL    R192330  17.969   7.446  25.452
 7872CHOL    R292331  17.941   7.663  25.371
 7872CHOL    R392332  17.889   7.477  25.293
 7872CHOL    R492333  17.880   7.687  25.248
 7872CHOL    R592334  17.819   7.504  25.152
 7872CHOL    C192335  17.713   7.545  24.940
 7872CHOL    C292336  17.608   7.586  24.729
 7873CHOL   ROH92337  -2.186  14.615  22.232
 7873CHOL    R192338  -2.082  14.573  22.118
 7873CHOL    R292339  -1.853  14.561  22.162
 7873CHOL    R392340  -1.965  14.526  21.989
 7873CHOL    R492341  -1.763  14.525  22.062
 7873CHOL    R592342  -1.862  14.484  21.875
 7873CHOL    C192343  -1.706  14.420  21.704
 7873CHOL    C292344  -1.550  14.357  21.532
 7874CHOL   ROH92345   1.173  24.717  14.928
 7874CHOL    R192346   1.250  24.585  14.882
 7874CHOL    R292347   1.445  24.515  14.991
 7874CHOL    R392348   1.338  24.436  14.830
 7874CHOL    R492349   1.512  24.399  14.950
 7874CHOL    R592350   1.415  24.304  14.784
 7874CHOL    C192351   1.531  24.106  14.714
 7874CHOL    C292352   1.647  23.908  14.645
 7875CHOL   ROH92353   4.589  -0.842  -3.248
 7875CHOL    R192354   4.637  -0.744  -3.131
 7875CHOL    R292355   4.716  -0.830  -2.929
 7875CHOL    R392356   4.691  -0.635  -2.999
 7875CHOL    R492357   4.758  -0.744  -2.826
 7875CHOL    R592358   4.739  -0.537  -2.881
 7875CHOL    C192359   4.811  -0.391  -2.706
 7875CHOL    C292360   4.883  -0.244  -2.530
 7876CHOL   ROH92361  -1.038   5.462  23.246
 7876CHOL    R192362  -0.941   5.508  23.127
 7876CHOL    R292363  -0.716   5.552  23.166
 7876CHOL    R392364  -0.833   5.559  22.993
 7876CHOL    R492365  -0.631   5.592  23.062
 7876CHOL    R592366  -0.736   5.604  22.874
 7876CHOL    C192367  -0.591   5.673  22.695
 7876CHOL    C292368  -0.446   5.741  22.517
 7877CHOL   ROH92369  -1.945   5.885  22.632
 7877CHOL    R192370  -1.842   5.927  22.517
 7877CHOL    R292371  -1.617   5.962  22.564
 7877CHOL    R392372  -1.726   5.974  22.387
 7877CHOL    R492373  -1.527   5.999  22.464
 7877CHOL    R592374  -1.623   6.016  22.272
 7877CHOL    C192375  -1.469   6.078  22.099
 7877CHOL    C292376  -1.315   6.141  21.926
 7878CHOL   ROH92377  -0.971   2.315  -1.935
 7878CHOL    R192378  -0.877   2.386  -1.827
 7878CHOL    R292379  -0.968   2.510  -1.652
 7878CHOL    R392380  -0.771   2.466  -1.705
 7878CHOL    R492381  -0.886   2.572  -1.557
 7878CHOL    R592382  -0.677   2.537  -1.597
 7878CHOL    C192383  -0.536   2.643  -1.434
 7878CHOL    C292384  -0.395   2.749  -1.272
 7879CHOL   ROH92385  -7.500  14.060   8.787
 7879CHOL    R192386  -7.345  14.024   8.800
 7879CHOL    R292387  -7.276  13.816   8.879
 7879CHOL    R392388  -7.170  13.984   8.814
 7879CHOL    R492389  -7.140  13.785   8.890
 7879CHOL    R592390  -7.014  13.948   8.826
 7879CHOL    C192391  -6.781  13.894   8.845
 7879CHOL    C292392  -6.548  13.840   8.864
 7880CHOL   ROH92393  25.128  18.779  12.781
 7880CHOL    R192394  24.991  18.700  12.755
 7880CHOL    R292395  24.895  18.694  12.542
 7880CHOL    R392396  24.837  18.612  12.725
 7880CHOL    R492397  24.776  18.625  12.519
 7880CHOL    R592398  24.701  18.533  12.699
 7880CHOL    C192399  24.495  18.415  12.660
 7880CHOL    C292400  24.290  18.297  12.620
 7881CHOL   ROH92401  18.218  15.174  -4.985
 7881CHOL    R192402  18.141  15.126  -4.854
 7881CHOL    R292403  18.176  14.913  -4.765
 7881CHOL    R392404  18.053  15.071  -4.706
 7881CHOL    R492405  18.108  14.871  -4.650
 7881CHOL    R592406  17.976  15.023  -4.574
 7881CHOL    C192407  17.860  14.951  -4.377
 7881CHOL    C292408  17.744  14.878  -4.180
 7882CHOL   ROH92409  11.226  -6.671  16.328
 7882CHOL    R192410  11.215  -6.521  16.274
 7882CHOL    R292411  11.240  -6.473  16.047
 7882CHOL    R392412  11.203  -6.352  16.213
 7882CHOL    R492413  11.230  -6.342  15.999
 7882CHOL    R592414  11.193  -6.202  16.158
 7882CHOL    C192415  11.176  -5.977  16.077
 7882CHOL    C292416  11.160  -5.752  15.996
 7883CHOL   ROH92417  23.201  13.636  -1.329
 7883CHOL    R192418  23.080  13.608  -1.228
 7883CHOL    R292419  22.859  13.643  -1.293
 7883CHOL    R392420  22.944  13.575  -1.114
 7883CHOL    R492421  22.753  13.618  -1.204
 7883CHOL    R592422  22.823  13.547  -1.014
 7883CHOL    C192423  22.642  13.504  -0.862
 7883CHOL    C292424  22.461  13.462  -0.711
 7884CHOL   ROH92425  24.666  16.237  17.801
 7884CHOL    R192426  24.532  16.183  17.733
 7884CHOL    R292427  24.538  16.069  17.530
 7884CHOL    R392428  24.380  16.123  17.656
 7884CHOL    R492429  24.420  16.022  17.470
 7884CHOL    R592430  24.246  16.069  17.588
 7884CHOL    C192431  24.044  15.989  17.486
 7884CHOL    C292432  23.843  15.909  17.384
 7885CHOL   ROH92433  13.402  27.114   6.495
 7885CHOL    R192434  13.370  26.961   6.529
 7885CHOL    R292435  13.541  26.805   6.555
 7885CHOL    R392436  13.333  26.789   6.568
 7885CHOL    R492437  13.513  26.671   6.585
 7885CHOL    R592438  13.301  26.636   6.602
 7885CHOL    C192439  13.253  26.407   6.653
 7885CHOL    C292440  13.204  26.177   6.705
 7886CHOL   ROH92441  -1.197  15.471  22.751
 7886CHOL    R192442  -1.100  15.421  22.634
 7886CHOL    R292443  -0.872  15.392  22.672
 7886CHOL    R392444  -0.991  15.365  22.502
 7886CHOL    R492445  -0.787  15.349  22.570
 7886CHOL    R592446  -0.894  15.315  22.386
 7886CHOL    C192447  -0.748  15.241  22.210
 7886CHOL    C292448  -0.602  15.166  22.035
 7887CHOL   ROH92449  23.565   7.436  21.033
 7887CHOL    R192450  23.441   7.461  20.935
 7887CHOL    R292451  23.395   7.674  20.852
 7887CHOL    R392452  23.301   7.489  20.826
 7887CHOL    R492453  23.286   7.696  20.766
 7887CHOL    R592454  23.176   7.514  20.728
 7887CHOL    C192455  22.990   7.551  20.582
 7887CHOL    C292456  22.804   7.589  20.435
 7888CHOL   ROH92457  27.567   8.406  10.533
 7888CHOL    R192458  27.407   8.418  10.529
 7888CHOL    R292459  27.303   8.621  10.479
 7888CHOL    R392460  27.228   8.431  10.524
 7888CHOL    R492461  27.164   8.631  10.476
 7888CHOL    R592462  27.068   8.443  10.520
 7888CHOL    C192463  26.829   8.461  10.514
 7888CHOL    C292464  26.590   8.479  10.508
 7889CHOL   ROH92465   7.604  26.269  16.925
 7889CHOL    R192466   7.625  26.123  16.862
 7889CHOL    R292467   7.708  26.097  16.646
 7889CHOL    R392468   7.649  25.959  16.792
 7889CHOL    R492469   7.726  25.969  16.591
 7889CHOL    R592470   7.669  25.814  16.729
 7889CHOL    C192471   7.701  25.595  16.635
 7889CHOL    C292472   7.732  25.376  16.541
 7890CHOL   ROH92473  -1.804  16.694  21.618
 7890CHOL    R192474  -1.703  16.634  21.510
 7890CHOL    R292475  -1.476  16.689  21.513
 7890CHOL    R392476  -1.589  16.565  21.388
 7890CHOL    R492477  -1.388  16.636  21.418
 7890CHOL    R592478  -1.488  16.505  21.279
 7890CHOL    C192479  -1.336  16.414  21.117
 7890CHOL    C292480  -1.185  16.324  20.955
 7891CHOL   ROH92481  13.544  27.457   9.589
 7891CHOL    R192482  13.512  27.300   9.592
 7891CHOL    R292483  13.587  27.166   9.768
 7891CHOL    R392484  13.477  27.124   9.596
 7891CHOL    R492485  13.559  27.029   9.771
 7891CHOL    R592486  13.445  26.967   9.599
 7891CHOL    C192487  13.397  26.732   9.604
 7891CHOL    C292488  13.350  26.497   9.609
 7892CHOL   ROH92489  19.094   8.329  -5.213
 7892CHOL    R192490  19.014   8.346  -5.076
 7892CHOL    R292491  18.798   8.435  -5.073
 7892CHOL    R392492  18.923   8.366  -4.921
 7892CHOL    R492493  18.727   8.450  -4.953
 7892CHOL    R592494  18.842   8.383  -4.784
 7892CHOL    C192495  18.722   8.409  -4.578
 7892CHOL    C292496  18.601   8.435  -4.372
 7893CHOL   ROH92497  20.414  17.604  -2.304
 7893CHOL    R192498  20.321  17.536  -2.193
 7893CHOL    R292499  20.402  17.363  -2.059
 7893CHOL    R392500  20.217  17.459  -2.068
 7893CHOL    R492501  20.321  17.303  -1.961
 7893CHOL    R592502  20.124  17.391  -1.956
 7893CHOL    C192503  19.986  17.289  -1.790
 7893CHOL    C292504  19.847  17.187  -1.623
 7894CHOL   ROH92505   0.922  10.508  25.444
 7894CHOL    R192506   1.001  10.498  25.305
 7894CHOL    R292507   1.141  10.671  25.235
 7894CHOL    R392508   1.091  10.487  25.150
 7894CHOL    R492509   1.211  10.662  25.113
 7894CHOL    R592510   1.170  10.477  25.011
 7894CHOL    C192511   1.289  10.461  24.803
 7894CHOL    C292512   1.408  10.446  24.595
 7895CHOL   ROH92513  26.229   4.006  13.806
 7895CHOL    R192514  26.082   4.059  13.772
 7895CHOL    R292515  26.049   4.264  13.667
 7895CHOL    R392516  25.916   4.118  13.734
 7895CHOL    R492517  25.920   4.310  13.638
 7895CHOL    R592518  25.769   4.171  13.700
 7895CHOL    C192519  25.548   4.249  13.649
 7895CHOL    C292520  25.327   4.328  13.598
 7896CHOL   ROH92521  -5.539   8.789  18.897
 7896CHOL    R192522  -5.401   8.799  18.817
 7896CHOL    R292523  -5.250   8.621  18.816
 7896CHOL    R392524  -5.245   8.810  18.727
 7896CHOL    R492525  -5.129   8.630  18.746
 7896CHOL    R592526  -5.107   8.820  18.647
 7896CHOL    C192527  -4.900   8.835  18.527
 7896CHOL    C292528  -4.692   8.850  18.407
 7897CHOL   ROH92529   8.688  -4.724  20.003
 7897CHOL    R192530   8.699  -4.592  19.913
 7897CHOL    R292531   8.796  -4.598  19.702
 7897CHOL    R392532   8.711  -4.444  19.812
 7897CHOL    R492533   8.806  -4.483  19.623
 7897CHOL    R592534   8.721  -4.312  19.723
 7897CHOL    C192535   8.738  -4.114  19.588
 7897CHOL    C292536   8.754  -3.916  19.453
 7898CHOL   ROH92537   2.755   4.267  -5.467
 7898CHOL    R192538   2.819   4.319  -5.330
 7898CHOL    R292539   3.016   4.226  -5.247
 7898CHOL    R392540   2.891   4.376  -5.175
 7898CHOL    R492541   3.072   4.271  -5.127
 7898CHOL    R592542   2.955   4.428  -5.038
 7898CHOL    C192543   3.051   4.505  -4.832
 7898CHOL    C292544   3.147   4.583  -4.626
 7899CHOL   ROH92545  10.574  10.950  27.774
 7899CHOL    R192546  10.569  10.941  27.614
 7899CHOL    R292547  10.736  11.038  27.483
 7899CHOL    R392548  10.563  10.930  27.435
 7899CHOL    R492549  10.731  11.030  27.344
 7899CHOL    R592550  10.559  10.921  27.275
 7899CHOL    C192551  10.551  10.907  27.035
 7899CHOL    C292552  10.544  10.893  26.796
 7900CHOL   ROH92553   2.055   0.666  23.039
 7900CHOL    R192554   2.131   0.747  22.923
 7900CHOL    R292555   2.268   0.928  22.974
 7900CHOL    R392556   2.216   0.838  22.794
 7900CHOL    R492557   2.334   0.999  22.873
 7900CHOL    R592558   2.292   0.918  22.678
 7900CHOL    C192559   2.405   1.040  22.505
 7900CHOL    C292560   2.519   1.161  22.331
 7901CHOL   ROH92561  25.363  12.308   1.413
 7901CHOL    R192562  25.225  12.288   1.491
 7901CHOL    R292563  25.056  12.448   1.480
 7901CHOL    R392564  25.069  12.264   1.578
 7901CHOL    R492565  24.935  12.430   1.548
 7901CHOL    R592566  24.931  12.244   1.656
 7901CHOL    C192567  24.724  12.213   1.773
 7901CHOL    C292568  24.516  12.183   1.889
 7902CHOL   ROH92569  25.110   1.067   7.575
 7902CHOL    R192570  24.973   1.147   7.596
 7902CHOL    R292571  24.857   1.236   7.414
 7902CHOL    R392572  24.819   1.236   7.619
 7902CHOL    R492573  24.737   1.306   7.432
 7902CHOL    R592574  24.682   1.316   7.640
 7902CHOL    C192575  24.476   1.436   7.671
 7902CHOL    C292576  24.270   1.555   7.702
 7903CHOL   ROH92577  -0.180  14.184  -4.178
 7903CHOL    R192578  -0.090  14.149  -4.050
 7903CHOL    R292579  -0.184  14.130  -3.838
 7903CHOL    R392580   0.012  14.110  -3.907
 7903CHOL    R492581  -0.105  14.100  -3.726
 7903CHOL    R592582   0.102  14.075  -3.779
 7903CHOL    C192583   0.237  14.023  -3.588
 7903CHOL    C292584   0.373  13.970  -3.397
 7904CHOL   ROH92585  13.162  22.977  21.674
 7904CHOL    R192586  13.134  22.859  21.570
 7904CHOL    R292587  13.274  22.673  21.559
 7904CHOL    R392588  13.102  22.725  21.453
 7904CHOL    R492589  13.249  22.569  21.468
 7904CHOL    R592590  13.073  22.607  21.349
 7904CHOL    C192591  13.031  22.429  21.194
 7904CHOL    C292592  12.989  22.252  21.038
 7905CHOL   ROH92593  22.420  18.300   0.325
 7905CHOL    R192594  22.308  18.223   0.409
 7905CHOL    R292595  22.140  18.102   0.301
 7905CHOL    R392596  22.181  18.135   0.502
 7905CHOL    R492597  22.042  18.034   0.374
 7905CHOL    R592598  22.069  18.058   0.586
 7905CHOL    C192599  21.901  17.942   0.711
 7905CHOL    C292600  21.732  17.826   0.837
 7906CHOL   ROH92601   0.944   2.704  -3.667
 7906CHOL    R192602   1.026   2.772  -3.548
 7906CHOL    R292603   0.947   2.767  -3.329
 7906CHOL    R392604   1.119   2.849  -3.414
 7906CHOL    R492605   1.019   2.826  -3.225
 7906CHOL    R592606   1.201   2.917  -3.295
 7906CHOL    C192607   1.324   3.019  -3.116
 7906CHOL    C292608   1.448   3.121  -2.938
 7907CHOL   ROH92609  11.245  -7.486   6.205
 7907CHOL    R192610  11.235  -7.330   6.237
 7907CHOL    R292611  11.312  -7.243   6.440
 7907CHOL    R392612  11.224  -7.153   6.273
 7907CHOL    R492613  11.303  -7.106   6.467
 7907CHOL    R592614  11.214  -6.997   6.304
 7907CHOL    C192615  11.200  -6.762   6.352
 7907CHOL    C292616  11.185  -6.528   6.400
 7908CHOL   ROH92617   0.539   5.712  24.512
 7908CHOL    R192618   0.626   5.755  24.385
 7908CHOL    R292619   0.801   5.621  24.309
 7908CHOL    R392620   0.724   5.803  24.241
 7908CHOL    R492621   0.877   5.659  24.197
 7908CHOL    R592622   0.810   5.846  24.114
 7908CHOL    C192623   0.941   5.910  23.923
 7908CHOL    C292624   1.071   5.975  23.732
 7909CHOL   ROH92625  25.462   8.189  18.368
 7909CHOL    R192626  25.324   8.208  18.290
 7909CHOL    R292627  25.317   8.311  18.081
 7909CHOL    R392628  25.168   8.229  18.201
 7909CHOL    R492629  25.196   8.328  18.012
 7909CHOL    R592630  25.030   8.248  18.123
 7909CHOL    C192631  24.823   8.276  18.005
 7909CHOL    C292632  24.615   8.304  17.888
 7910CHOL   ROH92633  11.608  13.508  -7.477
 7910CHOL    R192634  11.592  13.474  -7.321
 7910CHOL    R292635  11.682  13.278  -7.231
 7910CHOL    R392636  11.574  13.436  -7.147
 7910CHOL    R492637  11.668  13.249  -7.095
 7910CHOL    R592638  11.558  13.402  -6.991
 7910CHOL    C192639  11.535  13.351  -6.758
 7910CHOL    C292640  11.511  13.300  -6.524
 7911CHOL   ROH92641   9.378  25.227   0.642
 7911CHOL    R192642   9.384  25.093   0.730
 7911CHOL    R292643   9.542  24.928   0.685
 7911CHOL    R392644   9.392  24.943   0.829
 7911CHOL    R492645   9.548  24.811   0.762
 7911CHOL    R592646   9.398  24.810   0.917
 7911CHOL    C192647   9.408  24.609   1.048
 7911CHOL    C292648   9.417  24.409   1.180
 7912CHOL   ROH92649  18.973  19.697  21.849
 7912CHOL    R192650  18.889  19.614  21.741
 7912CHOL    R292651  18.978  19.566  21.531
 7912CHOL    R392652  18.794  19.521  21.620
 7912CHOL    R492653  18.904  19.493  21.437
 7912CHOL    R592654  18.710  19.438  21.512
 7912CHOL    C192655  18.584  19.314  21.350
 7912CHOL    C292656  18.458  19.189  21.188
 7913CHOL   ROH92657  -7.957   9.124   8.519
 7913CHOL    R192658  -7.798   9.130   8.535
 7913CHOL    R292659  -7.693   9.315   8.629
 7913CHOL    R392660  -7.619   9.136   8.552
 7913CHOL    R492661  -7.554   9.320   8.643
 7913CHOL    R592662  -7.459   9.141   8.567
 7913CHOL    C192663  -7.221   9.150   8.591
 7913CHOL    C292664  -6.982   9.158   8.614
 7914CHOL   ROH92665   8.667  16.995  26.334
 7914CHOL    R192666   8.674  16.937  26.185
 7914CHOL    R292667   8.799  17.044  26.020
 7914CHOL    R392668   8.683  16.871  26.018
 7914CHOL    R492669   8.806  16.993  25.890
 7914CHOL    R592670   8.690  16.813  25.869
 7914CHOL    C192671   8.701  16.726  25.646
 7914CHOL    C292672   8.712  16.638  25.423
 7915CHOL   ROH92673  26.262   9.445  17.054
 7915CHOL    R192674  26.116   9.450  16.988
 7915CHOL    R292675  26.077   9.360  16.776
 7915CHOL    R392676  25.953   9.456  16.914
 7915CHOL    R492677  25.950   9.365  16.719
 7915CHOL    R592678  25.807   9.461  16.848
 7915CHOL    C192679  25.589   9.469  16.748
 7915CHOL    C292680  25.370   9.477  16.649
 7916CHOL   ROH92681  23.679  -0.556  13.937
 7916CHOL    R192682  23.556  -0.460  13.900
 7916CHOL    R292683  23.521  -0.390  13.680
 7916CHOL    R392684  23.419  -0.352  13.858
 7916CHOL    R492685  23.414  -0.306  13.647
 7916CHOL    R592686  23.296  -0.257  13.820
 7916CHOL    C192687  23.112  -0.113  13.765
 7916CHOL    C292688  22.928   0.031  13.709
 7917CHOL   ROH92689  15.208  -3.508  20.309
 7917CHOL    R192690  15.163  -3.389  20.212
 7917CHOL    R292691  15.110  -3.430  19.989
 7917CHOL    R392692  15.112  -3.255  20.103
 7917CHOL    R492693  15.071  -3.326  19.904
 7917CHOL    R592694  15.067  -3.136  20.006
 7917CHOL    C192695  14.999  -2.957  19.861
 7917CHOL    C292696  14.932  -2.779  19.715
 7918CHOL   ROH92697  10.476  12.827  27.557
 7918CHOL    R192698  10.471  12.801  27.399
 7918CHOL    R292699  10.579  12.617  27.305
 7918CHOL    R392700  10.465  12.771  27.222
 7918CHOL    R492701  10.575  12.594  27.167
 7918CHOL    R592702  10.460  12.745  27.064
 7918CHOL    C192703  10.452  12.705  26.827
 7918CHOL    C292704  10.445  12.665  26.591
 7919CHOL   ROH92705   6.018  -6.033   3.078
 7919CHOL    R192706   6.052  -5.889   3.139
 7919CHOL    R292707   6.263  -5.844   3.229
 7919CHOL    R392708   6.091  -5.728   3.209
 7919CHOL    R492709   6.293  -5.718   3.282
 7919CHOL    R592710   6.125  -5.584   3.270
 7919CHOL    C192711   6.176  -5.368   3.362
 7919CHOL    C292712   6.228  -5.153   3.454
 7920CHOL   ROH92713  21.736  -3.354  10.435
 7920CHOL    R192714  21.629  -3.235  10.429
 7920CHOL    R292715  21.670  -3.032  10.536
 7920CHOL    R392716  21.509  -3.101  10.423
 7920CHOL    R492717  21.576  -2.928  10.531
 7920CHOL    R592718  21.402  -2.982  10.417
 7920CHOL    C192719  21.242  -2.804  10.408
 7920CHOL    C292720  21.081  -2.626  10.400
 7921CHOL   ROH92721  25.305   2.276   5.330
 7921CHOL    R192722  25.166   2.346   5.367
 7921CHOL    R292723  25.040   2.456   5.205
 7921CHOL    R392724  25.010   2.425   5.409
 7921CHOL    R492725  24.918   2.518   5.237
 7921CHOL    R592726  24.871   2.495   5.446
 7921CHOL    C192727  24.663   2.601   5.502
 7921CHOL    C292728  24.454   2.706   5.557
 7922CHOL   ROH92729  -5.816   6.988   1.945
 7922CHOL    R192730  -5.675   7.012   2.016
 7922CHOL    R292731  -5.574   6.844   2.142
 7922CHOL    R392732  -5.516   7.040   2.096
 7922CHOL    R492733  -5.450   6.866   2.204
 7922CHOL    R592734  -5.374   7.064   2.167
 7922CHOL    C192735  -5.163   7.100   2.274
 7922CHOL    C292736  -4.951   7.137   2.380
 7923CHOL   ROH92737  -6.615   3.283   9.005
 7923CHOL    R192738  -6.467   3.343   9.016
 7923CHOL    R292739  -6.289   3.210   9.089
 7923CHOL    R392740  -6.300   3.409   9.029
 7923CHOL    R492741  -6.160   3.262   9.099
 7923CHOL    R592742  -6.152   3.469   9.040
 7923CHOL    C192743  -5.930   3.558   9.057
 7923CHOL    C292744  -5.708   3.648   9.074
 7924CHOL   ROH92745   8.876  21.509  23.527
 7924CHOL    R192746   8.888  21.403  23.407
 7924CHOL    R292747   9.033  21.440  23.229
 7924CHOL    R392748   8.902  21.285  23.273
 7924CHOL    R492749   9.044  21.348  23.124
 7924CHOL    R592750   8.914  21.179  23.154
 7924CHOL    C192751   8.932  21.021  22.974
 7924CHOL    C292752   8.950  20.862  22.795
 7925CHOL   ROH92753   6.059  13.167  26.987
 7925CHOL    R192754   6.094  13.143  26.833
 7925CHOL    R292755   6.291  13.035  26.770
 7925CHOL    R392756   6.134  13.116  26.659
 7925CHOL    R492757   6.322  13.014  26.635
 7925CHOL    R592758   6.170  13.092  26.505
 7925CHOL    C192759   6.223  13.057  26.274
 7925CHOL    C292760   6.276  13.021  26.042
 7926CHOL   ROH92761  -1.578   7.594  23.425
 7926CHOL    R192762  -1.476   7.618  23.304
 7926CHOL    R292763  -1.247   7.642  23.342
 7926CHOL    R392764  -1.362   7.646  23.168
 7926CHOL    R492765  -1.158   7.663  23.236
 7926CHOL    R592766  -1.260   7.671  23.046
 7926CHOL    C192767  -1.107   7.707  22.865
 7926CHOL    C292768  -0.955   7.744  22.683
 7927CHOL   ROH92769  11.028   5.149  -7.177
 7927CHOL    R192770  11.021   5.194  -7.024
 7927CHOL    R292771  11.149   5.372  -6.945
 7927CHOL    R392772  11.012   5.245  -6.851
 7927CHOL    R492773  11.142   5.412  -6.811
 7927CHOL    R592774  11.005   5.290  -6.698
 7927CHOL    C192775  10.994   5.358  -6.468
 7927CHOL    C292776  10.983   5.425  -6.238
 7928CHOL   ROH92777  -1.718  -0.014   0.665
 7928CHOL    R192778  -1.617   0.075   0.752
 7928CHOL    R292779  -1.459  -0.025   0.892
 7928CHOL    R392780  -1.503   0.174   0.849
 7928CHOL    R492781  -1.371   0.052   0.968
 7928CHOL    R592782  -1.402   0.263   0.936
 7928CHOL    C192783  -1.250   0.396   1.066
 7928CHOL    C292784  -1.099   0.529   1.196
 7929CHOL   ROH92785   0.913  24.978   6.640
 7929CHOL    R192786   0.996  24.844   6.668
 7929CHOL    R292787   1.217  24.853   6.741
 7929CHOL    R392788   1.088  24.693   6.700
 7929CHOL    R492789   1.289  24.735   6.765
 7929CHOL    R592790   1.171  24.559   6.729
 7929CHOL    C192791   1.295  24.358   6.771
 7929CHOL    C292792   1.419  24.157   6.813
 7930CHOL   ROH92793   2.940  18.914  -3.949
 7930CHOL    R192794   3.002  18.838  -3.822
 7930CHOL    R292795   3.233  18.819  -3.796
 7930CHOL    R392796   3.072  18.753  -3.680
 7930CHOL    R492797   3.288  18.753  -3.685
 7930CHOL    R592798   3.134  18.677  -3.554
 7930CHOL    C192799   3.228  18.564  -3.364
 7930CHOL    C292800   3.321  18.450  -3.174
 7931CHOL   ROH92801  14.737   0.589  24.330
 7931CHOL    R192802  14.694   0.677  24.203
 7931CHOL    R292803  14.825   0.680  24.010
 7931CHOL    R392804  14.647   0.776  24.061
 7931CHOL    R492805  14.787   0.757  23.899
 7931CHOL    R592806  14.604   0.864  23.934
 7931CHOL    C192807  14.540   0.996  23.745
 7931CHOL    C292808  14.476   1.128  23.555
 7932CHOL   ROH92809  20.507  22.940  15.767
 7932CHOL    R192810  20.410  22.825  15.712
 7932CHOL    R292811  20.411  22.612  15.805
 7932CHOL    R392812  20.301  22.697  15.650
 7932CHOL    R492813  20.326  22.511  15.757
 7932CHOL    R592814  20.203  22.582  15.595
 7932CHOL    C192815  20.058  22.410  15.512
 7932CHOL    C292816  19.912  22.238  15.429
 7933CHOL   ROH92817  -1.689  23.588  10.509
 7933CHOL    R192818  -1.586  23.465  10.509
 7933CHOL    R292819  -1.429  23.440  10.680
 7933CHOL    R392820  -1.470  23.328  10.509
 7933CHOL    R492821  -1.339  23.333  10.679
 7933CHOL    R592822  -1.367  23.205  10.508
 7933CHOL    C192823  -1.213  23.021  10.508
 7933CHOL    C292824  -1.059  22.837  10.508
 7934CHOL   ROH92825  15.294  -6.808  12.659
 7934CHOL    R192826  15.244  -6.658  12.633
 7934CHOL    R292827  15.365  -6.476  12.716
 7934CHOL    R392828  15.189  -6.489  12.604
 7934CHOL    R492829  15.321  -6.345  12.693
 7934CHOL    R592830  15.139  -6.340  12.578
 7934CHOL    C192831  15.065  -6.115  12.540
 7934CHOL    C292832  14.990  -5.890  12.501
 7935CHOL   ROH92833  25.644   9.725  18.289
 7935CHOL    R192834  25.504   9.729  18.211
 7935CHOL    R292835  25.488   9.659  17.990
 7935CHOL    R392836  25.347   9.734  18.124
 7935CHOL    R492837  25.366   9.663  17.921
 7935CHOL    R592838  25.207   9.738  18.046
 7935CHOL    C192839  24.997   9.744  17.929
 7935CHOL    C292840  24.787   9.750  17.813
 7936CHOL   ROH92841  -4.221  20.390   6.171
 7936CHOL    R192842  -4.095  20.298   6.207
 7936CHOL    R292843  -4.108  20.137   6.376
 7936CHOL    R392844  -3.954  20.194   6.247
 7936CHOL    R492845  -3.998  20.056   6.407
 7936CHOL    R592846  -3.828  20.101   6.283
 7936CHOL    C192847  -3.639  19.963   6.337
 7936CHOL    C292848  -3.451  19.825   6.391
 7937CHOL   ROH92849  -1.170   5.466  -3.374
 7937CHOL    R192850  -1.073   5.509  -3.254
 7937CHOL    R292851  -1.126   5.458  -3.033
 7937CHOL    R392852  -0.964   5.557  -3.120
 7937CHOL    R492853  -1.041   5.496  -2.928
 7937CHOL    R592854  -0.867   5.600  -3.000
 7937CHOL    C192855  -0.721   5.664  -2.820
 7937CHOL    C292856  -0.575   5.728  -2.641
 7938CHOL   ROH92857  19.090  21.315  -0.238
 7938CHOL    R192858  19.005  21.210  -0.152
 7938CHOL    R292859  18.907  21.024  -0.252
 7938CHOL    R392860  18.910  21.092  -0.055
 7938CHOL    R492861  18.833  20.932  -0.177
 7938CHOL    R592862  18.825  20.988   0.032
 7938CHOL    C192863  18.698  20.830   0.161
 7938CHOL    C292864  18.571  20.673   0.290
 7939CHOL   ROH92865  -0.321   7.148  24.319
 7939CHOL    R192866  -0.228   7.179  24.193
 7939CHOL    R292867  -0.010   7.259  24.221
 7939CHOL    R392868  -0.122   7.213  24.051
 7939CHOL    R492869   0.071   7.285  24.110
 7939CHOL    R592870  -0.029   7.244  23.925
 7939CHOL    C192871   0.111   7.289  23.735
 7939CHOL    C292872   0.251   7.335  23.546
 7940CHOL   ROH92873   3.085  19.925  -3.352
 7940CHOL    R192874   3.145  19.837  -3.233
 7940CHOL    R292875   3.360  19.747  -3.247
 7940CHOL    R392876   3.213  19.739  -3.098
 7940CHOL    R492877   3.413  19.670  -3.142
 7940CHOL    R592878   3.274  19.651  -2.979
 7940CHOL    C192879   3.364  19.519  -2.800
 7940CHOL    C292880   3.454  19.388  -2.621
 7941CHOL   ROH92881  15.780  23.620  19.801
 7941CHOL    R192882  15.728  23.497  19.713
 7941CHOL    R292883  15.796  23.279  19.759
 7941CHOL    R392884  15.670  23.359  19.613
 7941CHOL    R492885  15.751  23.171  19.682
 7941CHOL    R592886  15.619  23.236  19.524
 7941CHOL    C192887  15.541  23.052  19.392
 7941CHOL    C292888  15.463  22.867  19.259
 7942CHOL   ROH92889  -2.917  -1.498  14.860
 7942CHOL    R192890  -2.802  -1.396  14.816
 7942CHOL    R292891  -2.601  -1.384  14.934
 7942CHOL    R392892  -2.672  -1.281  14.767
 7942CHOL    R492893  -2.500  -1.295  14.896
 7942CHOL    R592894  -2.557  -1.180  14.723
 7942CHOL    C192895  -2.384  -1.027  14.657
 7942CHOL    C292896  -2.211  -0.874  14.591
 7943CHOL   ROH92897   4.709  14.703  26.369
 7943CHOL    R192898   4.753  14.670  26.219
 7943CHOL    R292899   4.892  14.815  26.100
 7943CHOL    R392900   4.803  14.633  26.050
 7943CHOL    R492901   4.930  14.786  25.968
 7943CHOL    R592902   4.848  14.600  25.900
 7943CHOL    C192903   4.914  14.550  25.675
 7943CHOL    C292904   4.980  14.500  25.450
 7944CHOL   ROH92905  25.228  16.915  15.875
 7944CHOL    R192906  25.089  16.855  15.823
 7944CHOL    R292907  24.964  16.966  15.661
 7944CHOL    R392908  24.933  16.787  15.764
 7944CHOL    R492909  24.842  16.913  15.615
 7944CHOL    R592910  24.795  16.727  15.712
 7944CHOL    C192911  24.586  16.637  15.633
 7944CHOL    C292912  24.378  16.547  15.555
 7945CHOL   ROH92913  25.504  18.568  10.189
 7945CHOL    R192914  25.363  18.492  10.190
 7945CHOL    R292915  25.222  18.499  10.004
 7945CHOL    R392916  25.205  18.406  10.190
 7945CHOL    R492917  25.099  18.432  10.005
 7945CHOL    R592918  25.064  18.330  10.191
 7945CHOL    C192919  24.853  18.216  10.192
 7945CHOL    C292920  24.642  18.102  10.193
 7946CHOL   ROH92921  24.636  19.122  14.016
 7946CHOL    R192922  24.504  19.039  13.980
 7946CHOL    R292923  24.392  19.075  13.778
 7946CHOL    R392924  24.355  18.947  13.938
 7946CHOL    R492925  24.276  19.003  13.746
 7946CHOL    R592926  24.223  18.864  13.902
 7946CHOL    C192927  24.025  18.740  13.847
 7946CHOL    C292928  23.827  18.616  13.793
 7947CHOL   ROH92929  25.406   7.429  18.255
 7947CHOL    R192930  25.268   7.453  18.178
 7947CHOL    R292931  25.221   7.659  18.079
 7947CHOL    R392932  25.113   7.481  18.091
 7947CHOL    R492933  25.100   7.681  18.011
 7947CHOL    R592934  24.975   7.505  18.013
 7947CHOL    C192935  24.768   7.542  17.898
 7947CHOL    C292936  24.561   7.579  17.782
 7948CHOL   ROH92937  -5.517  14.167  18.031
 7948CHOL    R192938  -5.379  14.130  17.959
 7948CHOL    R292939  -5.179  14.229  18.026
 7948CHOL    R392940  -5.224  14.089  17.878
 7948CHOL    R492941  -5.058  14.197  17.963
 7948CHOL    R592942  -5.086  14.052  17.806
 7948CHOL    C192943  -4.878  13.998  17.698
 7948CHOL    C292944  -4.671  13.943  17.590
 7949CHOL   ROH92945  24.475   1.808   3.649
 7949CHOL    R192946  24.344   1.882   3.705
 7949CHOL    R292947  24.357   2.096   3.796
 7949CHOL    R392948  24.198   1.964   3.768
 7949CHOL    R492949  24.243   2.160   3.845
 7949CHOL    R592950  24.067   2.038   3.824
 7949CHOL    C192951  23.871   2.148   3.909
 7949CHOL    C292952  23.675   2.259   3.993
 7950CHOL   ROH92953  -0.272  22.055   1.620
 7950CHOL    R192954  -0.183  21.943   1.692
 7950CHOL    R292955   0.050  21.956   1.690
 7950CHOL    R392956  -0.083  21.817   1.772
 7950CHOL    R492957   0.128  21.858   1.752
 7950CHOL    R592958   0.006  21.705   1.843
 7950CHOL    C192959   0.140  21.537   1.951
 7950CHOL    C292960   0.274  21.369   2.058
 7951CHOL   ROH92961  10.136   8.479  27.741
 7951CHOL    R192962  10.137   8.493  27.582
 7951CHOL    R292963  10.207   8.317  27.446
 7951CHOL    R392964  10.137   8.509  27.402
 7951CHOL    R492965  10.207   8.329  27.306
 7951CHOL    R592966  10.138   8.523  27.243
 7951CHOL    C192967  10.139   8.544  27.004
 7951CHOL    C292968  10.140   8.565  26.765
 7952CHOL   ROH92969  16.328  23.502  19.621
 7952CHOL    R192970  16.270  23.380  19.536
 7952CHOL    R292971  16.309  23.159  19.600
 7952CHOL    R392972  16.204  23.242  19.440
 7952CHOL    R492973  16.259  23.052  19.525
 7952CHOL    R592974  16.146  23.120  19.354
 7952CHOL    C192975  16.059  22.937  19.227
 7952CHOL    C292976  15.971  22.753  19.099
 7953CHOL   ROH92977  -5.023   6.689   0.633
 7953CHOL    R192978  -4.889   6.716   0.716
 7953CHOL    R292979  -4.772   6.541   0.816
 7953CHOL    R392980  -4.738   6.746   0.810
 7953CHOL    R492981  -4.655   6.564   0.889
 7953CHOL    R592982  -4.604   6.774   0.893
 7953CHOL    C192983  -4.404   6.814   1.019
 7953CHOL    C292984  -4.203   6.855   1.144
 7954CHOL   ROH92985  23.246  -0.350  15.647
 7954CHOL    R192986  23.127  -0.255  15.599
 7954CHOL    R292987  22.995  -0.310  15.415
 7954CHOL    R392988  22.992  -0.147  15.546
 7954CHOL    R492989  22.891  -0.227  15.373
 7954CHOL    R592990  22.873  -0.052  15.498
 7954CHOL    C192991  22.694   0.091  15.427
 7954CHOL    C292992  22.515   0.234  15.356
 7955CHOL   ROH92993  22.690  -1.182   4.466
 7955CHOL    R192994  22.574  -1.082   4.514
 7955CHOL    R292995  22.561  -0.865   4.429
 7955CHOL    R392996  22.445  -0.970   4.568
 7955CHOL    R492997  22.460  -0.778   4.471
 7955CHOL    R592998  22.329  -0.871   4.615
 7955CHOL    C192999  22.156  -0.721   4.687
 7955CHOL    C293000  21.982  -0.571   4.759
 7956CHOL   ROH93001  12.695  10.804  -7.721
 7956CHOL    R193002  12.669  10.794  -7.563
 7956CHOL    R293003  12.482  10.895  -7.467
 7956CHOL    R393004  12.639  10.783  -7.386
 7956CHOL    R493005  12.459  10.886  -7.329
 7956CHOL    R593006  12.613  10.773  -7.228
 7956CHOL    C193007  12.574  10.759  -6.992
 7956CHOL    C293008  12.534  10.744  -6.756
 7957CHOL   ROH93009  27.597   9.602  11.163
 7957CHOL    R193010  27.437   9.605  11.154
 7957CHOL    R293011  27.329   9.711  10.976
 7957CHOL    R393012  27.258   9.608  11.143
 7957CHOL    R493013  27.190   9.713  10.968
 7957CHOL    R593014  27.098   9.611  11.133
 7957CHOL    C193015  26.858   9.615  11.119
 7957CHOL    C293016  26.619   9.619  11.105
 7958CHOL   ROH93017  17.575   8.336  25.960
 7958CHOL    R193018  17.511   8.355  25.815
 7958CHOL    R293019  17.508   8.179  25.661
 7958CHOL    R393020  17.439   8.376  25.651
 7958CHOL    R493021  17.452   8.196  25.534
 7958CHOL    R593022  17.375   8.395  25.506
 7958CHOL    C193023  17.278   8.423  25.287
 7958CHOL    C293024  17.182   8.452  25.069
 7959CHOL   ROH93025  17.716  25.045   4.418
 7959CHOL    R193026  17.651  24.907   4.465
 7959CHOL    R293027  17.759  24.704   4.428
 7959CHOL    R393028  17.577  24.751   4.517
 7959CHOL    R493029  17.702  24.582   4.469
 7959CHOL    R593030  17.511  24.612   4.564
 7959CHOL    C193031  17.413  24.405   4.634
 7959CHOL    C293032  17.315  24.197   4.704
 7960CHOL   ROH93033  27.216   8.736   6.144
 7960CHOL    R193034  27.060   8.747   6.176
 7960CHOL    R293035  26.905   8.792   6.007
 7960CHOL    R393036  26.884   8.759   6.212
 7960CHOL    R493037  26.768   8.802   6.035
 7960CHOL    R593038  26.727   8.770   6.244
 7960CHOL    C193039  26.493   8.786   6.293
 7960CHOL    C293040  26.259   8.803   6.341
 7961CHOL   ROH93041  -1.794  10.475  23.459
 7961CHOL    R193042  -1.690  10.469  23.338
 7961CHOL    R293043  -1.532  10.297  23.324
 7961CHOL    R393044  -1.572  10.462  23.202
 7961CHOL    R493045  -1.440  10.292  23.218
 7961CHOL    R593046  -1.468  10.455  23.081
 7961CHOL    C193047  -1.311  10.446  22.899
 7961CHOL    C293048  -1.154  10.437  22.717
 7962CHOL   ROH93049   1.884  -2.996  19.265
 7962CHOL    R193050   1.956  -2.880  19.182
 7962CHOL    R293051   2.170  -2.909  19.095
 7962CHOL    R393052   2.036  -2.748  19.089
 7962CHOL    R493053   2.233  -2.807  19.023
 7962CHOL    R593054   2.108  -2.632  19.006
 7962CHOL    C193055   2.216  -2.457  18.882
 7962CHOL    C293056   2.323  -2.283  18.757
 7963CHOL   ROH93057   3.381  22.264  21.147
 7963CHOL    R193058   3.436  22.153  21.045
 7963CHOL    R293059   3.497  21.941  21.120
 7963CHOL    R393060   3.499  22.029  20.931
 7963CHOL    R493061   3.545  21.844  21.031
 7963CHOL    R593062   3.554  21.918  20.829
 7963CHOL    C193063   3.637  21.753  20.677
 7963CHOL    C293064   3.720  21.587  20.525
 7964CHOL   ROH93065  -5.410   4.440  17.507
 7964CHOL    R193066  -5.274   4.494  17.443
 7964CHOL    R293067  -5.078   4.368  17.454
 7964CHOL    R393068  -5.120   4.555  17.371
 7964CHOL    R493069  -4.958   4.416  17.398
 7964CHOL    R593070  -4.984   4.610  17.307
 7964CHOL    C193071  -4.780   4.691  17.212
 7964CHOL    C293072  -4.575   4.772  17.116
 7965CHOL   ROH93073   4.523  14.632  -6.483
 7965CHOL    R193074   4.572  14.589  -6.337
 7965CHOL    R293075   4.452  14.652  -6.147
 7965CHOL    R393076   4.627  14.541  -6.172
 7965CHOL    R493077   4.494  14.615  -6.019
 7965CHOL    R593078   4.675  14.499  -6.026
 7965CHOL    C193079   4.749  14.434  -5.807
 7965CHOL    C293080   4.822  14.370  -5.587
 7966CHOL   ROH93081  16.035   7.578  -6.591
 7966CHOL    R193082  15.975   7.601  -6.444
 7966CHOL    R293083  15.745   7.598  -6.406
 7966CHOL    R393084  15.909   7.627  -6.279
 7966CHOL    R493085  15.693   7.618  -6.278
 7966CHOL    R593086  15.849   7.650  -6.133
 7966CHOL    C193087  15.760   7.685  -5.912
 7966CHOL    C293088  15.670   7.719  -5.692
 7967CHOL   ROH93089  18.192  18.343  23.321
 7967CHOL    R193090  18.112  18.272  23.202
 7967CHOL    R293091  18.101  18.369  22.990
 7967CHOL    R393092  18.022  18.192  23.068
 7967CHOL    R493093  18.031  18.306  22.886
 7967CHOL    R593094  17.942  18.121  22.950
 7967CHOL    C193095  17.822  18.014  22.771
 7967CHOL    C293096  17.702  17.907  22.593
 7968CHOL   ROH93097  20.625  -4.140  11.708
 7968CHOL    R193098  20.530  -4.012  11.692
 7968CHOL    R293099  20.589  -3.806  11.783
 7968CHOL    R393100  20.422  -3.869  11.674
 7968CHOL    R493101  20.506  -3.694  11.769
 7968CHOL    R593102  20.327  -3.742  11.659
 7968CHOL    C193103  20.184  -3.550  11.635
 7968CHOL    C293104  20.041  -3.359  11.611
 7969CHOL   ROH93105  21.693  23.370  10.634
 7969CHOL    R193106  21.589  23.249  10.627
 7969CHOL    R293107  21.630  23.063  10.492
 7969CHOL    R393108  21.471  23.113  10.618
 7969CHOL    R493109  21.539  22.957  10.485
 7969CHOL    R593110  21.367  22.992  10.611
 7969CHOL    C193111  21.211  22.810  10.600
 7969CHOL    C293112  21.054  22.628  10.589
 7970CHOL   ROH93113   4.823  27.158   9.761
 7970CHOL    R193114   4.868  27.005   9.763
 7970CHOL    R293115   4.987  26.916   9.943
 7970CHOL    R393116   4.920  26.832   9.764
 7970CHOL    R493117   5.026  26.782   9.945
 7970CHOL    R593118   4.965  26.679   9.766
 7970CHOL    C193119   5.033  26.448   9.768
 7970CHOL    C293120   5.101  26.218   9.771
 7971CHOL   ROH93121  -5.487   8.598   0.927
 7971CHOL    R193122  -5.349   8.611   1.007
 7971CHOL    R293123  -5.245   8.423   1.098
 7971CHOL    R393124  -5.194   8.625   1.097
 7971CHOL    R493125  -5.125   8.434   1.168
 7971CHOL    R593126  -5.056   8.638   1.177
 7971CHOL    C193127  -4.849   8.657   1.297
 7971CHOL    C293128  -4.642   8.676   1.417
 7972CHOL   ROH93129  25.808  10.664   1.953
 7972CHOL    R193130  25.666  10.658   2.026
 7972CHOL    R293131  25.539  10.851   2.058
 7972CHOL    R393132  25.505  10.651   2.108
 7972CHOL    R493133  25.414  10.845   2.122
 7972CHOL    R593134  25.363  10.644   2.180
 7972CHOL    C193135  25.149  10.635   2.290
 7972CHOL    C293136  24.936  10.626   2.399
 7973CHOL   ROH93137  -7.043  14.684   6.803
 7973CHOL    R193138  -6.892  14.643   6.835
 7973CHOL    R293139  -6.789  14.708   7.034
 7973CHOL    R393140  -6.721  14.597   6.871
 7973CHOL    R493141  -6.657  14.672   7.063
 7973CHOL    R593142  -6.570  14.556   6.904
 7973CHOL    C193143  -6.343  14.495   6.952
 7973CHOL    C293144  -6.116  14.433   7.000
 7974CHOL   ROH93145   3.295   6.561  -6.348
 7974CHOL    R193146   3.354   6.590  -6.202
 7974CHOL    R293147   3.540   6.476  -6.122
 7974CHOL    R393148   3.419   6.624  -6.038
 7974CHOL    R493149   3.592   6.502  -5.995
 7974CHOL    R593150   3.478   6.653  -5.892
 7974CHOL    C193151   3.566   6.697  -5.673
 7974CHOL    C293152   3.654   6.741  -5.454
 7975CHOL   ROH93153   3.858  -4.736   1.721
 7975CHOL    R193154   3.909  -4.603   1.794
 7975CHOL    R293155   4.050  -4.453   1.685
 7975CHOL    R393156   3.967  -4.454   1.876
 7975CHOL    R493157   4.095  -4.337   1.749
 7975CHOL    R593158   4.018  -4.322   1.950
 7975CHOL    C193159   4.096  -4.123   2.059
 7975CHOL    C293160   4.173  -3.924   2.169
 7976CHOL   ROH93161  -7.269  14.730   8.171
 7976CHOL    R193162  -7.116  14.689   8.191
 7976CHOL    R293163  -7.057  14.479   8.273
 7976CHOL    R393164  -6.943  14.643   8.214
 7976CHOL    R493165  -6.923  14.443   8.291
 7976CHOL    R593166  -6.790  14.603   8.234
 7976CHOL    C193167  -6.559  14.541   8.265
 7976CHOL    C293168  -6.329  14.480   8.295
 7977CHOL   ROH93169  15.901  26.082   5.281
 7977CHOL    R193170  15.849  25.937   5.325
 7977CHOL    R293171  15.968  25.745   5.267
 7977CHOL    R393172  15.790  25.774   5.373
 7977CHOL    R493173  15.922  25.618   5.305
 7977CHOL    R593174  15.738  25.629   5.417
 7977CHOL    C193175  15.660  25.412   5.482
 7977CHOL    C293176  15.582  25.194   5.548
 7978CHOL   ROH93177  20.214  24.204  13.060
 7978CHOL    R193178  20.119  24.078  13.031
 7978CHOL    R293179  20.177  23.920  12.869
 7978CHOL    R393180  20.013  23.937  12.997
 7978CHOL    R493181  20.094  23.810  12.844
 7978CHOL    R593182  19.918  23.812  12.968
 7978CHOL    C193183  19.776  23.623  12.924
 7978CHOL    C293184  19.634  23.435  12.880
 7979CHOL   ROH93185   4.187   1.541  -4.780
 7979CHOL    R193186   4.243   1.618  -4.651
 7979CHOL    R293187   4.428   1.538  -4.534
 7979CHOL    R393188   4.305   1.705  -4.506
 7979CHOL    R493189   4.477   1.605  -4.422
 7979CHOL    R593190   4.361   1.781  -4.377
 7979CHOL    C193191   4.445   1.897  -4.184
 7979CHOL    C293192   4.528   2.012  -3.991
 7980CHOL   ROH93193  -3.767  12.013  21.239
 7980CHOL    R193194  -3.643  11.998  21.139
 7980CHOL    R293195  -3.445  11.895  21.208
 7980CHOL    R393196  -3.504  11.981  21.026
 7980CHOL    R493197  -3.337  11.882  21.120
 7980CHOL    R593198  -3.380  11.965  20.926
 7980CHOL    C193199  -3.194  11.943  20.776
 7980CHOL    C293200  -3.008  11.920  20.626
 7981CHOL   ROH93201   0.593  14.168  -4.705
 7981CHOL    R193202   0.677  14.133  -4.574
 7981CHOL    R293203   0.579  14.139  -4.362
 7981CHOL    R393204   0.773  14.094  -4.426
 7981CHOL    R493205   0.653  14.108  -4.247
 7981CHOL    R593206   0.857  14.058  -4.294
 7981CHOL    C193207   0.984  14.006  -4.097
 7981CHOL    C293208   1.110  13.953  -3.900
 7982CHOL   ROH93209  16.883  -0.878  22.234
 7982CHOL    R193210  16.821  -0.779  22.124
 7982CHOL    R293211  16.788  -0.850  21.905
 7982CHOL    R393212  16.752  -0.668  22.001
 7982CHOL    R493213  16.734  -0.763  21.808
 7982CHOL    R593214  16.690  -0.569  21.891
 7982CHOL    C193215  16.598  -0.421  21.726
 7982CHOL    C293216  16.506  -0.272  21.562
 7983CHOL   ROH93217   2.997  -3.951  18.758
 7983CHOL    R193218   3.059  -3.826  18.679
 7983CHOL    R293219   3.198  -3.857  18.495
 7983CHOL    R393220   3.128  -3.685  18.591
 7983CHOL    R493221   3.252  -3.748  18.426
 7983CHOL    R593222   3.190  -3.560  18.512
 7983CHOL    C193223   3.283  -3.373  18.394
 7983CHOL    C293224   3.375  -3.186  18.276
 7984CHOL   ROH93225  25.314  13.807  18.036
 7984CHOL    R193226  25.174  13.773  17.966
 7984CHOL    R293227  25.090  13.907  17.795
 7984CHOL    R393228  25.016  13.735  17.888
 7984CHOL    R493229  24.967  13.877  17.734
 7984CHOL    R593230  24.876  13.701  17.818
 7984CHOL    C193231  24.666  13.651  17.714
 7984CHOL    C293232  24.456  13.600  17.610
 7985CHOL   ROH93233   6.915  13.107  27.177
 7985CHOL    R193234   6.945  13.083  27.022
 7985CHOL    R293235   7.160  13.034  26.947
 7985CHOL    R393236   6.979  13.057  26.847
 7985CHOL    R493237   7.187  13.014  26.811
 7985CHOL    R593238   7.008  13.034  26.691
 7985CHOL    C193239   7.053  12.998  26.458
 7985CHOL    C293240   7.098  12.963  26.225
 7986CHOL   ROH93241  10.808  23.964  20.995
 7986CHOL    R193242  10.797  23.840  20.895
 7986CHOL    R293243  10.855  23.625  20.964
 7986CHOL    R393244  10.785  23.700  20.782
 7986CHOL    R493245  10.846  23.516  20.876
 7986CHOL    R593246  10.774  23.576  20.682
 7986CHOL    C193247  10.757  23.389  20.532
 7986CHOL    C293248  10.740  23.203  20.382
 7987CHOL   ROH93249   6.911  -6.647   4.173
 7987CHOL    R193250   6.938  -6.498   4.226
 7987CHOL    R293251   6.966  -6.455   4.453
 7987CHOL    R393252   6.967  -6.331   4.286
 7987CHOL    R493253   6.989  -6.325   4.500
 7987CHOL    R593254   6.994  -6.182   4.338
 7987CHOL    C193255   7.034  -5.960   4.418
 7987CHOL    C293256   7.074  -5.737   4.497
 7988CHOL   ROH93257  15.445  -3.684  19.974
 7988CHOL    R193258  15.398  -3.564  19.880
 7988CHOL    R293259  15.523  -3.368  19.864
 7988CHOL    R393260  15.344  -3.428  19.774
 7988CHOL    R493261  15.482  -3.262  19.782
 7988CHOL    R593262  15.297  -3.307  19.681
 7988CHOL    C193263  15.226  -3.127  19.540
 7988CHOL    C293264  15.155  -2.946  19.399
 7989CHOL   ROH93265  23.097  21.086   5.605
 7989CHOL    R193266  22.975  20.990   5.645
 7989CHOL    R293267  22.942  20.787   5.535
 7989CHOL    R393268  22.839  20.882   5.689
 7989CHOL    R493269  22.836  20.702   5.570
 7989CHOL    R593270  22.717  20.785   5.729
 7989CHOL    C193271  22.535  20.641   5.789
 7989CHOL    C293272  22.352  20.497   5.848
 7990CHOL   ROH93273  16.440  -5.950  14.519
 7990CHOL    R193274  16.382  -5.807  14.477
 7990CHOL    R293275  16.453  -5.612  14.585
 7990CHOL    R393276  16.316  -5.646  14.430
 7990CHOL    R493277  16.402  -5.487  14.548
 7990CHOL    R593278  16.258  -5.503  14.388
 7990CHOL    C193279  16.171  -5.288  14.326
 7990CHOL    C293280  16.083  -5.074  14.263
 7991CHOL   ROH93281  12.303  12.810  -7.532
 7991CHOL    R193282  12.281  12.782  -7.376
 7991CHOL    R293283  12.256  12.564  -7.296
 7991CHOL    R393284  12.256  12.750  -7.201
 7991CHOL    R493285  12.237  12.540  -7.159
 7991CHOL    R593286  12.233  12.722  -7.045
 7991CHOL    C193287  12.200  12.680  -6.811
 7991CHOL    C293288  12.167  12.638  -6.577
 7992CHOL   ROH93289  25.422   1.533   7.927
 7992CHOL    R193290  25.282   1.609   7.946
 7992CHOL    R293291  25.161   1.683   7.761
 7992CHOL    R393292  25.126   1.695   7.966
 7992CHOL    R493293  25.039   1.750   7.777
 7992CHOL    R593294  24.986   1.771   7.985
 7992CHOL    C193295  24.777   1.885   8.013
 7992CHOL    C293296  24.567   1.999   8.041
 7993CHOL   ROH93297  -3.143   7.552  -2.012
 7993CHOL    R193298  -3.025   7.570  -1.905
 7993CHOL    R293299  -2.942   7.386  -1.787
 7993CHOL    R393300  -2.892   7.589  -1.785
 7993CHOL    R493301  -2.838   7.402  -1.694
 7993CHOL    R593302  -2.775   7.607  -1.678
 7993CHOL    C193303  -2.598   7.633  -1.518
 7993CHOL    C293304  -2.421   7.660  -1.358
 7994CHOL   ROH93305   4.799   2.098  25.157
 7994CHOL    R193306   4.838   2.165  25.017
 7994CHOL    R293307   4.932   2.039  24.845
 7994CHOL    R393308   4.882   2.241  24.860
 7994CHOL    R493309   4.966   2.098  24.723
 7994CHOL    R593310   4.921   2.308  24.720
 7994CHOL    C193311   4.980   2.410  24.510
 7994CHOL    C293312   5.038   2.511  24.300
 7995CHOL   ROH93313  19.354  -3.746  16.252
 7995CHOL    R193314  19.266  -3.623  16.198
 7995CHOL    R293315  19.298  -3.538  15.984
 7995CHOL    R393316  19.168  -3.485  16.138
 7995CHOL    R493317  19.222  -3.431  15.937
 7995CHOL    R593318  19.080  -3.362  16.085
 7995CHOL    C193319  18.949  -3.178  16.004
 7995CHOL    C293320  18.818  -2.994  15.924
 7996CHOL   ROH93321  14.805  14.205  -6.692
 7996CHOL    R193322  14.763  14.166  -6.543
 7996CHOL    R293323  14.548  14.089  -6.494
 7996CHOL    R393324  14.716  14.122  -6.374
 7996CHOL    R493325  14.511  14.055  -6.364
 7996CHOL    R593326  14.674  14.084  -6.225
 7996CHOL    C193327  14.610  14.025  -6.001
 7996CHOL    C293328  14.547  13.967  -5.777
 7997CHOL   ROH93329  26.361  10.146  16.832
 7997CHOL    R193330  26.214  10.142  16.769
 7997CHOL    R293331  26.159   9.989  16.602
 7997CHOL    R393332  26.048  10.137  16.699
 7997CHOL    R493333  26.030   9.985  16.547
 7997CHOL    R593334  25.901  10.133  16.636
 7997CHOL    C193335  25.680  10.127  16.542
 7997CHOL    C293336  25.459  10.121  16.448
 7998CHOL   ROH93337  23.702  21.294   9.616
 7998CHOL    R193338  23.575  21.197   9.621
 7998CHOL    R293339  23.399  21.221   9.469
 7998CHOL    R393340  23.432  21.087   9.626
 7998CHOL    R493341  23.288  21.136   9.473
 7998CHOL    R593342  23.305  20.990   9.631
 7998CHOL    C193343  23.114  20.844   9.638
 7998CHOL    C293344  22.924  20.698   9.645
 7999CHOL   ROH93345  15.449  -5.526  16.747
 7999CHOL    R193346  15.398  -5.386  16.688
 7999CHOL    R293347  15.541  -5.202  16.675
 7999CHOL    R393348  15.341  -5.229  16.622
 7999CHOL    R493349  15.497  -5.080  16.623
 7999CHOL    R593350  15.291  -5.089  16.562
 7999CHOL    C193351  15.214  -4.879  16.474
 7999CHOL    C293352  15.138  -4.669  16.385
 8000CHOL   ROH93353  -4.826  16.869  17.469
 8000CHOL    R193354  -4.694  16.806  17.403
 8000CHOL    R293355  -4.501  16.774  17.529
 8000CHOL    R393356  -4.546  16.736  17.329
 8000CHOL    R493357  -4.386  16.719  17.472
 8000CHOL    R593358  -4.415  16.674  17.263
 8000CHOL    C193359  -4.217  16.580  17.164
 8000CHOL    C293360  -4.019  16.486  17.065
 8001CHOL   ROH93361  -4.294  -0.213  13.735
 8001CHOL    R193362  -4.166  -0.124  13.699
 8001CHOL    R293363  -3.952  -0.217  13.697
 8001CHOL    R393364  -4.022  -0.024  13.659
 8001CHOL    R493365  -3.840  -0.139  13.665
 8001CHOL    R593366  -3.894   0.066  13.623
 8001CHOL    C193367  -3.702   0.199  13.569
 8001CHOL    C293368  -3.510   0.333  13.515
 8002CHOL   ROH93369   0.843  20.374  -1.528
 8002CHOL    R193370   0.925  20.281  -1.427
 8002CHOL    R293371   1.157  20.267  -1.437
 8002CHOL    R393372   1.016  20.175  -1.313
 8002CHOL    R493373   1.229  20.186  -1.348
 8002CHOL    R593374   1.098  20.082  -1.212
 8002CHOL    C193375   1.220  19.942  -1.060
 8002CHOL    C293376   1.343  19.802  -0.909
 8003CHOL   ROH93377  27.467   8.468   7.843
 8003CHOL    R193378  27.308   8.481   7.860
 8003CHOL    R293379  27.165   8.323   7.767
 8003CHOL    R393380  27.130   8.496   7.879
 8003CHOL    R493381  27.026   8.334   7.782
 8003CHOL    R593382  26.971   8.509   7.896
 8003CHOL    C193383  26.734   8.528   7.921
 8003CHOL    C293384  26.496   8.547   7.947
 8004CHOL   ROH93385  13.754  -6.396   3.891
 8004CHOL    R193386  13.715  -6.250   3.944
 8004CHOL    R293387  13.771  -6.059   3.823
 8004CHOL    R393388  13.670  -6.086   4.004
 8004CHOL    R493389  13.737  -5.932   3.869
 8004CHOL    R593390  13.631  -5.940   4.057
 8004CHOL    C193391  13.572  -5.722   4.136
 8004CHOL    C293392  13.513  -5.503   4.215
 8005CHOL   ROH93393  18.274  -4.659   4.245
 8005CHOL    R193394  18.201  -4.526   4.296
 8005CHOL    R293395  18.305  -4.381   4.446
 8005CHOL    R393396  18.118  -4.377   4.353
 8005CHOL    R493397  18.241  -4.265   4.491
 8005CHOL    R593398  18.044  -4.244   4.404
 8005CHOL    C193399  17.934  -4.045   4.480
 8005CHOL    C293400  17.824  -3.846   4.557
 8006CHOL   ROH93401  25.671  16.875   5.421
 8006CHOL    R193402  25.530  16.809   5.457
 8006CHOL    R293403  25.492  16.581   5.426
 8006CHOL    R393404  25.371  16.735   5.498
 8006CHOL    R493405  25.369  16.524   5.458
 8006CHOL    R593406  25.230  16.669   5.534
 8006CHOL    C193407  25.018  16.571   5.588
 8006CHOL    C293408  24.806  16.472   5.642
 8007CHOL   ROH93409  10.812  21.437  23.612
 8007CHOL    R193410  10.803  21.334  23.490
 8007CHOL    R293411  10.856  21.109  23.520
 8007CHOL    R393412  10.793  21.217  23.353
 8007CHOL    R493413  10.848  21.018  23.413
 8007CHOL    R593414  10.784  21.114  23.232
 8007CHOL    C193415  10.771  20.959  23.049
 8007CHOL    C293416  10.757  20.804  22.866
 8008CHOL   ROH93417  22.676  14.406  21.465
 8008CHOL    R193418  22.565  14.366  21.357
 8008CHOL    R293419  22.481  14.523  21.207
 8008CHOL    R393420  22.441  14.320  21.235
 8008CHOL    R493421  22.384  14.488  21.112
 8008CHOL    R593422  22.330  14.279  21.126
 8008CHOL    C193423  22.165  14.219  20.964
 8008CHOL    C293424  21.999  14.158  20.802
 8009CHOL   ROH93425  -3.472  21.531  12.734
 8009CHOL    R193426  -3.350  21.431  12.707
 8009CHOL    R293427  -3.145  21.509  12.628
 8009CHOL    R393428  -3.214  21.317  12.677
 8009CHOL    R493429  -3.039  21.421  12.604
 8009CHOL    R593430  -3.092  21.217  12.650
 8009CHOL    C193431  -2.910  21.066  12.609
 8009CHOL    C293432  -2.727  20.916  12.568
 8010CHOL   ROH93433  -6.332   3.208   7.021
 8010CHOL    R193434  -6.186   3.269   7.046
 8010CHOL    R293435  -6.041   3.173   7.201
 8010CHOL    R393436  -6.023   3.339   7.075
 8010CHOL    R493437  -5.913   3.227   7.223
 8010CHOL    R593438  -5.877   3.400   7.100
 8010CHOL    C193439  -5.659   3.492   7.138
 8010CHOL    C293440  -5.440   3.584   7.176
 8011CHOL   ROH93441  16.786  22.877  -0.281
 8011CHOL    R193442  16.719  22.762  -0.193
 8011CHOL    R293443  16.562  22.616  -0.284
 8011CHOL    R393444  16.644  22.632  -0.093
 8011CHOL    R493445  16.504  22.515  -0.207
 8011CHOL    R593446  16.577  22.516  -0.005
 8011CHOL    C193447  16.477  22.343   0.128
 8011CHOL    C293448  16.377  22.170   0.261
 8012CHOL   ROH93449  -6.480   8.436  16.942
 8012CHOL    R193450  -6.334   8.447  16.877
 8012CHOL    R293451  -6.147   8.362  16.988
 8012CHOL    R393452  -6.170   8.460  16.805
 8012CHOL    R493453  -6.019   8.372  16.931
 8012CHOL    R593454  -6.024   8.472  16.740
 8012CHOL    C193455  -5.805   8.489  16.643
 8012CHOL    C293456  -5.586   8.506  16.546
 8013CHOL   ROH93457   6.320  24.373  19.921
 8013CHOL    R193458   6.352  24.246  19.829
 8013CHOL    R293459   6.554  24.131  19.850
 8013CHOL    R393460   6.388  24.103  19.726
 8013CHOL    R493461   6.582  24.020  19.770
 8013CHOL    R593462   6.421  23.976  19.634
 8013CHOL    C193463   6.469  23.785  19.497
 8013CHOL    C293464   6.517  23.595  19.359
 8014CHOL   ROH93465   8.169  27.240  14.304
 8014CHOL    R193466   8.183  27.086  14.264
 8014CHOL    R293467   8.326  26.944  14.382
 8014CHOL    R393468   8.198  26.912  14.220
 8014CHOL    R493469   8.338  26.809  14.348
 8014CHOL    R593470   8.212  26.758  14.181
 8014CHOL    C193471   8.233  26.526  14.121
 8014CHOL    C293472   8.253  26.294  14.062
 8015CHOL   ROH93473   4.058  -3.413  -0.345
 8015CHOL    R193474   4.112  -3.296  -0.250
 8015CHOL    R293475   4.088  -3.309  -0.018
 8015CHOL    R393476   4.172  -3.164  -0.143
 8015CHOL    R493477   4.135  -3.207   0.065
 8015CHOL    R593478   4.226  -3.048  -0.048
 8015CHOL    C193479   4.307  -2.872   0.095
 8015CHOL    C293480   4.387  -2.697   0.237
 8016CHOL   ROH93481  23.865   5.110  19.776
 8016CHOL    R193482  23.739   5.152  19.688
 8016CHOL    R293483  23.704   5.061  19.476
 8016CHOL    R393484  23.596   5.200  19.588
 8016CHOL    R493485  23.593   5.098  19.399
 8016CHOL    R593486  23.470   5.242  19.500
 8016CHOL    C193487  23.280   5.306  19.367
 8016CHOL    C293488  23.091   5.370  19.234
 8017CHOL   ROH93489  -7.062  14.013   6.140
 8017CHOL    R193490  -6.910  13.977   6.176
 8017CHOL    R293491  -6.821  14.033   6.384
 8017CHOL    R393492  -6.740  13.938   6.218
 8017CHOL    R493493  -6.688  14.002   6.416
 8017CHOL    R593494  -6.588  13.902   6.254
 8017CHOL    C193495  -6.360  13.849   6.309
 8017CHOL    C293496  -6.133  13.795   6.363
 8018CHOL   ROH93497  16.965  24.010  18.331
 8018CHOL    R193498  16.900  23.884  18.257
 8018CHOL    R293499  16.832  23.898  18.034
 8018CHOL    R393500  16.827  23.742  18.173
 8018CHOL    R493501  16.775  23.788  17.969
 8018CHOL    R593502  16.762  23.617  18.099
 8018CHOL    C193503  16.665  23.428  17.988
 8018CHOL    C293504  16.567  23.239  17.876
 8019CHOL   ROH93505   6.825  16.532  26.321
 8019CHOL    R193506   6.847  16.474  26.174
 8019CHOL    R293507   7.060  16.415  26.099
 8019CHOL    R393508   6.872  16.408  26.008
 8019CHOL    R493509   7.080  16.365  25.970
 8019CHOL    R593510   6.895  16.350  25.861
 8019CHOL    C193511   6.928  16.263  25.639
 8019CHOL    C293512   6.961  16.175  25.418
 8020CHOL   ROH93513   2.617  15.329  -5.490
 8020CHOL    R193514   2.683  15.281  -5.352
 8020CHOL    R293515   2.623  15.380  -5.150
 8020CHOL    R393516   2.757  15.227  -5.198
 8020CHOL    R493517   2.681  15.338  -5.029
 8020CHOL    R593518   2.823  15.180  -5.060
 8020CHOL    C193519   2.923  15.108  -4.854
 8020CHOL    C293520   3.022  15.036  -4.647
 8021CHOL   ROH93521  21.198   9.404  -3.850
 8021CHOL    R193522  21.096   9.408  -3.726
 8021CHOL    R293523  21.019   9.612  -3.642
 8021CHOL    R393524  20.982   9.414  -3.588
 8021CHOL    R493525  20.930   9.616  -3.534
 8021CHOL    R593526  20.881   9.418  -3.464
 8021CHOL    C193527  20.728   9.425  -3.279
 8021CHOL    C293528  20.576   9.431  -3.093
 8022CHOL   ROH93529  -3.120   2.351   0.240
 8022CHOL    R193530  -3.007   2.420   0.331
 8022CHOL    R293531  -2.858   2.291   0.455
 8022CHOL    R393532  -2.881   2.497   0.433
 8022CHOL    R493533  -2.760   2.351   0.535
 8022CHOL    R593534  -2.768   2.565   0.524
 8022CHOL    C193535  -2.599   2.668   0.660
 8022CHOL    C293536  -2.430   2.771   0.796
 8023CHOL   ROH93537  20.250  -3.002  16.403
 8023CHOL    R193538  20.157  -2.885  16.347
 8023CHOL    R293539  20.217  -2.764  16.157
 8023CHOL    R393540  20.051  -2.753  16.283
 8023CHOL    R493541  20.136  -2.661  16.108
 8023CHOL    R593542  19.958  -2.637  16.227
 8023CHOL    C193543  19.818  -2.461  16.143
 8023CHOL    C293544  19.678  -2.286  16.058
 8024CHOL   ROH93545  12.903  16.988  25.995
 8024CHOL    R193546  12.876  16.926  25.850
 8024CHOL    R293547  13.010  16.754  25.766
 8024CHOL    R393548  12.847  16.857  25.686
 8024CHOL    R493549  12.986  16.700  25.639
 8024CHOL    R593550  12.820  16.795  25.541
 8024CHOL    C193551  12.780  16.702  25.323
 8024CHOL    C293552  12.740  16.610  25.105
 8025CHOL   ROH93553   9.659  26.192   2.361
 8025CHOL    R193554   9.659  26.047   2.429
 8025CHOL    R293555   9.682  25.854   2.301
 8025CHOL    R393556   9.659  25.885   2.506
 8025CHOL    R493557   9.682  25.727   2.361
 8025CHOL    R593558   9.658  25.740   2.575
 8025CHOL    C193559   9.658  25.523   2.677
 8025CHOL    C293560   9.658  25.306   2.779
 8026CHOL   ROH93561  27.572  11.796  10.031
 8026CHOL    R193562  27.412  11.784  10.029
 8026CHOL    R293563  27.281  11.953   9.937
 8026CHOL    R393564  27.233  11.771  10.027
 8026CHOL    R493565  27.141  11.943   9.935
 8026CHOL    R593566  27.074  11.759  10.025
 8026CHOL    C193567  26.834  11.741  10.021
 8026CHOL    C293568  26.595  11.723  10.018
 8027CHOL   ROH93569  -3.793  19.025  17.072
 8027CHOL    R193570  -3.671  18.944  17.008
 8027CHOL    R293571  -3.486  19.056  16.920
 8027CHOL    R393572  -3.533  18.853  16.936
 8027CHOL    R493573  -3.379  18.985  16.865
 8027CHOL    R593574  -3.411  18.772  16.873
 8027CHOL    C193575  -3.227  18.651  16.777
 8027CHOL    C293576  -3.043  18.529  16.681
 8028CHOL   ROH93577  -2.916   3.982  20.834
 8028CHOL    R193578  -2.807   4.038  20.731
 8028CHOL    R293579  -2.645   3.897  20.640
 8028CHOL    R393580  -2.684   4.101  20.616
 8028CHOL    R493581  -2.550   3.947  20.550
 8028CHOL    R593582  -2.575   4.158  20.514
 8028CHOL    C193583  -2.411   4.242  20.360
 8028CHOL    C293584  -2.248   4.326  20.206
 8029CHOL   ROH93585   3.456  10.072  -6.744
 8029CHOL    R193586   3.513  10.071  -6.595
 8029CHOL    R293587   3.447   9.908  -6.442
 8029CHOL    R393588   3.578  10.070  -6.426
 8029CHOL    R493589   3.497   9.907  -6.311
 8029CHOL    R593590   3.635  10.069  -6.277
 8029CHOL    C193591   3.721  10.068  -6.053
 8029CHOL    C293592   3.807  10.066  -5.829
 8030CHOL   ROH93593   9.220   0.359  -5.100
 8030CHOL    R193594   9.222   0.444  -4.964
 8030CHOL    R293595   9.389   0.412  -4.805
 8030CHOL    R393596   9.224   0.539  -4.812
 8030CHOL    R493597   9.391   0.486  -4.687
 8030CHOL    R593598   9.225   0.624  -4.676
 8030CHOL    C193599   9.228   0.751  -4.472
 8030CHOL    C293600   9.231   0.878  -4.269
 8031CHOL   ROH93601  22.205  -2.537   6.793
 8031CHOL    R193602  22.094  -2.425   6.821
 8031CHOL    R293603  22.024  -2.281   6.652
 8031CHOL    R393604  21.969  -2.300   6.853
 8031CHOL    R493605  21.926  -2.183   6.677
 8031CHOL    R593606  21.857  -2.188   6.881
 8031CHOL    C193607  21.691  -2.021   6.923
 8031CHOL    C293608  21.524  -1.854   6.965
 8032CHOL   ROH93609  20.008  22.388  17.601
 8032CHOL    R193610  19.916  22.275  17.536
 8032CHOL    R293611  19.931  22.053  17.604
 8032CHOL    R393612  19.811  22.148  17.462
 8032CHOL    R493613  19.850  21.954  17.547
 8032CHOL    R593614  19.719  22.035  17.397
 8032CHOL    C193615  19.580  21.866  17.298
 8032CHOL    C293616  19.442  21.696  17.200
 8033CHOL   ROH93617  13.311   3.627  -6.394
 8033CHOL    R193618  13.281   3.683  -6.247
 8033CHOL    R293619  13.293   3.912  -6.202
 8033CHOL    R393620  13.248   3.746  -6.082
 8033CHOL    R493621  13.267   3.961  -6.073
 8033CHOL    R593622  13.219   3.802  -5.935
 8033CHOL    C193623  13.174   3.887  -5.715
 8033CHOL    C293624  13.130   3.971  -5.494
 8034CHOL   ROH93625  26.108   5.991   3.637
 8034CHOL    R193626  25.961   6.024   3.692
 8034CHOL    R293627  25.786   5.873   3.664
 8034CHOL    R393628  25.797   6.061   3.753
 8034CHOL    R493629  25.658   5.902   3.711
 8034CHOL    R593630  25.650   6.095   3.808
 8034CHOL    C193631  25.430   6.144   3.890
 8034CHOL    C293632  25.210   6.194   3.972
 8035CHOL   ROH93633  22.211  -2.214   5.725
 8035CHOL    R193634  22.100  -2.105   5.762
 8035CHOL    R293635  22.028  -1.949   5.605
 8035CHOL    R393636  21.975  -1.982   5.804
 8035CHOL    R493637  21.931  -1.853   5.637
 8035CHOL    R593638  21.864  -1.873   5.841
 8035CHOL    C193639  21.697  -1.710   5.897
 8035CHOL    C293640  21.531  -1.547   5.952
 8036CHOL   ROH93641  27.193   7.257  13.234
 8036CHOL    R193642  27.037   7.281  13.207
 8036CHOL    R293643  26.932   7.188  13.020
 8036CHOL    R393644  26.862   7.308  13.176
 8036CHOL    R493645  26.796   7.209  12.997
 8036CHOL    R593646  26.706   7.332  13.149
 8036CHOL    C193647  26.472   7.368  13.108
 8036CHOL    C293648  26.238   7.404  13.067
 8037CHOL   ROH93649  11.380   7.538  -7.705
 8037CHOL    R193650  11.371   7.561  -7.547
 8037CHOL    R293651  11.296   7.764  -7.460
 8037CHOL    R393652  11.360   7.587  -7.369
 8037CHOL    R493653  11.288   7.785  -7.321
 8037CHOL    R593654  11.351   7.611  -7.211
 8037CHOL    C193655  11.336   7.645  -6.974
 8037CHOL    C293656  11.322   7.680  -6.737
 8038CHOL   ROH93657  -7.057  14.350   6.471
 8038CHOL    R193658  -6.905  14.312   6.505
 8038CHOL    R293659  -6.811  14.369   6.711
 8038CHOL    R393660  -6.735  14.269   6.544
 8038CHOL    R493661  -6.678  14.335   6.741
 8038CHOL    R593662  -6.584  14.230   6.579
 8038CHOL    C193663  -6.356  14.173   6.630
 8038CHOL    C293664  -6.129  14.116   6.682
 8039CHOL   ROH93665  16.687  -5.875   5.542
 8039CHOL    R193666  16.625  -5.733   5.582
 8039CHOL    R293667  16.762  -5.559   5.656
 8039CHOL    R393668  16.555  -5.573   5.628
 8039CHOL    R493669  16.708  -5.435   5.691
 8039CHOL    R593670  16.493  -5.432   5.669
 8039CHOL    C193671  16.401  -5.219   5.729
 8039CHOL    C293672  16.308  -5.006   5.790
 8040CHOL   ROH93673   0.910  25.266   8.415
 8040CHOL    R193674   0.994  25.131   8.432
 8040CHOL    R293675   1.191  25.096   8.312
 8040CHOL    R393676   1.088  24.978   8.450
 8040CHOL    R493677   1.264  24.978   8.327
 8040CHOL    R593678   1.171  24.843   8.467
 8040CHOL    C193679   1.297  24.640   8.492
 8040CHOL    C293680   1.423  24.437   8.517
 8041CHOL   ROH93681  -4.594   1.576   3.603
 8041CHOL    R193682  -4.463   1.653   3.653
 8041CHOL    R293683  -4.286   1.538   3.751
 8041CHOL    R393684  -4.316   1.740   3.709
 8041CHOL    R493685  -4.171   1.605   3.795
 8041CHOL    R593686  -4.185   1.818   3.759
 8041CHOL    C193687  -3.989   1.933   3.835
 8041CHOL    C293688  -3.793   2.049   3.910
 8042CHOL   ROH93689  -0.887  -1.698  18.149
 8042CHOL    R193690  -0.791  -1.593  18.076
 8042CHOL    R293691  -0.634  -1.469  18.196
 8042CHOL    R393692  -0.683  -1.475  17.993
 8042CHOL    R493693  -0.550  -1.377  18.132
 8042CHOL    R593694  -0.587  -1.369  17.920
 8042CHOL    C193695  -0.444  -1.212  17.810
 8042CHOL    C293696  -0.300  -1.054  17.700
 8043CHOL   ROH93697   0.015  21.774  19.099
 8043CHOL    R193698   0.104  21.669  19.017
 8043CHOL    R293699   0.283  21.560  19.119
 8043CHOL    R393700   0.204  21.551  18.926
 8043CHOL    R493701   0.361  21.468  19.047
 8043CHOL    R593702   0.293  21.446  18.844
 8043CHOL    C193703   0.426  21.289  18.722
 8043CHOL    C293704   0.560  21.131  18.599
 8044CHOL   ROH93705   3.500  22.910  -0.596
 8044CHOL    R193706   3.556  22.792  -0.504
 8044CHOL    R293707   3.643  22.836  -0.292
 8044CHOL    R393708   3.618  22.659  -0.399
 8044CHOL    R493709   3.692  22.732  -0.211
 8044CHOL    R593710   3.674  22.541  -0.307
 8044CHOL    C193711   3.758  22.363  -0.168
 8044CHOL    C293712   3.841  22.186  -0.030
 8045CHOL   ROH93713  19.433   7.796  -4.934
 8045CHOL    R193714  19.350   7.817  -4.799
 8045CHOL    R293715  19.266   8.027  -4.742
 8045CHOL    R393716  19.256   7.841  -4.647
 8045CHOL    R493717  19.193   8.046  -4.624
 8045CHOL    R593718  19.173   7.863  -4.513
 8045CHOL    C193719  19.047   7.894  -4.310
 8045CHOL    C293720  18.922   7.926  -4.108
 8046CHOL   ROH93721  22.832   7.232  -2.059
 8046CHOL    R193722  22.715   7.254  -1.952
 8046CHOL    R293723  22.504   7.327  -2.018
 8046CHOL    R393724  22.584   7.279  -1.831
 8046CHOL    R493725  22.402   7.346  -1.924
 8046CHOL    R593726  22.467   7.302  -1.724
 8046CHOL    C193727  22.293   7.335  -1.563
 8046CHOL    C293728  22.118   7.368  -1.402
 8047CHOL   ROH93729  10.077  27.110  15.038
 8047CHOL    R193730  10.072  26.956  14.995
 8047CHOL    R293731  10.184  26.793  15.119
 8047CHOL    R393732  10.066  26.783  14.947
 8047CHOL    R493733  10.180  26.658  15.082
 8047CHOL    R593734  10.061  26.628  14.904
 8047CHOL    C193735  10.053  26.397  14.840
 8047CHOL    C293736  10.046  26.166  14.776
 8048CHOL   ROH93737   0.624   1.639  -2.774
 8048CHOL    R193738   0.708   1.715  -2.661
 8048CHOL    R293739   0.677   1.666  -2.435
 8048CHOL    R393740   0.803   1.800  -2.534
 8048CHOL    R493741   0.751   1.733  -2.336
 8048CHOL    R593742   0.887   1.876  -2.421
 8048CHOL    C193743   1.013   1.990  -2.252
 8048CHOL    C293744   1.139   2.104  -2.082
 8049CHOL   ROH93745  -5.606  18.998   9.579
 8049CHOL    R193746  -5.467  18.918   9.580
 8049CHOL    R293747  -5.395  18.807   9.772
 8049CHOL    R393748  -5.311  18.829   9.582
 8049CHOL    R493749  -5.273  18.737   9.773
 8049CHOL    R593750  -5.172  18.749   9.583
 8049CHOL    C193751  -4.964  18.630   9.585
 8049CHOL    C293752  -4.756  18.511   9.587
 8050CHOL   ROH93753  12.204   2.064  -5.892
 8050CHOL    R193754  12.183   2.136  -5.750
 8050CHOL    R293755  12.366   2.213  -5.627
 8050CHOL    R393756  12.160   2.216  -5.591
 8050CHOL    R493757  12.348   2.276  -5.504
 8050CHOL    R593758  12.139   2.288  -5.450
 8050CHOL    C193759  12.109   2.396  -5.237
 8050CHOL    C293760  12.078   2.503  -5.025
 8051CHOL   ROH93761  -7.341  14.622  11.356
 8051CHOL    R193762  -7.188  14.578  11.344
 8051CHOL    R293763  -7.018  14.737  11.326
 8051CHOL    R393764  -7.015  14.528  11.330
 8051CHOL    R493765  -6.884  14.699  11.315
 8051CHOL    R593766  -6.862  14.484  11.317
 8051CHOL    C193767  -6.632  14.418  11.299
 8051CHOL    C293768  -6.402  14.352  11.281
 8052CHOL   ROH93769   8.588  -7.588  12.750
 8052CHOL    R193770   8.599  -7.430  12.728
 8052CHOL    R293771   8.614  -7.285  12.910
 8052CHOL    R393772   8.611  -7.252  12.704
 8052CHOL    R493773   8.623  -7.146  12.891
 8052CHOL    R593774   8.622  -7.094  12.682
 8052CHOL    C193775   8.638  -6.857  12.649
 8052CHOL    C293776   8.655  -6.620  12.617
 8053CHOL   ROH93777  25.087  17.541  15.488
 8053CHOL    R193778  24.950  17.473  15.440
 8053CHOL    R293779  24.938  17.360  15.236
 8053CHOL    R393780  24.797  17.397  15.385
 8053CHOL    R493781  24.819  17.301  15.194
 8053CHOL    R593782  24.660  17.329  15.337
 8053CHOL    C193783  24.455  17.228  15.265
 8053CHOL    C293784  24.250  17.126  15.192
 8054CHOL   ROH93785  17.333  -5.417   5.013
 8054CHOL    R193786  17.266  -5.279   5.058
 8054CHOL    R293787  17.397  -5.103   5.137
 8054CHOL    R393788  17.191  -5.123   5.109
 8054CHOL    R493789  17.339  -4.982   5.177
 8054CHOL    R593790  17.125  -4.985   5.154
 8054CHOL    C193791  17.024  -4.778   5.221
 8054CHOL    C293792  16.924  -4.570   5.288
 8055CHOL   ROH93793   7.836   4.120  26.590
 8055CHOL    R193794   7.857   4.175  26.441
 8055CHOL    R293795   7.892   4.402  26.401
 8055CHOL    R393796   7.881   4.236  26.274
 8055CHOL    R493797   7.911   4.450  26.271
 8055CHOL    R593798   7.902   4.291  26.125
 8055CHOL    C193799   7.934   4.373  25.902
 8055CHOL    C293800   7.965   4.455  25.679
 8056CHOL   ROH93801  18.909  25.215   8.347
 8056CHOL    R193802  18.829  25.077   8.359
 8056CHOL    R293803  18.938  24.873   8.328
 8056CHOL    R393804  18.740  24.921   8.371
 8056CHOL    R493805  18.868  24.752   8.338
 8056CHOL    R593806  18.660  24.783   8.383
 8056CHOL    C193807  18.540  24.576   8.400
 8056CHOL    C293808  18.421  24.368   8.418
 8057CHOL   ROH93809  -7.672  10.976  13.221
 8057CHOL    R193810  -7.515  10.969  13.189
 8057CHOL    R293811  -7.359  10.947  13.360
 8057CHOL    R393812  -7.339  10.962  13.153
 8057CHOL    R493813  -7.222  10.942  13.332
 8057CHOL    R593814  -7.183  10.955  13.121
 8057CHOL    C193815  -6.948  10.946  13.073
 8057CHOL    C293816  -6.713  10.936  13.025
 8058CHOL   ROH93817  -5.459   1.879  14.092
 8058CHOL    R193818  -5.321   1.951  14.054
 8058CHOL    R293819  -5.241   2.130  14.179
 8058CHOL    R393820  -5.166   2.032  14.011
 8058CHOL    R493821  -5.120   2.193  14.146
 8058CHOL    R593822  -5.028   2.104  13.973
 8058CHOL    C193823  -4.821   2.211  13.917
 8058CHOL    C293824  -4.614   2.319  13.860
 8059CHOL   ROH93825  11.651  23.036  -2.106
 8059CHOL    R193826  11.639  22.920  -1.997
 8059CHOL    R293827  11.830  22.829  -1.897
 8059CHOL    R393828  11.626  22.789  -1.874
 8059CHOL    R493829  11.820  22.727  -1.801
 8059CHOL    R593830  11.614  22.673  -1.765
 8059CHOL    C193831  11.597  22.498  -1.601
 8059CHOL    C293832  11.579  22.324  -1.437
 8060CHOL   ROH93833  25.674   3.028   5.379
 8060CHOL    R193834  25.532   3.091   5.416
 8060CHOL    R293835  25.381   3.152   5.249
 8060CHOL    R393836  25.371   3.162   5.457
 8060CHOL    R493837  25.256   3.207   5.281
 8060CHOL    R593838  25.229   3.225   5.494
 8060CHOL    C193839  25.015   3.320   5.549
 8060CHOL    C293840  24.802   3.414   5.604
 8061CHOL   ROH93841  -5.968   6.466  17.524
 8061CHOL    R193842  -5.825   6.492  17.458
 8061CHOL    R293843  -5.634   6.386  17.540
 8061CHOL    R393844  -5.663   6.520  17.383
 8061CHOL    R493845  -5.508   6.409  17.483
 8061CHOL    R593846  -5.520   6.546  17.317
 8061CHOL    C193847  -5.305   6.584  17.218
 8061CHOL    C293848  -5.090   6.623  17.118
 8062CHOL   ROH93849  25.117  18.269   6.027
 8062CHOL    R193850  24.981  18.192   6.061
 8062CHOL    R293851  24.889  18.037   5.913
 8062CHOL    R393852  24.827  18.106   6.100
 8062CHOL    R493853  24.770  17.970   5.943
 8062CHOL    R593854  24.691  18.030   6.134
 8062CHOL    C193855  24.487  17.915   6.185
 8062CHOL    C293856  24.282  17.800   6.237
 8063CHOL   ROH93857  16.477  -6.041   5.822
 8063CHOL    R193858  16.417  -5.898   5.860
 8063CHOL    R293859  16.555  -5.727   5.938
 8063CHOL    R393860  16.350  -5.736   5.902
 8063CHOL    R493861  16.502  -5.601   5.972
 8063CHOL    R593862  16.290  -5.593   5.940
 8063CHOL    C193863  16.200  -5.378   5.997
 8063CHOL    C293864  16.110  -5.163   6.053
 8064CHOL   ROH93865  -1.433  21.350   2.086
 8064CHOL    R193866  -1.334  21.245   2.155
 8064CHOL    R293867  -1.366  21.176   2.375
 8064CHOL    R393868  -1.222  21.127   2.233
 8064CHOL    R493869  -1.279  21.084   2.436
 8064CHOL    R593870  -1.123  21.022   2.302
 8064CHOL    C193871  -0.973  20.865   2.405
 8064CHOL    C293872  -0.824  20.708   2.508
 8065CHOL   ROH93873  24.764  13.872  19.025
 8065CHOL    R193874  24.630  13.837  18.945
 8065CHOL    R293875  24.513  14.002  18.829
 8065CHOL    R393876  24.479  13.798  18.855
 8065CHOL    R493877  24.395  13.971  18.759
 8065CHOL    R593878  24.345  13.762  18.775
 8065CHOL    C193879  24.143  13.710  18.656
 8065CHOL    C293880  23.942  13.657  18.536
 8066CHOL   ROH93881   4.423  -0.166  -3.717
 8066CHOL    R193882   4.473  -0.074  -3.596
 8066CHOL    R293883   4.509  -0.164  -3.384
 8066CHOL    R393884   4.529   0.029  -3.460
 8066CHOL    R493885   4.552  -0.084  -3.278
 8066CHOL    R593886   4.579   0.121  -3.339
 8066CHOL    C193887   4.655   0.259  -3.157
 8066CHOL    C293888   4.730   0.397  -2.975
 8067CHOL   ROH93889   4.763   1.529  -5.004
 8067CHOL    R193890   4.812   1.605  -4.872
 8067CHOL    R293891   4.961   1.505  -4.723
 8067CHOL    R393892   4.867   1.692  -4.724
 8067CHOL    R493893   5.004   1.572  -4.608
 8067CHOL    R593894   4.916   1.768  -4.592
 8067CHOL    C193895   4.989   1.883  -4.394
 8067CHOL    C293896   5.062   1.997  -4.196
 8068CHOL   ROH93897  -6.686   5.756   4.615
 8068CHOL    R193898  -6.538   5.792   4.663
 8068CHOL    R293899  -6.501   5.964   4.818
 8068CHOL    R393900  -6.372   5.834   4.718
 8068CHOL    R493901  -6.372   5.996   4.860
 8068CHOL    R593902  -6.224   5.870   4.767
 8068CHOL    C193903  -6.002   5.925   4.839
 8068CHOL    C293904  -5.780   5.979   4.912
 8069CHOL   ROH93905   1.159  25.533  11.018
 8069CHOL    R193906   1.237  25.393  11.014
 8069CHOL    R293907   1.452  25.379  10.924
 8069CHOL    R393908   1.325  25.237  11.008
 8069CHOL    R493909   1.520  25.257  10.920
 8069CHOL    R593910   1.403  25.097  11.004
 8069CHOL    C193911   1.520  24.888  10.997
 8069CHOL    C293912   1.637  24.678  10.991
 8070CHOL   ROH93913   4.180  26.806  12.030
 8070CHOL    R193914   4.234  26.657  12.009
 8070CHOL    R293915   4.393  26.565  12.153
 8070CHOL    R393916   4.294  26.489  11.985
 8070CHOL    R493917   4.440  26.435  12.135
 8070CHOL    R593918   4.348  26.339  11.965
 8070CHOL    C193919   4.429  26.116  11.933
 8070CHOL    C293920   4.509  25.892  11.902
 8071CHOL   ROH93921  26.379   3.174   9.827
 8071CHOL    R193922  26.231   3.235   9.828
 8071CHOL    R293923  26.175   3.415   9.691
 8071CHOL    R393924  26.065   3.304   9.830
 8071CHOL    R493925  26.045   3.469   9.692
 8071CHOL    R593926  25.917   3.366   9.831
 8071CHOL    C193927  25.695   3.457   9.833
 8071CHOL    C293928  25.473   3.549   9.835
 8072CHOL   ROH93929   0.592  19.649  -1.955
 8072CHOL    R193930   0.676  19.563  -1.849
 8072CHOL    R293931   0.909  19.573  -1.844
 8072CHOL    R393932   0.770  19.466  -1.730
 8072CHOL    R493933   0.982  19.498  -1.751
 8072CHOL    R593934   0.853  19.381  -1.624
 8072CHOL    C193935   0.979  19.252  -1.465
 8072CHOL    C293936   1.105  19.123  -1.306
 8073CHOL   ROH93937  23.096   7.204  21.544
 8073CHOL    R193938  22.976   7.231  21.441
 8073CHOL    R293939  22.900   7.062  21.300
 8073CHOL    R393940  22.841   7.261  21.326
 8073CHOL    R493941  22.795   7.086  21.210
 8073CHOL    R593942  22.721   7.288  21.224
 8073CHOL    C193943  22.542   7.328  21.070
 8073CHOL    C293944  22.362   7.369  20.916
 8074CHOL   ROH93945  12.273  16.084  -6.640
 8074CHOL    R193946  12.251  16.028  -6.492
 8074CHOL    R293947  12.326  15.816  -6.430
 8074CHOL    R393948  12.226  15.966  -6.324
 8074CHOL    R493949  12.307  15.768  -6.300
 8074CHOL    R593950  12.204  15.910  -6.176
 8074CHOL    C193951  12.171  15.827  -5.953
 8074CHOL    C293952  12.138  15.744  -5.731
 8075CHOL   ROH93953  17.112  -3.253   0.375
 8075CHOL    R193954  17.048  -3.134   0.461
 8075CHOL    R293955  17.098  -2.912   0.415
 8075CHOL    R393956  16.976  -3.001   0.558
 8075CHOL    R493957  17.042  -2.808   0.490
 8075CHOL    R593958  16.912  -2.883   0.644
 8075CHOL    C193959  16.815  -2.705   0.773
 8075CHOL    C293960  16.719  -2.527   0.902
 8076CHOL   ROH93961  13.423   1.196  -5.190
 8076CHOL    R193962  13.394   1.277  -5.055
 8076CHOL    R293963  13.567   1.333  -4.909
 8076CHOL    R393964  13.361   1.367  -4.903
 8076CHOL    R493965  13.541   1.403  -4.791
 8076CHOL    R593966  13.331   1.448  -4.768
 8076CHOL    C193967  13.288   1.569  -4.565
 8076CHOL    C293968  13.244   1.690  -4.363
 8077CHOL   ROH93969  14.399  -6.026  16.361
 8077CHOL    R193970  14.357  -5.882  16.305
 8077CHOL    R293971  14.421  -5.813  16.092
 8077CHOL    R393972  14.310  -5.720  16.242
 8077CHOL    R493973  14.385  -5.687  16.043
 8077CHOL    R593974  14.267  -5.577  16.186
 8077CHOL    C193975  14.204  -5.361  16.102
 8077CHOL    C293976  14.141  -5.145  16.018
 8078CHOL   ROH93977  16.494  19.240  23.698
 8078CHOL    R193978  16.435  19.158  23.574
 8078CHOL    R293979  16.465  18.928  23.557
 8078CHOL    R393980  16.369  19.066  23.434
 8078CHOL    R493981  16.414  18.856  23.448
 8078CHOL    R593982  16.309  18.985  23.310
 8078CHOL    C193983  16.221  18.862  23.124
 8078CHOL    C293984  16.132  18.739  22.938
 8079CHOL   ROH93985   2.955  -3.307  19.673
 8079CHOL    R193986   3.016  -3.188  19.586
 8079CHOL    R293987   3.160  -3.231  19.407
 8079CHOL    R393988   3.085  -3.054  19.487
 8079CHOL    R493989   3.214  -3.127  19.331
 8079CHOL    R593990   3.146  -2.935  19.400
 8079CHOL    C193991   3.238  -2.756  19.269
 8079CHOL    C293992   3.330  -2.577  19.138
 8080CHOL   ROH93993  16.246  -6.576   8.196
 8080CHOL    R193994  16.188  -6.428   8.213
 8080CHOL    R293995  16.329  -6.242   8.206
 8080CHOL    R393996  16.123  -6.261   8.232
 8080CHOL    R493997  16.279  -6.113   8.221
 8080CHOL    R593998  16.065  -6.113   8.249
 8080CHOL    C193999  15.978  -5.891   8.274
 8080CHOL    C294000  15.891  -5.669   8.300
 8081CHOL   ROH94001  19.795  -4.673   7.578
 8081CHOL    R194002  19.708  -4.541   7.599
 8081CHOL    R294003  19.595  -4.441   7.421
 8081CHOL    R394004  19.610  -4.391   7.623
 8081CHOL    R494005  19.519  -4.325   7.439
 8081CHOL    R594006  19.523  -4.259   7.644
 8081CHOL    C194007  19.392  -4.060   7.676
 8081CHOL    C294008  19.261  -3.862   7.707
 8082CHOL   ROH94009  17.820  22.894  19.303
 8082CHOL    R194010  17.746  22.777  19.222
 8082CHOL    R294011  17.770  22.554  19.286
 8082CHOL    R394012  17.663  22.646  19.132
 8082CHOL    R494013  17.705  22.452  19.215
 8082CHOL    R594014  17.589  22.530  19.051
 8082CHOL    C194015  17.477  22.355  18.930
 8082CHOL    C294016  17.366  22.180  18.809
 8083CHOL   ROH94017   2.011  23.325   1.099
 8083CHOL    R194018   2.084  23.205   1.176
 8083CHOL    R294019   2.213  23.245   1.366
 8083CHOL    R394020   2.166  23.070   1.262
 8083CHOL    R494021   2.277  23.140   1.433
 8083CHOL    R594022   2.239  22.950   1.339
 8083CHOL    C194023   2.348  22.770   1.454
 8083CHOL    C294024   2.458  22.590   1.569
 8084CHOL   ROH94025  24.829   0.243  10.305
 8084CHOL    R194026  24.694   0.329  10.305
 8084CHOL    R294027  24.700   0.561  10.285
 8084CHOL    R394028  24.542   0.426  10.306
 8084CHOL    R494029  24.582   0.637  10.285
 8084CHOL    R594030  24.407   0.512  10.306
 8084CHOL    C194031  24.205   0.641  10.306
 8084CHOL    C294032  24.003   0.770  10.307
 8085CHOL   ROH94033   5.083  23.251  -0.963
 8085CHOL    R194034   5.123  23.130  -0.866
 8085CHOL    R294035   5.227  23.170  -0.661
 8085CHOL    R394036   5.169  22.994  -0.758
 8085CHOL    R494037   5.262  23.064  -0.577
 8085CHOL    R594038   5.210  22.873  -0.661
 8085CHOL    C194039   5.270  22.692  -0.516
 8085CHOL    C294040   5.331  22.510  -0.371
 8086CHOL   ROH94041  -6.801   3.774  11.232
 8086CHOL    R194042  -6.651   3.829  11.219
 8086CHOL    R294043  -6.469   3.684  11.231
 8086CHOL    R394044  -6.483   3.891  11.205
 8086CHOL    R494045  -6.338   3.732  11.220
 8086CHOL    R594046  -6.333   3.946  11.192
 8086CHOL    C194047  -6.109   4.029  11.173
 8086CHOL    C294048  -5.885   4.111  11.154
 8087CHOL   ROH94049  -6.113  17.632  12.288
 8087CHOL    R194050  -5.970  17.564  12.267
 8087CHOL    R294051  -5.859  17.461  12.444
 8087CHOL    R394052  -5.808  17.488  12.243
 8087CHOL    R494053  -5.733  17.402  12.426
 8087CHOL    R594054  -5.665  17.420  12.222
 8087CHOL    C194055  -5.450  17.318  12.191
 8087CHOL    C294056  -5.235  17.216  12.160
 8088CHOL   ROH94057   7.896  -4.112  20.731
 8088CHOL    R194058   7.914  -3.986  20.635
 8088CHOL    R294059   8.121  -3.933  20.542
 8088CHOL    R394060   7.933  -3.843  20.526
 8088CHOL    R494061   8.137  -3.822  20.458
 8088CHOL    R594062   7.951  -3.717  20.429
 8088CHOL    C194063   7.977  -3.527  20.285
 8088CHOL    C294064   8.004  -3.338  20.140
 8089CHOL   ROH94065   5.777  -7.074  13.297
 8089CHOL    R194066   5.814  -6.921  13.268
 8089CHOL    R294067   5.909  -6.788  13.434
 8089CHOL    R394068   5.856  -6.749  13.236
 8089CHOL    R494069   5.942  -6.654  13.409
 8089CHOL    R594070   5.894  -6.596  13.207
 8089CHOL    C194071   5.949  -6.367  13.164
 8089CHOL    C294072   6.005  -6.137  13.121
 8090CHOL   ROH94073   0.621   2.776  23.310
 8090CHOL    R194074   0.708   2.838  23.191
 8090CHOL    R294075   0.941   2.828  23.196
 8090CHOL    R394076   0.806   2.908  23.057
 8090CHOL    R494077   1.017   2.883  23.092
 8090CHOL    R594078   0.893   2.970  22.938
 8090CHOL    C194079   1.024   3.063  22.760
 8090CHOL    C294080   1.155   3.156  22.582
 8091CHOL   ROH94081  -4.055  16.804  18.884
 8091CHOL    R194082  -3.932  16.740  18.804
 8091CHOL    R294083  -3.854  16.526  18.855
 8091CHOL    R394084  -3.794  16.668  18.714
 8091CHOL    R494085  -3.746  16.471  18.784
 8091CHOL    R594086  -3.671  16.604  18.633
 8091CHOL    C194087  -3.487  16.509  18.513
 8091CHOL    C294088  -3.302  16.413  18.393
 8092CHOL   ROH94089  17.759  -5.923   8.295
 8092CHOL    R194090  17.689  -5.780   8.311
 8092CHOL    R294091  17.799  -5.585   8.245
 8092CHOL    R394092  17.611  -5.619   8.329
 8092CHOL    R494093  17.738  -5.460   8.259
 8092CHOL    R594094  17.541  -5.476   8.345
 8092CHOL    C194095  17.436  -5.261   8.368
 8092CHOL    C294096  17.332  -5.047   8.392
 8093CHOL   ROH94097   9.773  25.901   1.775
 8093CHOL    R194098   9.772  25.759   1.849
 8093CHOL    R294099   9.913  25.587   1.779
 8093CHOL    R394100   9.772  25.599   1.932
 8093CHOL    R494101   9.913  25.462   1.844
 8093CHOL    R594102   9.771  25.457   2.006
 8093CHOL    C194103   9.770  25.245   2.118
 8093CHOL    C294104   9.769  25.032   2.229
 8094CHOL   ROH94105  12.917   3.467  -6.407
 8094CHOL    R194106  12.891   3.524  -6.260
 8094CHOL    R294107  12.880   3.754  -6.221
 8094CHOL    R394108  12.863   3.589  -6.095
 8094CHOL    R494109  12.858   3.804  -6.093
 8094CHOL    R594110  12.837   3.647  -5.948
 8094CHOL    C194111  12.799   3.733  -5.727
 8094CHOL    C294112  12.760   3.819  -5.506
 8095CHOL   ROH94113   1.605  -1.627  20.719
 8095CHOL    R194114   1.679  -1.523  20.622
 8095CHOL    R294115   1.848  -1.384  20.702
 8095CHOL    R394116   1.762  -1.407  20.513
 8095CHOL    R494117   1.913  -1.293  20.617
 8095CHOL    R594118   1.836  -1.304  20.416
 8095CHOL    C194119   1.948  -1.148  20.271
 8095CHOL    C294120   2.059  -0.993  20.125
 8096CHOL   ROH94121   0.880  16.720  23.750
 8096CHOL    R194122   0.964  16.660  23.627
 8096CHOL    R294123   1.197  16.661  23.629
 8096CHOL    R394124   1.057  16.593  23.489
 8096CHOL    R494125   1.270  16.609  23.522
 8096CHOL    R594126   1.141  16.533  23.367
 8096CHOL    C194127   1.266  16.443  23.182
 8096CHOL    C294128   1.392  16.353  22.998
 8097CHOL   ROH94129  25.987   3.372  13.820
 8097CHOL    R194130  25.841   3.429  13.787
 8097CHOL    R294131  25.813   3.606  13.638
 8097CHOL    R394132  25.677   3.493  13.749
 8097CHOL    R494133  25.685   3.656  13.608
 8097CHOL    R594134  25.532   3.550  13.716
 8097CHOL    C194135  25.313   3.636  13.666
 8097CHOL    C294136  25.094   3.722  13.616
 8098CHOL   ROH94137  21.009  -2.347   3.355
 8098CHOL    R194138  20.909  -2.236   3.413
 8098CHOL    R294139  20.732  -2.155   3.285
 8098CHOL    R394140  20.796  -2.112   3.479
 8098CHOL    R494141  20.645  -2.058   3.336
 8098CHOL    R594142  20.696  -2.002   3.537
 8098CHOL    C194143  20.546  -1.836   3.624
 8098CHOL    C294144  20.396  -1.670   3.712
 8099CHOL   ROH94145  15.780  25.437  16.588
 8099CHOL    R194146  15.725  25.299  16.528
 8099CHOL    R294147  15.872  25.137  16.447
 8099CHOL    R394148  15.664  25.144  16.459
 8099CHOL    R494149  15.825  25.016  16.394
 8099CHOL    R594150  15.610  25.007  16.399
 8099CHOL    C194151  15.528  24.800  16.308
 8099CHOL    C294152  15.446  24.593  16.218
 8100CHOL   ROH94153  13.600  16.674  25.989
 8100CHOL    R194154  13.569  16.614  25.844
 8100CHOL    R294155  13.641  16.400  25.785
 8100CHOL    R394156  13.534  16.546  25.681
 8100CHOL    R494157  13.614  16.347  25.658
 8100CHOL    R594158  13.504  16.486  25.536
 8100CHOL    C194159  13.457  16.396  25.319
 8100CHOL    C294160  13.411  16.306  25.101
 8101CHOL   ROH94161   2.514  25.040   3.843
 8101CHOL    R194162   2.586  24.908   3.897
 8101CHOL    R294163   2.810  24.912   3.963
 8101CHOL    R394164   2.668  24.759   3.957
 8101CHOL    R494165   2.873  24.796   4.010
 8101CHOL    R594166   2.740  24.627   4.011
 8101CHOL    C194167   2.848  24.429   4.092
 8101CHOL    C294168   2.957  24.231   4.172
 8102CHOL   ROH94169  -4.039  18.185  17.593
 8102CHOL    R194170  -3.915  18.110  17.525
 8102CHOL    R294171  -3.851  17.897  17.595
 8102CHOL    R394172  -3.775  18.026  17.449
 8102CHOL    R494173  -3.742  17.831  17.536
 8102CHOL    R594174  -3.651  17.951  17.381
 8102CHOL    C194175  -3.465  17.839  17.279
 8102CHOL    C294176  -3.279  17.726  17.177
 8103CHOL   ROH94177   4.509  -4.419   0.782
 8103CHOL    R194178   4.554  -4.289   0.864
 8103CHOL    R294179   4.705  -4.137   0.774
 8103CHOL    R394180   4.605  -4.144   0.957
 8103CHOL    R494181   4.745  -4.023   0.846
 8103CHOL    R594182   4.649  -4.014   1.039
 8103CHOL    C194183   4.717  -3.820   1.163
 8103CHOL    C294184   4.784  -3.625   1.287
 8104CHOL   ROH94185  16.456  -2.407  -1.092
 8104CHOL    R194186  16.400  -2.295  -0.992
 8104CHOL    R294187  16.265  -2.122  -1.070
 8104CHOL    R394188  16.337  -2.169  -0.880
 8104CHOL    R494189  16.215  -2.024  -0.983
 8104CHOL    R594190  16.280  -2.057  -0.781
 8104CHOL    C194191  16.196  -1.890  -0.631
 8104CHOL    C294192  16.112  -1.722  -0.481
 8105CHOL   ROH94193  25.884   3.706   5.103
 8105CHOL    R194194  25.740   3.762   5.142
 8105CHOL    R294195  25.714   3.978   5.228
 8105CHOL    R394196  25.577   3.826   5.187
 8105CHOL    R494197  25.588   4.027   5.262
 8105CHOL    R594198  25.432   3.882   5.226
 8105CHOL    C194199  25.216   3.967   5.285
 8105CHOL    C294200  24.999   4.052   5.344
 8106CHOL   ROH94201  -2.470  -1.917   4.911
 8106CHOL    R194202  -2.357  -1.812   4.953
 8106CHOL    R294203  -2.301  -1.779   5.177
 8106CHOL    R394204  -2.230  -1.693   5.000
 8106CHOL    R494205  -2.202  -1.686   5.214
 8106CHOL    R594206  -2.117  -1.588   5.042
 8106CHOL    C194207  -1.948  -1.430   5.106
 8106CHOL    C294208  -1.778  -1.272   5.169
 8107CHOL   ROH94209   1.117  11.208  25.489
 8107CHOL    R194210   1.194  11.193  25.349
 8107CHOL    R294211   1.376  11.049  25.328
 8107CHOL    R394212   1.280  11.176  25.193
 8107CHOL    R494213   1.444  11.036  25.206
 8107CHOL    R594214   1.357  11.161  25.053
 8107CHOL    C194215   1.472  11.138  24.844
 8107CHOL    C294216   1.587  11.116  24.634
 8108CHOL   ROH94217   2.061  -0.241  -2.338
 8108CHOL    R194218   2.132  -0.148  -2.229
 8108CHOL    R294219   2.363  -0.116  -2.229
 8108CHOL    R394220   2.211  -0.042  -2.106
 8108CHOL    R494221   2.424  -0.035  -2.134
 8108CHOL    R594222   2.282   0.051  -1.998
 8108CHOL    C194223   2.387   0.191  -1.834
 8108CHOL    C294224   2.493   0.331  -1.671
 8109CHOL   ROH94225  19.319  24.911   7.726
 8109CHOL    R194226  19.237  24.775   7.742
 8109CHOL    R294227  19.327  24.571   7.672
 8109CHOL    R394228  19.145  24.621   7.760
 8109CHOL    R494229  19.256  24.452   7.686
 8109CHOL    R594230  19.063  24.485   7.776
 8109CHOL    C194231  18.939  24.280   7.800
 8109CHOL    C294232  18.816  24.075   7.824
 8110CHOL   ROH94233  14.454  14.014  -6.837
 8110CHOL    R194234  14.414  13.977  -6.687
 8110CHOL    R294235  14.205  13.886  -6.637
 8110CHOL    R394236  14.370  13.935  -6.517
 8110CHOL    R494237  14.171  13.853  -6.505
 8110CHOL    R594238  14.330  13.897  -6.367
 8110CHOL    C194239  14.270  13.842  -6.141
 8110CHOL    C294240  14.211  13.786  -5.916
 8111CHOL   ROH94241   8.716  12.625  27.530
 8111CHOL    R194242   8.734  12.603  27.373
 8111CHOL    R294243   8.793  12.394  27.287
 8111CHOL    R394244   8.754  12.578  27.195
 8111CHOL    R494245   8.809  12.375  27.149
 8111CHOL    R594246   8.772  12.556  27.038
 8111CHOL    C194247   8.800  12.523  26.802
 8111CHOL    C294248   8.827  12.490  26.566
 8112CHOL   ROH94249  -1.044  20.600  19.294
 8112CHOL    R194250  -0.945  20.506  19.210
 8112CHOL    R294251  -0.726  20.574  19.164
 8112CHOL    R394252  -0.834  20.401  19.116
 8112CHOL    R494253  -0.640  20.492  19.091
 8112CHOL    R594254  -0.735  20.307  19.032
 8112CHOL    C194255  -0.586  20.167  18.906
 8112CHOL    C294256  -0.437  20.027  18.780
 8113CHOL   ROH94257  17.651  -5.173   4.754
 8113CHOL    R194258  17.582  -5.037   4.801
 8113CHOL    R294259  17.706  -4.870   4.908
 8113CHOL    R394260  17.504  -4.883   4.854
 8113CHOL    R494261  17.646  -4.751   4.949
 8113CHOL    R594262  17.435  -4.746   4.901
 8113CHOL    C194263  17.332  -4.542   4.972
 8113CHOL    C294264  17.229  -4.337   5.042
 8114CHOL   ROH94265   5.847  27.417   9.564
 8114CHOL    R194266   5.881  27.261   9.568
 8114CHOL    R294267   5.974  27.164   9.759
 8114CHOL    R394268   5.920  27.085   9.574
 8114CHOL    R494269   6.004  27.027   9.763
 8114CHOL    R594270   5.954  26.929   9.578
 8114CHOL    C194271   6.005  26.695   9.585
 8114CHOL    C294272   6.057  26.461   9.591
 8115CHOL   ROH94273  22.925   2.033  19.194
 8115CHOL    R194274  22.811   2.101  19.105
 8115CHOL    R294275  22.693   1.977  18.946
 8115CHOL    R394276  22.682   2.177  19.004
 8115CHOL    R494277  22.594   2.036  18.867
 8115CHOL    R594278  22.568   2.245  18.915
 8115CHOL    C194279  22.397   2.346  18.781
 8115CHOL    C294280  22.225   2.448  18.647
 8116CHOL   ROH94281  10.381  13.539  -7.556
 8116CHOL    R194282  10.375  13.506  -7.400
 8116CHOL    R294283  10.500  13.330  -7.309
 8116CHOL    R394284  10.369  13.469  -7.223
 8116CHOL    R494285  10.494  13.301  -7.172
 8116CHOL    R594286  10.363  13.435  -7.067
 8116CHOL    C194287  10.354  13.386  -6.832
 8116CHOL    C294288  10.346  13.336  -6.598
 8117CHOL   ROH94289   9.672  -1.371  -3.863
 8117CHOL    R194290   9.671  -1.270  -3.739
 8117CHOL    R294291   9.806  -1.307  -3.553
 8117CHOL    R394292   9.670  -1.156  -3.600
 8117CHOL    R494293   9.806  -1.218  -3.445
 8117CHOL    R594294   9.670  -1.054  -3.476
 8117CHOL    C194295   9.668  -0.903  -3.290
 8117CHOL    C294296   9.667  -0.751  -3.104
 8118CHOL   ROH94297  24.333   5.245   0.545
 8118CHOL    R194298  24.204   5.287   0.630
 8118CHOL    R294299  24.042   5.428   0.541
 8118CHOL    R394300  24.059   5.334   0.726
 8118CHOL    R494301  23.929   5.465   0.615
 8118CHOL    R594302  23.931   5.376   0.811
 8118CHOL    C194303  23.737   5.438   0.939
 8118CHOL    C294304  23.544   5.501   1.066
 8119CHOL   ROH94305  14.619  -0.883  -3.399
 8119CHOL    R194306  14.577  -0.784  -3.280
 8119CHOL    R294307  14.699  -0.589  -3.238
 8119CHOL    R394308  14.531  -0.672  -3.147
 8119CHOL    R494309  14.663  -0.503  -3.135
 8119CHOL    R594310  14.489  -0.573  -3.028
 8119CHOL    C194311  14.427  -0.424  -2.851
 8119CHOL    C294312  14.364  -0.275  -2.673
 8120CHOL   ROH94313   6.450  -2.766  21.967
 8120CHOL    R194314   6.481  -2.651  21.860
 8120CHOL    R294315   6.526  -2.705  21.637
 8120CHOL    R394316   6.516  -2.523  21.739
 8120CHOL    R494317   6.553  -2.604  21.543
 8120CHOL    R594318   6.547  -2.408  21.632
 8120CHOL    C194319   6.594  -2.236  21.471
 8120CHOL    C294320   6.640  -2.064  21.310
 8121CHOL   ROH94321  -6.930  10.945  15.950
 8121CHOL    R194322  -6.778  10.942  15.898
 8121CHOL    R294323  -6.636  11.123  15.935
 8121CHOL    R394324  -6.608  10.939  15.841
 8121CHOL    R494325  -6.503  11.121  15.890
 8121CHOL    R594326  -6.456  10.936  15.789
 8121CHOL    C194327  -6.229  10.932  15.712
 8121CHOL    C294328  -6.002  10.928  15.634
 8122CHOL   ROH94329  11.815  -7.363  13.650
 8122CHOL    R194330  11.798  -7.207  13.618
 8122CHOL    R294331  11.963  -7.091  13.500
 8122CHOL    R394332  11.780  -7.032  13.581
 8122CHOL    R494333  11.948  -6.954  13.472
 8122CHOL    R594334  11.763  -6.876  13.549
 8122CHOL    C194335  11.738  -6.642  13.501
 8122CHOL    C294336  11.713  -6.408  13.452
 8123CHOL   ROH94337  14.846  -7.182  10.469
 8123CHOL    R194338  14.799  -7.029  10.464
 8123CHOL    R294339  14.915  -6.864  10.581
 8123CHOL    R394340  14.747  -6.857  10.458
 8123CHOL    R494341  14.875  -6.730  10.576
 8123CHOL    R594342  14.700  -6.704  10.452
 8123CHOL    C194343  14.630  -6.475  10.445
 8123CHOL    C294344  14.560  -6.245  10.437
 8124CHOL   ROH94345  24.573  -0.119  10.955
 8124CHOL    R194346  24.441  -0.030  10.947
 8124CHOL    R294347  24.450   0.202  10.977
 8124CHOL    R394348  24.291   0.071  10.939
 8124CHOL    R494349  24.334   0.280  10.970
 8124CHOL    R594350  24.159   0.161  10.931
 8124CHOL    C194351  23.960   0.295  10.919
 8124CHOL    C294352  23.762   0.429  10.908
 8125CHOL   ROH94353  20.907  11.283  -4.027
 8125CHOL    R194354  20.809  11.271  -3.901
 8125CHOL    R294355  20.774  11.066  -3.795
 8125CHOL    R394356  20.698  11.258  -3.760
 8125CHOL    R494357  20.689  11.056  -3.685
 8125CHOL    R594358  20.600  11.246  -3.634
 8125CHOL    C194359  20.453  11.228  -3.445
 8125CHOL    C294360  20.305  11.210  -3.257
 8126CHOL   ROH94361   8.073   4.808  26.864
 8126CHOL    R194362   8.092   4.858  26.713
 8126CHOL    R294363   8.137   4.707  26.541
 8126CHOL    R394364   8.114   4.914  26.544
 8126CHOL    R494365   8.154   4.751  26.409
 8126CHOL    R594366   8.134   4.964  26.393
 8126CHOL    C194367   8.163   5.040  26.167
 8126CHOL    C294368   8.192   5.115  25.941
 8127CHOL   ROH94369  -4.171  17.004   1.455
 8127CHOL    R194370  -4.043  16.940   1.527
 8127CHOL    R294371  -3.955  17.034   1.721
 8127CHOL    R394372  -3.899  16.868   1.607
 8127CHOL    R494373  -3.843  16.978   1.784
 8127CHOL    R594374  -3.771  16.805   1.679
 8127CHOL    C194375  -3.579  16.709   1.787
 8127CHOL    C294376  -3.387  16.613   1.894
 8128CHOL   ROH94377  23.116   1.702  18.660
 8128CHOL    R194378  22.998   1.773  18.579
 8128CHOL    R294379  22.979   2.005  18.574
 8128CHOL    R394380  22.864   1.853  18.488
 8128CHOL    R494381  22.875   2.067  18.503
 8128CHOL    R594382  22.746   1.924  18.407
 8128CHOL    C194383  22.568   2.031  18.286
 8128CHOL    C294384  22.391   2.137  18.165
 8129CHOL   ROH94385  18.821  18.723  -2.795
 8129CHOL    R194386  18.741  18.647  -2.679
 8129CHOL    R294387  18.510  18.616  -2.694
 8129CHOL    R394388  18.650  18.561  -2.550
 8129CHOL    R494389  18.440  18.549  -2.593
 8129CHOL    R594390  18.570  18.485  -2.434
 8129CHOL    C194391  18.450  18.371  -2.261
 8129CHOL    C294392  18.329  18.257  -2.087
 8130CHOL   ROH94393   5.267  -7.164  11.826
 8130CHOL    R194394   5.309  -7.010  11.809
 8130CHOL    R294395   5.348  -6.876  11.995
 8130CHOL    R394396   5.355  -6.838  11.790
 8130CHOL    R494397   5.384  -6.741  11.981
 8130CHOL    R594398   5.397  -6.684  11.773
 8130CHOL    C194399   5.459  -6.454  11.748
 8130CHOL    C294400   5.522  -6.223  11.723
 8131CHOL   ROH94401   4.032  13.754  26.345
 8131CHOL    R194402   4.081  13.727  26.195
 8131CHOL    R294403   4.219  13.880  26.085
 8131CHOL    R394404   4.137  13.698  26.026
 8131CHOL    R494405   4.262  13.857  25.954
 8131CHOL    R594406   4.186  13.671  25.877
 8131CHOL    C194407   4.260  13.631  25.652
 8131CHOL    C294408   4.334  13.591  25.427
 8132CHOL   ROH94409  -3.099  19.024   1.599
 8132CHOL    R194410  -2.982  18.944   1.673
 8132CHOL    R294411  -2.940  18.975   1.900
 8132CHOL    R394412  -2.849  18.855   1.756
 8132CHOL    R494413  -2.838  18.906   1.965
 8132CHOL    R594414  -2.732  18.776   1.830
 8132CHOL    C194415  -2.556  18.656   1.941
 8132CHOL    C294416  -2.380  18.537   2.052
 8133CHOL   ROH94417  18.215  19.695  -2.527
 8133CHOL    R194418  18.139  19.610  -2.415
 8133CHOL    R294419  18.254  19.461  -2.278
 8133CHOL    R394420  18.052  19.514  -2.290
 8133CHOL    R494421  18.187  19.386  -2.180
 8133CHOL    R594422  17.976  19.428  -2.178
 8133CHOL    C194423  17.861  19.301  -2.010
 8133CHOL    C294424  17.747  19.173  -1.843
 8134CHOL   ROH94425   0.310  25.017   9.887
 8134CHOL    R194426   0.396  24.882   9.893
 8134CHOL    R294427   0.593  24.859   9.770
 8134CHOL    R394428   0.493  24.730   9.901
 8134CHOL    R494429   0.668  24.741   9.776
 8134CHOL    R594430   0.579  24.595   9.907
 8134CHOL    C194431   0.707  24.393   9.917
 8134CHOL    C294432   0.836  24.191   9.926
 8135CHOL   ROH94433  -5.352   1.944   5.261
 8135CHOL    R194434  -5.214   2.015   5.300
 8135CHOL    R294435  -5.109   1.971   5.504
 8135CHOL    R394436  -5.059   2.095   5.344
 8135CHOL    R494437  -4.989   2.033   5.538
 8135CHOL    R594438  -4.921   2.166   5.382
 8135CHOL    C194439  -4.714   2.273   5.441
 8135CHOL    C294440  -4.507   2.380   5.499
 8136CHOL   ROH94441  20.583  -3.529   5.301
 8136CHOL    R194442  20.487  -3.408   5.343
 8136CHOL    R294443  20.358  -3.297   5.183
 8136CHOL    R394444  20.380  -3.271   5.389
 8136CHOL    R494445  20.274  -3.191   5.220
 8136CHOL    R594446  20.284  -3.150   5.431
 8136CHOL    C194447  20.140  -2.968   5.493
 8136CHOL    C294448  19.997  -2.786   5.556
 8137CHOL   ROH94449  12.438  17.002  26.069
 8137CHOL    R194450  12.414  16.941  25.923
 8137CHOL    R294451  12.549  16.770  25.840
 8137CHOL    R394452  12.386  16.872  25.759
 8137CHOL    R494453  12.528  16.716  25.713
 8137CHOL    R594454  12.362  16.811  25.613
 8137CHOL    C194455  12.326  16.720  25.394
 8137CHOL    C294456  12.289  16.629  25.175
 8138CHOL   ROH94457  24.553  19.463  13.502
 8138CHOL    R194458  24.422  19.377  13.470
 8138CHOL    R294459  24.337  19.365  13.253
 8138CHOL    R394460  24.274  19.281  13.433
 8138CHOL    R494461  24.222  19.290  13.225
 8138CHOL    R594462  24.143  19.196  13.401
 8138CHOL    C194463  23.946  19.067  13.353
 8138CHOL    C294464  23.749  18.939  13.304
 8139CHOL   ROH94465  14.502  26.074  16.136
 8139CHOL    R194466  14.459  25.931  16.079
 8139CHOL    R294467  14.549  25.849  15.880
 8139CHOL    R394468  14.411  25.769  16.016
 8139CHOL    R494469  14.511  25.723  15.831
 8139CHOL    R594470  14.369  25.626  15.959
 8139CHOL    C194471  14.304  25.411  15.874
 8139CHOL    C294472  14.240  25.196  15.789
 8140CHOL   ROH94473  27.038  14.706   8.576
 8140CHOL    R194474  26.885  14.660   8.589
 8140CHOL    R294475  26.765  14.591   8.401
 8140CHOL    R394476  26.713  14.609   8.603
 8140CHOL    R494477  26.631  14.551   8.412
 8140CHOL    R594478  26.560  14.563   8.615
 8140CHOL    C194479  26.331  14.494   8.634
 8140CHOL    C294480  26.102  14.426   8.653
 8141CHOL   ROH94481   2.825  17.437  -4.686
 8141CHOL    R194482   2.888  17.371  -4.554
 8141CHOL    R294483   2.956  17.503  -4.375
 8141CHOL    R394484   2.959  17.297  -4.407
 8141CHOL    R494485   3.011  17.446  -4.260
 8141CHOL    R594486   3.022  17.231  -4.275
 8141CHOL    C194487   3.117  17.132  -4.078
 8141CHOL    C294488   3.211  17.033  -3.880
 8142CHOL   ROH94489  21.341   1.686  20.746
 8142CHOL    R194490  21.238   1.758  20.647
 8142CHOL    R294491  21.312   1.919  20.495
 8142CHOL    R394492  21.123   1.840  20.535
 8142CHOL    R494493  21.222   1.983  20.408
 8142CHOL    R594494  21.020   1.913  20.436
 8142CHOL    C194495  20.867   2.021  20.287
 8142CHOL    C294496  20.713   2.130  20.138
 8143CHOL   ROH94497  -6.823  12.274   4.153
 8143CHOL    R194498  -6.672  12.253   4.203
 8143CHOL    R294499  -6.620  12.258   4.430
 8143CHOL    R394500  -6.503  12.229   4.259
 8143CHOL    R494501  -6.488  12.240   4.474
 8143CHOL    R594502  -6.353  12.209   4.309
 8143CHOL    C194503  -6.127  12.177   4.384
 8143CHOL    C294504  -5.901  12.146   4.459
 8144CHOL   ROH94505  11.691  23.821  21.026
 8144CHOL    R194506  11.670  23.698  20.926
 8144CHOL    R294507  11.724  23.480  20.991
 8144CHOL    R394508  11.646  23.559  20.814
 8144CHOL    R494509  11.706  23.373  20.903
 8144CHOL    R594510  11.625  23.436  20.714
 8144CHOL    C194511  11.593  23.251  20.564
 8144CHOL    C294512  11.562  23.066  20.414
 8145CHOL   ROH94513  11.213  19.008  25.292
 8145CHOL    R194514  11.196  18.929  25.154
 8145CHOL    R294515  11.382  18.846  25.040
 8145CHOL    R394516  11.178  18.841  24.998
 8145CHOL    R494517  11.368  18.777  24.919
 8145CHOL    R594518  11.161  18.762  24.860
 8145CHOL    C194519  11.136  18.644  24.653
 8145CHOL    C294520  11.111  18.526  24.445
 8146CHOL   ROH94521  23.819  16.121  19.327
 8146CHOL    R194522  23.695  16.067  19.241
 8146CHOL    R294523  23.593  16.202  19.080
 8146CHOL    R394524  23.557  16.007  19.144
 8146CHOL    R494525  23.485  16.155  19.005
 8146CHOL    R594526  23.433  15.953  19.057
 8146CHOL    C194527  23.248  15.872  18.928
 8146CHOL    C294528  23.062  15.792  18.799
 8147CHOL   ROH94529   6.059   9.445  27.318
 8147CHOL    R194530   6.093   9.442  27.162
 8147CHOL    R294531   6.306   9.497  27.084
 8147CHOL    R394532   6.131   9.440  26.986
 8147CHOL    R494533   6.336   9.495  26.947
 8147CHOL    R594534   6.165   9.437  26.830
 8147CHOL    C194535   6.216   9.433  26.595
 8147CHOL    C294536   6.267   9.429  26.361
 8148CHOL   ROH94537   9.947  -7.840   9.829
 8148CHOL    R194538   9.948  -7.680   9.829
 8148CHOL    R294539  10.120  -7.561   9.726
 8148CHOL    R394540   9.949  -7.500   9.830
 8148CHOL    R494541  10.121  -7.421   9.726
 8148CHOL    R594542   9.950  -7.340   9.830
 8148CHOL    C194543   9.951  -7.100   9.830
 8148CHOL    C294544   9.953  -6.860   9.831
 8149CHOL   ROH94545   1.402   7.605  25.537
 8149CHOL    R194546   1.479   7.631  25.399
 8149CHOL    R294547   1.537   7.847  25.333
 8149CHOL    R394548   1.565   7.660  25.244
 8149CHOL    R494549   1.604   7.870  25.212
 8149CHOL    R594550   1.642   7.687  25.106
 8149CHOL    C194551   1.757   7.726  24.899
 8149CHOL    C294552   1.872   7.765  24.692
 8150CHOL   ROH94553  -1.333   6.524  23.365
 8150CHOL    R194554  -1.234   6.559  23.245
 8150CHOL    R294555  -1.009   6.607  23.284
 8150CHOL    R394556  -1.122   6.598  23.109
 8150CHOL    R494557  -0.922   6.637  23.179
 8150CHOL    R594558  -1.022   6.634  22.989
 8150CHOL    C194559  -0.873   6.686  22.808
 8150CHOL    C294560  -0.724   6.739  22.627
 8151CHOL   ROH94561   4.254  22.477  21.349
 8151CHOL    R194562   4.302  22.365  21.245
 8151CHOL    R294563   4.455  22.414  21.077
 8151CHOL    R394564   4.355  22.238  21.129
 8151CHOL    R494565   4.497  22.316  20.987
 8151CHOL    R594566   4.403  22.126  21.026
 8151CHOL    C194567   4.474  21.958  20.870
 8151CHOL    C294568   4.545  21.789  20.715
 8152CHOL   ROH94569   8.880  27.742  11.432
 8152CHOL    R194570   8.886  27.583  11.420
 8152CHOL    R294571   9.079  27.475  11.346
 8152CHOL    R394572   8.892  27.403  11.406
 8152CHOL    R494573   9.084  27.335  11.336
 8152CHOL    R594574   8.898  27.244  11.394
 8152CHOL    C194575   8.906  27.005  11.375
 8152CHOL    C294576   8.914  26.766  11.357
 8153CHOL   ROH94577   1.803  25.202  14.535
 8153CHOL    R194578   1.876  25.066  14.492
 8153CHOL    R294579   2.076  25.000  14.593
 8153CHOL    R394580   1.957  24.913  14.444
 8153CHOL    R494581   2.139  24.881  14.555
 8153CHOL    R594582   2.030  24.777  14.401
 8153CHOL    C194583   2.139  24.573  14.337
 8153CHOL    C294584   2.248  24.369  14.273
 8154CHOL   ROH94585  15.291  26.374   5.571
 8154CHOL    R194586  15.244  26.227   5.613
 8154CHOL    R294587  15.354  26.038   5.531
 8154CHOL    R394588  15.190  26.062   5.659
 8154CHOL    R494589  15.312  25.909   5.568
 8154CHOL    R594590  15.143  25.914   5.701
 8154CHOL    C194591  15.072  25.694   5.763
 8154CHOL    C294592  15.001  25.473   5.826
 8155CHOL   ROH94593   0.591   0.197  -1.672
 8155CHOL    R194594   0.673   0.286  -1.567
 8155CHOL    R294595   0.597   0.311  -1.347
 8155CHOL    R394596   0.764   0.385  -1.448
 8155CHOL    R494597   0.669   0.388  -1.255
 8155CHOL    R594598   0.846   0.474  -1.343
 8155CHOL    C194599   0.968   0.607  -1.185
 8155CHOL    C294600   1.091   0.740  -1.027
 8156CHOL   ROH94601  -1.148  23.353   5.872
 8156CHOL    R194602  -1.052  23.230   5.908
 8156CHOL    R294603  -0.821  23.260   5.924
 8156CHOL    R394604  -0.943  23.092   5.948
 8156CHOL    R494605  -0.737  23.152   5.956
 8156CHOL    R594606  -0.847  22.970   5.983
 8156CHOL    C194607  -0.703  22.785   6.037
 8156CHOL    C294608  -0.558  22.601   6.091
 8157CHOL   ROH94609  22.611  -2.279  12.316
 8157CHOL    R194610  22.497  -2.169  12.292
 8157CHOL    R294611  22.518  -2.011  12.121
 8157CHOL    R394612  22.369  -2.046  12.264
 8157CHOL    R494613  22.418  -1.915  12.100
 8157CHOL    R594614  22.256  -1.936  12.240
 8157CHOL    C194615  22.085  -1.771  12.204
 8157CHOL    C294616  21.914  -1.607  12.167
 8158CHOL   ROH94617  21.781  23.093   7.461
 8158CHOL    R194618  21.674  22.976   7.483
 8158CHOL    R294619  21.511  22.930   7.322
 8158CHOL    R394620  21.555  22.843   7.507
 8158CHOL    R494621  21.418  22.828   7.342
 8158CHOL    R594622  21.448  22.726   7.529
 8158CHOL    C194623  21.288  22.550   7.562
 8158CHOL    C294624  21.128  22.374   7.594
 8159CHOL   ROH94625  -6.910   5.175  13.561
 8159CHOL    R194626  -6.759   5.219  13.530
 8159CHOL    R294627  -6.617   5.290  13.701
 8159CHOL    R394628  -6.590   5.268  13.495
 8159CHOL    R494629  -6.486   5.328  13.674
 8159CHOL    R594630  -6.439   5.312  13.464
 8159CHOL    C194631  -6.213   5.378  13.417
 8159CHOL    C294632  -5.987   5.444  13.371
 8160CHOL   ROH94633   6.202  19.217  24.796
 8160CHOL    R194634   6.234  19.131  24.665
 8160CHOL    R294635   6.425  19.174  24.537
 8160CHOL    R394636   6.270  19.035  24.517
 8160CHOL    R494637   6.453  19.099  24.423
 8160CHOL    R594638   6.302  18.949  24.386
 8160CHOL    C194639   6.351  18.820  24.189
 8160CHOL    C294640   6.399  18.692  23.992
 8161CHOL   ROH94641  18.022   3.561  -4.574
 8161CHOL    R194642  17.947   3.616  -4.444
 8161CHOL    R294643  18.005   3.821  -4.350
 8161CHOL    R394644  17.863   3.677  -4.297
 8161CHOL    R494645  17.939   3.869  -4.236
 8161CHOL    R594646  17.788   3.732  -4.167
 8161CHOL    C194647  17.676   3.814  -3.971
 8161CHOL    C294648  17.563   3.896  -3.775
 8162CHOL   ROH94649  21.214  23.359   6.385
 8162CHOL    R194650  21.111  23.240   6.415
 8162CHOL    R294651  20.932  23.198   6.272
 8162CHOL    R394652  20.996  23.106   6.448
 8162CHOL    R494653  20.842  23.094   6.298
 8162CHOL    R594654  20.893  22.987   6.478
 8162CHOL    C194655  20.739  22.808   6.523
 8162CHOL    C294656  20.585  22.630   6.567
 8163CHOL   ROH94657   0.717   7.911  -5.268
 8163CHOL    R194658   0.801   7.926  -5.133
 8163CHOL    R294659   0.758   7.790  -4.949
 8163CHOL    R394660   0.896   7.944  -4.981
 8163CHOL    R494661   0.832   7.804  -4.831
 8163CHOL    R594662   0.980   7.959  -4.846
 8163CHOL    C194663   1.107   7.982  -4.643
 8163CHOL    C294664   1.233   8.005  -4.441
 8164CHOL   ROH94665  -0.146   9.944  -4.782
 8164CHOL    R194666  -0.055   9.942  -4.651
 8164CHOL    R294667  -0.130  10.034  -4.450
 8164CHOL    R394668   0.048   9.939  -4.503
 8164CHOL    R494669  -0.050  10.032  -4.335
 8164CHOL    R594670   0.139   9.936  -4.372
 8164CHOL    C194671   0.277   9.933  -4.174
 8164CHOL    C294672   0.414   9.929  -3.977
 8165CHOL   ROH94673  21.280  23.657   8.486
 8165CHOL    R194674  21.181  23.532   8.498
 8165CHOL    R294675  21.042  23.472   8.320
 8165CHOL    R394676  21.070  23.391   8.510
 8165CHOL    R494677  20.956  23.362   8.330
 8165CHOL    R594678  20.971  23.266   8.522
 8165CHOL    C194679  20.823  23.078   8.539
 8165CHOL    C294680  20.674  22.890   8.557
 8166CHOL   ROH94681   8.116   1.297  25.391
 8166CHOL    R194682   8.132   1.372  25.251
 8166CHOL    R294683   8.299   1.532  25.219
 8166CHOL    R394684   8.151   1.456  25.092
 8166CHOL    R494685   8.313   1.598  25.096
 8166CHOL    R594686   8.168   1.531  24.952
 8166CHOL    C194687   8.192   1.643  24.741
 8166CHOL    C294688   8.217   1.756  24.531
 8167CHOL   ROH94689   5.136  -2.216  22.096
 8167CHOL    R194690   5.178  -2.105  21.989
 8167CHOL    R294691   5.223  -1.886  22.055
 8167CHOL    R394692   5.226  -1.980  21.869
 8167CHOL    R494693   5.260  -1.789  21.961
 8167CHOL    R594694   5.268  -1.869  21.762
 8167CHOL    C194695   5.332  -1.702  21.601
 8167CHOL    C294696   5.396  -1.536  21.440
 8168CHOL   ROH94697  11.658  20.925  23.930
 8168CHOL    R194698  11.640  20.826  23.806
 8168CHOL    R294699  11.824  20.719  23.710
 8168CHOL    R394700  11.620  20.714  23.666
 8168CHOL    R494701  11.808  20.633  23.601
 8168CHOL    R594702  11.602  20.615  23.542
 8168CHOL    C194703  11.575  20.466  23.355
 8168CHOL    C294704  11.548  20.317  23.169
 8169CHOL   ROH94705   3.918  21.682  22.014
 8169CHOL    R194706   3.968  21.576  21.905
 8169CHOL    R294707   4.059  21.646  21.702
 8169CHOL    R394708   4.024  21.457  21.783
 8169CHOL    R494709   4.103  21.553  21.607
 8169CHOL    R594710   4.074  21.350  21.674
 8169CHOL    C194711   4.149  21.191  21.511
 8169CHOL    C294712   4.224  21.032  21.348
 8170CHOL   ROH94713  24.194   6.418  -0.141
 8170CHOL    R194714  24.066   6.448  -0.050
 8170CHOL    R294715  23.870   6.535  -0.144
 8170CHOL    R394716  23.921   6.482   0.051
 8170CHOL    R494717  23.758   6.561  -0.065
 8170CHOL    R594718  23.793   6.512   0.142
 8170CHOL    C194719  23.600   6.557   0.278
 8170CHOL    C294720  23.407   6.602   0.414
 8171CHOL   ROH94721  -1.464  14.816  -2.998
 8171CHOL    R194722  -1.365  14.775  -2.879
 8171CHOL    R294723  -1.445  14.740  -2.663
 8171CHOL    R394724  -1.254  14.729  -2.745
 8171CHOL    R494725  -1.358  14.704  -2.559
 8171CHOL    R594726  -1.155  14.688  -2.626
 8171CHOL    C194727  -1.006  14.627  -2.448
 8171CHOL    C294728  -0.857  14.565  -2.270
 8172CHOL   ROH94729   7.915  24.376  20.351
 8172CHOL    R194730   7.934  24.248  20.257
 8172CHOL    R294731   8.132  24.126  20.257
 8172CHOL    R394732   7.954  24.104  20.150
 8172CHOL    R494733   8.149  24.015  20.175
 8172CHOL    R594734   7.973  23.976  20.056
 8172CHOL    C194735   8.001  23.785  19.914
 8172CHOL    C294736   8.029  23.593  19.773
 8173CHOL   ROH94737   7.180   6.447  27.205
 8173CHOL    R194738   7.204   6.481  27.051
 8173CHOL    R294739   7.418   6.472  26.958
 8173CHOL    R394740   7.232   6.520  26.877
 8173CHOL    R494741   7.440   6.502  26.823
 8173CHOL    R594742   7.257   6.554  26.722
 8173CHOL    C194743   7.293   6.605  26.491
 8173CHOL    C294744   7.330   6.657  26.259
 8174CHOL   ROH94745  -3.381   7.518  -1.737
 8174CHOL    R194746  -3.261   7.536  -1.633
 8174CHOL    R294747  -3.249   7.724  -1.495
 8174CHOL    R394748  -3.126   7.556  -1.515
 8174CHOL    R494749  -3.144   7.740  -1.404
 8174CHOL    R594750  -3.006   7.574  -1.411
 8174CHOL    C194751  -2.826   7.601  -1.255
 8174CHOL    C294752  -2.646   7.628  -1.098
 8175CHOL   ROH94753   8.201  22.154  -2.976
 8175CHOL    R194754   8.215  22.044  -2.861
 8175CHOL    R294755   8.385  22.058  -2.701
 8175CHOL    R394756   8.231  21.920  -2.731
 8175CHOL    R494757   8.397  21.962  -2.600
 8175CHOL    R594758   8.245  21.810  -2.616
 8175CHOL    C194759   8.266  21.645  -2.442
 8175CHOL    C294760   8.287  21.480  -2.269
 8176CHOL   ROH94761  23.151  10.056  -1.913
 8176CHOL    R194762  23.029  10.053  -1.809
 8176CHOL    R294763  22.925  10.251  -1.742
 8176CHOL    R394764  22.892  10.051  -1.693
 8176CHOL    R494765  22.818  10.249  -1.651
 8176CHOL    R594766  22.770  10.048  -1.589
 8176CHOL    C194767  22.587  10.044  -1.433
 8176CHOL    C294768  22.404  10.040  -1.278
 8177CHOL   ROH94769  -0.371  -1.721  18.752
 8177CHOL    R194770  -0.280  -1.616  18.673
 8177CHOL    R294771  -0.065  -1.564  18.747
 8177CHOL    R394772  -0.177  -1.497  18.584
 8177CHOL    R494773   0.015  -1.472  18.678
 8177CHOL    R594774  -0.086  -1.392  18.506
 8177CHOL    C194775   0.051  -1.234  18.387
 8177CHOL    C294776   0.188  -1.076  18.269
 8178CHOL   ROH94777  13.061  26.147  16.827
 8178CHOL    R194778  13.032  26.003  16.765
 8178CHOL    R294779  13.198  25.885  16.651
 8178CHOL    R394780  12.999  25.840  16.695
 8178CHOL    R494781  13.172  25.759  16.596
 8178CHOL    R594782  12.970  25.696  16.633
 8178CHOL    C194783  12.926  25.479  16.540
 8178CHOL    C294784  12.882  25.262  16.447
 8179CHOL   ROH94785   9.776  -6.680  16.415
 8179CHOL    R194786   9.778  -6.531  16.356
 8179CHOL    R294787   9.867  -6.354  16.479
 8179CHOL    R394788   9.781  -6.364  16.289
 8179CHOL    R494789   9.868  -6.224  16.427
 8179CHOL    R594790   9.783  -6.216  16.230
 8179CHOL    C194791   9.786  -5.993  16.140
 8179CHOL    C294792   9.790  -5.770  16.051
 8180CHOL   ROH94793  10.790  -5.147   0.498
 8180CHOL    R194794  10.782  -5.011   0.583
 8180CHOL    R294795  10.767  -4.804   0.477
 8180CHOL    R394796  10.773  -4.859   0.678
 8180CHOL    R494797  10.760  -4.686   0.551
 8180CHOL    R594798  10.765  -4.723   0.763
 8180CHOL    C194799  10.753  -4.520   0.890
 8180CHOL    C294800  10.741  -4.317   1.017
 8181CHOL   ROH94801   5.033   5.566  26.515
 8181CHOL    R194802   5.069   5.609  26.365
 8181CHOL    R294803   5.279   5.697  26.313
 8181CHOL    R394804   5.110   5.657  26.197
 8181CHOL    R494805   5.311   5.735  26.182
 8181CHOL    R594806   5.147   5.700  26.047
 8181CHOL    C194807   5.201   5.764  25.822
 8181CHOL    C294808   5.255   5.829  25.598
 8182CHOL   ROH94809  20.357  24.225  12.434
 8182CHOL    R194810  20.262  24.098  12.411
 8182CHOL    R294811  20.323  23.927  12.265
 8182CHOL    R394812  20.155  23.955  12.386
 8182CHOL    R494813  20.240  23.816  12.245
 8182CHOL    R594814  20.060  23.828  12.363
 8182CHOL    C194815  19.918  23.638  12.329
 8182CHOL    C294816  19.776  23.448  12.295
 8183CHOL   ROH94817  24.267  18.803   4.243
 8183CHOL    R194818  24.137  18.721   4.288
 8183CHOL    R294819  24.135  18.488   4.285
 8183CHOL    R394820  23.991  18.630   4.339
 8183CHOL    R494821  24.021  18.417   4.324
 8183CHOL    R594822  23.861  18.548   4.383
 8183CHOL    C194823  23.665  18.426   4.451
 8183CHOL    C294824  23.470  18.303   4.518
 8184CHOL   ROH94825  -2.702  -1.798   5.250
 8184CHOL    R194826  -2.587  -1.694   5.290
 8184CHOL    R294827  -2.546  -1.642   5.514
 8184CHOL    R394828  -2.459  -1.577   5.335
 8184CHOL    R494829  -2.446  -1.550   5.549
 8184CHOL    R594830  -2.344  -1.472   5.376
 8184CHOL    C194831  -2.172  -1.316   5.436
 8184CHOL    C294832  -2.000  -1.160   5.496
 8185CHOL   ROH94833  15.908   5.665  -6.247
 8185CHOL    R194834  15.850   5.702  -6.102
 8185CHOL    R294835  15.662   5.838  -6.079
 8185CHOL    R394836  15.785   5.744  -5.940
 8185CHOL    R494837  15.612   5.870  -5.953
 8185CHOL    R594838  15.728   5.780  -5.795
 8185CHOL    C194839  15.641   5.836  -5.578
 8185CHOL    C294840  15.554   5.891  -5.361
 8186CHOL   ROH94841   2.285  24.107   2.147
 8186CHOL    R194842   2.357  23.982   2.215
 8186CHOL    R294843   2.496  24.009   2.400
 8186CHOL    R394844   2.438  23.840   2.292
 8186CHOL    R494845   2.559  23.900   2.460
 8186CHOL    R594846   2.510  23.715   2.360
 8186CHOL    C194847   2.618  23.527   2.462
 8186CHOL    C294848   2.726  23.339   2.564
 8187CHOL   ROH94849   8.735  -0.426  -4.561
 8187CHOL    R194850   8.743  -0.333  -4.431
 8187CHOL    R294851   8.884  -0.387  -4.253
 8187CHOL    R394852   8.751  -0.228  -4.285
 8187CHOL    R494853   8.890  -0.305  -4.140
 8187CHOL    R594854   8.759  -0.135  -4.155
 8187CHOL    C194855   8.770   0.004  -3.960
 8187CHOL    C294856   8.781   0.143  -3.765
 8188CHOL   ROH94857   8.068  24.582  -0.113
 8188CHOL    R194858   8.085  24.453  -0.020
 8188CHOL    R294859   8.157  24.472   0.201
 8188CHOL    R394860   8.105  24.307   0.084
 8188CHOL    R494861   8.172  24.359   0.282
 8188CHOL    R594862   8.122  24.178   0.177
 8188CHOL    C194863   8.149  23.984   0.315
 8188CHOL    C294864   8.175  23.790   0.454
 8189CHOL   ROH94865  11.839  -2.577  22.331
 8189CHOL    R194866  11.817  -2.463  22.221
 8189CHOL    R294867  11.967  -2.436  22.044
 8189CHOL    R394868  11.792  -2.335  22.097
 8189CHOL    R494869  11.947  -2.336  21.948
 8189CHOL    R594870  11.770  -2.220  21.988
 8189CHOL    C194871  11.736  -2.049  21.823
 8189CHOL    C294872  11.703  -1.878  21.658
 8190CHOL   ROH94873  15.632  -1.011  22.727
 8190CHOL    R194874  15.583  -0.910  22.613
 8190CHOL    R294875  15.573  -0.680  22.653
 8190CHOL    R394876  15.529  -0.796  22.485
 8190CHOL    R494877  15.531  -0.592  22.553
 8190CHOL    R594878  15.480  -0.695  22.371
 8190CHOL    C194879  15.407  -0.543  22.200
 8190CHOL    C294880  15.334  -0.391  22.029
 8191CHOL   ROH94881   3.115   8.869  -6.573
 8191CHOL    R194882   3.175   8.878  -6.425
 8191CHOL    R294883   3.197   8.688  -6.292
 8191CHOL    R394884   3.243   8.889  -6.259
 8191CHOL    R494885   3.250   8.696  -6.163
 8191CHOL    R594886   3.303   8.899  -6.111
 8191CHOL    C194887   3.393   8.913  -5.889
 8191CHOL    C294888   3.483   8.927  -5.667
 8192CHOL   ROH94889  -1.091   3.167  22.150
 8192CHOL    R194890  -0.994   3.226  22.038
 8192CHOL    R294891  -0.790   3.122  21.989
 8192CHOL    R394892  -0.884   3.292  21.911
 8192CHOL    R494893  -0.705   3.174  21.891
 8192CHOL    R594894  -0.787   3.351  21.799
 8192CHOL    C194895  -0.640   3.439  21.631
 8192CHOL    C294896  -0.494   3.528  21.462
 8193CHOL   ROH94897  10.587  27.471   6.464
 8193CHOL    R194898  10.579  27.314   6.496
 8193CHOL    R294899  10.669  27.227   6.693
 8193CHOL    R394900  10.571  27.138   6.531
 8193CHOL    R494901  10.662  27.090   6.720
 8193CHOL    R594902  10.564  26.981   6.562
 8193CHOL    C194903  10.552  26.747   6.610
 8193CHOL    C294904  10.541  26.512   6.657
 8194CHOL   ROH94905  -1.388  23.715  12.287
 8194CHOL    R194906  -1.287  23.592  12.268
 8194CHOL    R294907  -1.056  23.624  12.282
 8194CHOL    R394908  -1.173  23.455  12.247
 8194CHOL    R494909  -0.967  23.517  12.265
 8194CHOL    R594910  -1.071  23.332  12.228
 8194CHOL    C194911  -0.920  23.148  12.200
 8194CHOL    C294912  -0.768  22.964  12.172
 8195CHOL   ROH94913  27.029  14.728  11.181
 8195CHOL    R194914  26.875  14.687  11.167
 8195CHOL    R294915  26.788  14.616  10.962
 8195CHOL    R394916  26.702  14.640  11.151
 8195CHOL    R494917  26.654  14.580  10.950
 8195CHOL    R594918  26.548  14.599  11.137
 8195CHOL    C194919  26.317  14.537  11.115
 8195CHOL    C294920  26.086  14.475  11.094
 8196CHOL   ROH94921  24.317   8.885  -0.407
 8196CHOL    R194922  24.187   8.891  -0.313
 8196CHOL    R294923  23.980   8.819  -0.391
 8196CHOL    R394924  24.042   8.897  -0.208
 8196CHOL    R494925  23.866   8.824  -0.309
 8196CHOL    R594926  23.912   8.903  -0.114
 8196CHOL    C194927  23.718   8.911   0.027
 8196CHOL    C294928  23.523   8.919   0.167
 8197CHOL   ROH94929  -6.965  15.897  10.922
 8197CHOL    R194930  -6.814  15.844  10.912
 8197CHOL    R294931  -6.753  15.640  11.007
 8197CHOL    R394932  -6.645  15.784  10.901
 8197CHOL    R494933  -6.621  15.593  10.998
 8197CHOL    R594934  -6.495  15.731  10.891
 8197CHOL    C194935  -6.269  15.651  10.877
 8197CHOL    C294936  -6.043  15.572  10.862
 8198CHOL   ROH94937   8.748  22.950  22.138
 8198CHOL    R194938   8.762  22.836  22.027
 8198CHOL    R294939   8.827  22.620  22.084
 8198CHOL    R394940   8.777  22.707  21.902
 8198CHOL    R494941   8.839  22.520  21.987
 8198CHOL    R594942   8.790  22.593  21.791
 8198CHOL    C194943   8.811  22.422  21.624
 8198CHOL    C294944   8.831  22.250  21.457
 8199CHOL   ROH94945   7.034  -5.950   2.431
 8199CHOL    R194946   7.059  -5.807   2.499
 8199CHOL    R294947   7.130  -5.625   2.373
 8199CHOL    R394948   7.086  -5.647   2.576
 8199CHOL    R494949   7.152  -5.500   2.433
 8199CHOL    R594950   7.111  -5.504   2.645
 8199CHOL    C194951   7.148  -5.291   2.747
 8199CHOL    C294952   7.185  -5.077   2.849
 8200CHOL   ROH94953  18.807  -3.667   2.721
 8200CHOL    R194954  18.729  -3.543   2.785
 8200CHOL    R294955  18.831  -3.409   2.947
 8200CHOL    R394956  18.642  -3.403   2.858
 8200CHOL    R494957  18.763  -3.300   3.004
 8200CHOL    R594958  18.565  -3.279   2.923
 8200CHOL    C194959  18.448  -3.093   3.019
 8200CHOL    C294960  18.332  -2.907   3.116
 8201CHOL   ROH94961  17.942  25.407  14.028
 8201CHOL    R194962  17.869  25.270  13.989
 8201CHOL    R294963  17.991  25.089  13.906
 8201CHOL    R394964  17.788  25.115  13.946
 8201CHOL    R494965  17.927  24.969  13.872
 8201CHOL    R594966  17.715  24.978  13.907
 8201CHOL    C194967  17.606  24.772  13.849
 8201CHOL    C294968  17.497  24.566  13.791
 8202CHOL   ROH94969   3.932  20.795  -3.063
 8202CHOL    R194970   3.983  20.697  -2.947
 8202CHOL    R294971   4.202  20.616  -2.947
 8202CHOL    R394972   4.041  20.587  -2.818
 8202CHOL    R494973   4.247  20.530  -2.846
 8202CHOL    R594974   4.092  20.488  -2.702
 8202CHOL    C194975   4.169  20.341  -2.529
 8202CHOL    C294976   4.246  20.194  -2.355
 8203CHOL   ROH94977   4.130   5.883  -6.509
 8203CHOL    R194978   4.181   5.918  -6.361
 8203CHOL    R294979   4.358   5.802  -6.264
 8203CHOL    R394980   4.238   5.958  -6.196
 8203CHOL    R494981   4.402   5.833  -6.135
 8203CHOL    R594982   4.289   5.994  -6.048
 8203CHOL    C194983   4.365   6.047  -5.827
 8203CHOL    C294984   4.441   6.100  -5.605
 8204CHOL   ROH94985   2.369  -1.995  20.873
 8204CHOL    R194986   2.436  -1.888  20.775
 8204CHOL    R294987   2.594  -1.736  20.853
 8204CHOL    R394988   2.511  -1.767  20.664
 8204CHOL    R494989   2.652  -1.642  20.767
 8204CHOL    R594990   2.577  -1.660  20.566
 8204CHOL    C194991   2.678  -1.499  20.419
 8204CHOL    C294992   2.778  -1.338  20.271
 8205CHOL   ROH94993  18.085  20.352  21.975
 8205CHOL    R194994  18.011  20.261  21.866
 8205CHOL    R294995  17.959  20.345  21.655
 8205CHOL    R394996  17.927  20.159  21.744
 8205CHOL    R494997  17.894  20.266  21.560
 8205CHOL    R594998  17.853  20.068  21.635
 8205CHOL    C194999  17.742  19.932  21.472
 8205CHOL    C295000  17.630  19.795  21.309
 8206CHOL   ROH95001  21.109   1.161  20.586
 8206CHOL    R195002  21.008   1.239  20.489
 8206CHOL    R295003  21.072   1.297  20.272
 8206CHOL    R395004  20.895   1.326  20.380
 8206CHOL    R495005  20.984   1.365  20.187
 8206CHOL    R595006  20.794   1.404  20.283
 8206CHOL    C195007  20.644   1.520  20.137
 8206CHOL    C295008  20.493   1.636  19.991
 8207CHOL   ROH95009  26.772  13.221  14.491
 8207CHOL    R195010  26.620  13.192  14.448
 8207CHOL    R295011  26.500  13.346  14.321
 8207CHOL    R395012  26.450  13.160  14.401
 8207CHOL    R495013  26.368  13.321  14.283
 8207CHOL    R595014  26.298  13.131  14.358
 8207CHOL    C195015  26.071  13.088  14.294
 8207CHOL    C295016  25.844  13.045  14.230
 8208CHOL   ROH95017  11.941  12.602  -7.615
 8208CHOL    R195018  11.922  12.576  -7.458
 8208CHOL    R295019  11.903  12.359  -7.375
 8208CHOL    R395020  11.901  12.546  -7.282
 8208CHOL    R495021  11.886  12.336  -7.238
 8208CHOL    R595022  11.882  12.520  -7.126
 8208CHOL    C195023  11.854  12.480  -6.891
 8208CHOL    C295024  11.825  12.440  -6.656
 8209CHOL   ROH95025  23.746  16.715   0.936
 8209CHOL    R195026  23.621  16.655   1.016
 8209CHOL    R295027  23.438  16.565   0.903
 8209CHOL    R395028  23.481  16.587   1.106
 8209CHOL    R495029  23.329  16.512   0.973
 8209CHOL    R595030  23.356  16.527   1.186
 8209CHOL    C195031  23.169  16.437   1.306
 8209CHOL    C295032  22.982  16.347   1.426
 8210CHOL   ROH95033  15.452  22.932  -1.093
 8210CHOL    R195034  15.399  22.816  -0.997
 8210CHOL    R295035  15.451  22.592  -1.039
 8210CHOL    R395036  15.338  22.685  -0.889
 8210CHOL    R495037  15.404  22.490  -0.955
 8210CHOL    R595038  15.285  22.568  -0.793
 8210CHOL    C195039  15.205  22.394  -0.649
 8210CHOL    C295040  15.125  22.220  -0.505
 8211CHOL   ROH95041   6.261  20.194  24.120
 8211CHOL    R195042   6.294  20.099  23.996
 8211CHOL    R295043   6.502  20.108  23.889
 8211CHOL    R395044   6.332  19.992  23.856
 8211CHOL    R495045   6.531  20.025  23.781
 8211CHOL    R595046   6.365  19.897  23.731
 8211CHOL    C195047   6.415  19.754  23.545
 8211CHOL    C295048   6.465  19.612  23.359
 8212CHOL   ROH95049  -0.953  18.401  21.330
 8212CHOL    R195050  -0.857  18.327  21.225
 8212CHOL    R295051  -0.625  18.344  21.242
 8212CHOL    R395052  -0.750  18.244  21.107
 8212CHOL    R495053  -0.542  18.279  21.150
 8212CHOL    R595054  -0.654  18.170  21.002
 8212CHOL    C195055  -0.511  18.060  20.845
 8212CHOL    C295056  -0.368  17.949  20.687
 8213CHOL   ROH95057  15.266  -0.555  -3.436
 8213CHOL    R195058  15.221  -0.457  -3.318
 8213CHOL    R295059  15.295  -0.236  -3.310
 8213CHOL    R395060  15.170  -0.347  -3.184
 8213CHOL    R495061  15.256  -0.150  -3.206
 8213CHOL    R595062  15.126  -0.249  -3.066
 8213CHOL    C195063  15.058  -0.102  -2.888
 8213CHOL    C295064  14.991   0.045  -2.711
 8214CHOL   ROH95065  19.967  -4.475  12.597
 8214CHOL    R195066  19.877  -4.345  12.573
 8214CHOL    R295067  19.974  -4.142  12.510
 8214CHOL    R395068  19.776  -4.198  12.546
 8214CHOL    R495069  19.895  -4.028  12.489
 8214CHOL    R595070  19.686  -4.068  12.523
 8214CHOL    C195071  19.551  -3.873  12.487
 8214CHOL    C295072  19.416  -3.677  12.451
 8215CHOL   ROH95073  17.462  -6.156  10.132
 8215CHOL    R195074  17.393  -6.012  10.130
 8215CHOL    R295075  17.515  -5.821  10.076
 8215CHOL    R395076  17.315  -5.849  10.128
 8215CHOL    R495077  17.455  -5.695  10.074
 8215CHOL    R595078  17.246  -5.705  10.126
 8215CHOL    C195079  17.142  -5.489  10.123
 8215CHOL    C295080  17.039  -5.272  10.120
 8216CHOL   ROH95081   0.319   8.520  25.024
 8216CHOL    R195082   0.407   8.538  24.892
 8216CHOL    R295083   0.607   8.421  24.863
 8216CHOL    R395084   0.506   8.558  24.742
 8216CHOL    R495085   0.683   8.437  24.747
 8216CHOL    R595086   0.594   8.577  24.610
 8216CHOL    C195087   0.725   8.604  24.411
 8216CHOL    C295088   0.857   8.631  24.213
 8217CHOL   ROH95089  22.687  13.974  21.610
 8217CHOL    R195090  22.576  13.936  21.501
 8217CHOL    R295091  22.550  14.064  21.308
 8217CHOL    R395092  22.452  13.893  21.378
 8217CHOL    R495093  22.453  14.031  21.212
 8217CHOL    R595094  22.341  13.855  21.269
 8217CHOL    C195095  22.176  13.799  21.105
 8217CHOL    C295096  22.010  13.742  20.941
 8218CHOL   ROH95097   0.934  23.065  18.224
 8218CHOL    R195098   1.013  22.946  18.152
 8218CHOL    R295099   1.235  22.899  18.206
 8218CHOL    R395100   1.102  22.812  18.071
 8218CHOL    R495101   1.304  22.795  18.144
 8218CHOL    R595102   1.181  22.693  18.000
 8218CHOL    C195103   1.300  22.514  17.892
 8218CHOL    C295104   1.418  22.335  17.784
 8219CHOL   ROH95105  24.091  -0.758   9.088
 8219CHOL    R195106  23.963  -0.663   9.098
 8219CHOL    R295107  23.787  -0.682   8.945
 8219CHOL    R395108  23.819  -0.556   9.108
 8219CHOL    R495109  23.675  -0.599   8.954
 8219CHOL    R595110  23.690  -0.460   9.118
 8219CHOL    C195111  23.498  -0.318   9.132
 8219CHOL    C295112  23.306  -0.175   9.147
 8220CHOL   ROH95113  20.014  22.002  18.226
 8220CHOL    R195114  19.922  21.892  18.156
 8220CHOL    R295115  19.935  21.667  18.217
 8220CHOL    R395116  19.818  21.768  18.076
 8220CHOL    R495117  19.855  21.571  18.155
 8220CHOL    R595118  19.726  21.657  18.006
 8220CHOL    C195119  19.588  21.492  17.900
 8220CHOL    C295120  19.450  21.327  17.795
 8221CHOL   ROH95121  15.155  -6.450   5.466
 8221CHOL    R195122  15.104  -6.304   5.506
 8221CHOL    R295123  15.250  -6.148   5.601
 8221CHOL    R395124  15.047  -6.139   5.551
 8221CHOL    R495125  15.205  -6.020   5.636
 8221CHOL    R595126  14.997  -5.992   5.591
 8221CHOL    C195127  14.920  -5.773   5.651
 8221CHOL    C295128  14.844  -5.553   5.711
 8222CHOL   ROH95129  13.221   8.743  -7.610
 8222CHOL    R195130  13.191   8.755  -7.453
 8222CHOL    R295131  13.134   8.959  -7.357
 8222CHOL    R395132  13.158   8.768  -7.277
 8222CHOL    R495133  13.108   8.970  -7.220
 8222CHOL    R595134  13.128   8.780  -7.120
 8222CHOL    C195135  13.083   8.798  -6.885
 8222CHOL    C295136  13.039   8.816  -6.650
 8223CHOL   ROH95137  15.193  -0.232  23.559
 8223CHOL    R195138  15.148  -0.137  23.439
 8223CHOL    R295139  15.285  -0.105  23.253
 8223CHOL    R395140  15.097  -0.030  23.303
 8223CHOL    R495141  15.246  -0.022  23.148
 8223CHOL    R595142  15.052   0.066  23.183
 8223CHOL    C195143  14.984   0.208  23.003
 8223CHOL    C295144  14.917   0.351  22.822
 8224CHOL   ROH95145   2.823  16.591  24.998
 8224CHOL    R195146   2.892  16.532  24.866
 8224CHOL    R295147   2.985  16.675  24.706
 8224CHOL    R395148   2.970  16.467  24.718
 8224CHOL    R495149   3.045  16.623  24.591
 8224CHOL    R595150   3.039  16.408  24.586
 8224CHOL    C195151   3.142  16.320  24.388
 8224CHOL    C295152   3.245  16.232  24.190
 8225CHOL   ROH95153  22.875   7.545  -2.070
 8225CHOL    R195154  22.757   7.562  -1.963
 8225CHOL    R295155  22.552   7.655  -2.025
 8225CHOL    R395156  22.625   7.581  -1.843
 8225CHOL    R495157  22.449   7.670  -1.931
 8225CHOL    R595158  22.507   7.598  -1.736
 8225CHOL    C195159  22.330   7.624  -1.576
 8225CHOL    C295160  22.154   7.650  -1.415
 8226CHOL   ROH95161  -7.538   6.023   9.470
 8226CHOL    R195162  -7.383   6.063   9.474
 8226CHOL    R295163  -7.231   5.942   9.604
 8226CHOL    R395164  -7.209   6.107   9.478
 8226CHOL    R495165  -7.096   5.977   9.607
 8226CHOL    R595166  -7.053   6.147   9.482
 8226CHOL    C195167  -6.821   6.207   9.487
 8226CHOL    C295168  -6.588   6.266   9.493
 8227CHOL   ROH95169   0.711  10.095  25.345
 8227CHOL    R195170   0.791  10.091  25.207
 8227CHOL    R295171   1.004  10.184  25.189
 8227CHOL    R395172   0.881  10.086  25.051
 8227CHOL    R495173   1.074  10.180  25.068
 8227CHOL    R595174   0.962  10.082  24.913
 8227CHOL    C195175   1.082  10.076  24.705
 8227CHOL    C295176   1.202  10.070  24.497
 8228CHOL   ROH95177  15.937   6.042  -6.328
 8228CHOL    R195178  15.879   6.076  -6.183
 8228CHOL    R295179  15.667   6.172  -6.158
 8228CHOL    R395180  15.813   6.115  -6.020
 8228CHOL    R495181  15.617   6.202  -6.031
 8228CHOL    R595182  15.755   6.149  -5.875
 8228CHOL    C195183  15.668   6.201  -5.658
 8228CHOL    C295184  15.580   6.253  -5.440
 8229CHOL   ROH95185  18.541  20.929  21.111
 8229CHOL    R195186  18.462  20.831  21.012
 8229CHOL    R295187  18.576  20.687  20.869
 8229CHOL    R395188  18.372  20.721  20.902
 8229CHOL    R495189  18.506  20.601  20.783
 8229CHOL    R595190  18.293  20.623  20.803
 8229CHOL    C195191  18.174  20.476  20.655
 8229CHOL    C295192  18.055  20.329  20.507
 8230CHOL   ROH95193  -2.230   1.930  -0.464
 8230CHOL    R195194  -2.126   2.003  -0.367
 8230CHOL    R295195  -2.097   1.932  -0.147
 8230CHOL    R395196  -2.009   2.086  -0.257
 8230CHOL    R495197  -2.006   1.996  -0.061
 8230CHOL    R595198  -1.906   2.159  -0.160
 8230CHOL    C195199  -1.750   2.269  -0.014
 8230CHOL    C295200  -1.594   2.379   0.132
 8231CHOL   ROH95201  -6.839  14.647   5.897
 8231CHOL    R195202  -6.689  14.606   5.936
 8231CHOL    R295203  -6.600  14.662   6.144
 8231CHOL    R395204  -6.521  14.559   5.979
 8231CHOL    R495205  -6.469  14.625   6.177
 8231CHOL    R595206  -6.372  14.518   6.018
 8231CHOL    C195207  -6.147  14.456   6.076
 8231CHOL    C295208  -5.923  14.394   6.134
 8232CHOL   ROH95209   6.953  -3.951  -0.824
 8232CHOL    R195210   6.978  -3.825  -0.728
 8232CHOL    R295211   7.173  -3.699  -0.744
 8232CHOL    R395212   7.006  -3.684  -0.620
 8232CHOL    R495213   7.195  -3.589  -0.660
 8232CHOL    R595214   7.031  -3.558  -0.525
 8232CHOL    C195215   7.068  -3.369  -0.381
 8232CHOL    C295216   7.106  -3.181  -0.237
 8233CHOL   ROH95217  24.994  17.107  16.258
 8233CHOL    R195218  24.857  17.045  16.203
 8233CHOL    R295219  24.732  17.156  16.040
 8233CHOL    R395220  24.703  16.975  16.141
 8233CHOL    R495221  24.612  17.101  15.992
 8233CHOL    R595222  24.566  16.913  16.086
 8233CHOL    C195223  24.361  16.820  16.003
 8233CHOL    C295224  24.156  16.727  15.921
 8234CHOL   ROH95225  14.677  25.678  16.940
 8234CHOL    R195226  14.632  25.538  16.876
 8234CHOL    R295227  14.609  25.513  16.646
 8234CHOL    R395228  14.581  25.381  16.805
 8234CHOL    R495229  14.570  25.391  16.590
 8234CHOL    R595230  14.536  25.241  16.741
 8234CHOL    C195231  14.469  25.031  16.646
 8234CHOL    C295232  14.402  24.821  16.551
 8235CHOL   ROH95233  21.161  -2.379  16.104
 8235CHOL    R195234  21.061  -2.267  16.049
 8235CHOL    R295235  21.142  -2.077  15.940
 8235CHOL    R395236  20.949  -2.141  15.986
 8235CHOL    R495237  21.055  -1.979  15.892
 8235CHOL    R595238  20.849  -2.028  15.931
 8235CHOL    C195239  20.699  -1.860  15.848
 8235CHOL    C295240  20.549  -1.692  15.765
 8236CHOL   ROH95241  13.439  -7.270  12.866
 8236CHOL    R195242  13.407  -7.116  12.839
 8236CHOL    R295243  13.424  -7.026  12.624
 8236CHOL    R395244  13.372  -6.942  12.808
 8236CHOL    R495245  13.396  -6.891  12.600
 8236CHOL    R595246  13.340  -6.787  12.780
 8236CHOL    C195247  13.293  -6.556  12.739
 8236CHOL    C295248  13.246  -6.324  12.698
 8237CHOL   ROH95249  15.614  -2.150  21.644
 8237CHOL    R195250  15.566  -2.041  21.538
 8237CHOL    R295251  15.673  -1.834  21.522
 8237CHOL    R395252  15.512  -1.917  21.418
 8237CHOL    R495253  15.631  -1.738  21.429
 8237CHOL    R595254  15.464  -1.808  21.312
 8237CHOL    C195255  15.391  -1.644  21.153
 8237CHOL    C295256  15.319  -1.480  20.993
 8238CHOL   ROH95257  -5.157  17.311   3.810
 8238CHOL    R195258  -5.021  17.248   3.865
 8238CHOL    R295259  -4.887  17.365   4.016
 8238CHOL    R395260  -4.868  17.176   3.928
 8238CHOL    R495261  -4.768  17.309   4.065
 8238CHOL    R595262  -4.732  17.113   3.983
 8238CHOL    C195263  -4.528  17.018   4.066
 8238CHOL    C295264  -4.324  16.923   4.149
 8239CHOL   ROH95265  -2.493  17.237  20.586
 8239CHOL    R195266  -2.385  17.171  20.488
 8239CHOL    R295267  -2.229  17.303  20.376
 8239CHOL    R395268  -2.263  17.097  20.378
 8239CHOL    R495269  -2.134  17.246  20.290
 8239CHOL    R595270  -2.155  17.031  20.281
 8239CHOL    C195271  -1.993  16.933  20.134
 8239CHOL    C295272  -1.831  16.834  19.987
 8240CHOL   ROH95273  16.242  22.758  -0.823
 8240CHOL    R195274  16.180  22.643  -0.730
 8240CHOL    R295275  16.220  22.418  -0.775
 8240CHOL    R395276  16.110  22.514  -0.626
 8240CHOL    R495277  16.166  22.317  -0.694
 8240CHOL    R595278  16.048  22.399  -0.534
 8240CHOL    C195279  15.956  22.227  -0.395
 8240CHOL    C295280  15.863  22.054  -0.256
 8241CHOL   ROH95281  -4.361  20.837   9.711
 8241CHOL    R195282  -4.235  20.739   9.710
 8241CHOL    R295283  -4.018  20.821   9.740
 8241CHOL    R395284  -4.093  20.628   9.710
 8241CHOL    R495285  -3.908  20.735   9.739
 8241CHOL    R595286  -3.966  20.529   9.709
 8241CHOL    C195287  -3.777  20.382   9.708
 8241CHOL    C295288  -3.588  20.234   9.707
 8242CHOL   ROH95289  -5.427   1.096  12.327
 8242CHOL    R195290  -5.289   1.174  12.304
 8242CHOL    R295291  -5.092   1.058  12.258
 8242CHOL    R395292  -5.134   1.261  12.278
 8242CHOL    R495293  -4.971   1.126  12.238
 8242CHOL    R595294  -4.996   1.339  12.255
 8242CHOL    C195295  -4.789   1.456  12.221
 8242CHOL    C295296  -4.582   1.572  12.187
 8243CHOL   ROH95297  15.217  -5.015   1.862
 8243CHOL    R195298  15.167  -4.881   1.933
 8243CHOL    R295299  15.299  -4.688   1.934
 8243CHOL    R395300  15.111  -4.730   2.014
 8243CHOL    R495301  15.255  -4.571   1.996
 8243CHOL    R595302  15.060  -4.596   2.085
 8243CHOL    C195303  14.985  -4.394   2.192
 8243CHOL    C295304  14.910  -4.193   2.299
 8244CHOL   ROH95305  19.011  11.906  -5.249
 8244CHOL    R195306  18.929  11.891  -5.112
 8244CHOL    R295307  18.725  12.000  -5.082
 8244CHOL    R395308  18.838  11.875  -4.958
 8244CHOL    R495309  18.654  11.987  -4.962
 8244CHOL    R595310  18.756  11.860  -4.821
 8244CHOL    C195311  18.634  11.838  -4.616
 8244CHOL    C295312  18.511  11.816  -4.411
 8245CHOL   ROH95313  26.641  15.817  11.707
 8245CHOL    R195314  26.490  15.766  11.691
 8245CHOL    R295315  26.423  15.646  11.503
 8245CHOL    R395316  26.321  15.708  11.674
 8245CHOL    R495317  26.291  15.601  11.489
 8245CHOL    R595318  26.170  15.656  11.659
 8245CHOL    C195319  25.944  15.579  11.635
 8245CHOL    C295320  25.718  15.502  11.612
 8246CHOL   ROH95321  -0.356  21.293  19.287
 8246CHOL    R195322  -0.263  21.193  19.203
 8246CHOL    R295323  -0.111  21.053  19.311
 8246CHOL    R395324  -0.158  21.081  19.110
 8246CHOL    R495325  -0.029  20.966  19.238
 8246CHOL    R595326  -0.065  20.981  19.026
 8246CHOL    C195327   0.075  20.832  18.901
 8246CHOL    C295328   0.214  20.682  18.775
 8247CHOL   ROH95329   1.990  10.342  -6.079
 8247CHOL    R195330   2.064  10.337  -5.937
 8247CHOL    R295331   2.035  10.155  -5.794
 8247CHOL    R395332   2.147  10.330  -5.778
 8247CHOL    R495333   2.099  10.151  -5.669
 8247CHOL    R595334   2.221  10.325  -5.636
 8247CHOL    C195335   2.332  10.317  -5.423
 8247CHOL    C295336   2.443  10.309  -5.211
 8248CHOL   ROH95337   1.338  -1.229  -0.905
 8248CHOL    R195338   1.413  -1.129  -0.805
 8248CHOL    R295339   1.643  -1.147  -0.768
 8248CHOL    R395340   1.498  -1.016  -0.693
 8248CHOL    R495341   1.709  -1.059  -0.681
 8248CHOL    R595342   1.574  -0.916  -0.593
 8248CHOL    C195343   1.687  -0.766  -0.444
 8248CHOL    C295344   1.800  -0.616  -0.294
 8249CHOL   ROH95345  -2.483   5.276  -2.107
 8249CHOL    R195346  -2.373   5.318  -1.999
 8249CHOL    R295347  -2.407   5.282  -1.771
 8249CHOL    R395348  -2.248   5.366  -1.878
 8249CHOL    R495349  -2.311   5.319  -1.677
 8249CHOL    R595350  -2.138   5.408  -1.770
 8249CHOL    C195351  -1.972   5.471  -1.608
 8249CHOL    C295352  -1.807   5.535  -1.446
 8250CHOL   ROH95353  24.248   5.657  19.466
 8250CHOL    R195354  24.119   5.695  19.380
 8250CHOL    R295355  24.098   5.627  19.158
 8250CHOL    R395356  23.973   5.738  19.283
 8250CHOL    R495357  23.985   5.660  19.083
 8250CHOL    R595358  23.843   5.776  19.197
 8250CHOL    C195359  23.649   5.832  19.068
 8250CHOL    C295360  23.455   5.889  18.939
 8251CHOL   ROH95361  25.412  18.224  12.902
 8251CHOL    R195362  25.273  18.150  12.875
 8251CHOL    R295363  25.212  18.083  12.660
 8251CHOL    R395364  25.116  18.067  12.845
 8251CHOL    R495365  25.090  18.019  12.636
 8251CHOL    R595366  24.977  17.992  12.818
 8251CHOL    C195367  24.768  17.881  12.777
 8251CHOL    C295368  24.559  17.770  12.736
 8252CHOL   ROH95369  10.204  24.769  19.989
 8252CHOL    R195370  10.199  24.639  19.897
 8252CHOL    R295371  10.292  24.640  19.683
 8252CHOL    R395372  10.193  24.492  19.792
 8252CHOL    R495373  10.287  24.526  19.602
 8252CHOL    R595374  10.188  24.362  19.700
 8252CHOL    C195375  10.181  24.166  19.561
 8252CHOL    C295376  10.174  23.970  19.423
 8253CHOL   ROH95377   9.155  22.592  22.541
 8253CHOL    R195378   9.165  22.480  22.427
 8253CHOL    R295379   9.242  22.265  22.476
 8253CHOL    R395380   9.176  22.354  22.299
 8253CHOL    R495381   9.251  22.168  22.376
 8253CHOL    R595382   9.186  22.243  22.185
 8253CHOL    C195383   9.200  22.075  22.013
 8253CHOL    C295384   9.215  21.907  21.842
 8254CHOL   ROH95385   1.347  22.818   0.975
 8254CHOL    R195386   1.425  22.702   1.052
 8254CHOL    R295387   1.644  22.732   1.125
 8254CHOL    R395388   1.513  22.570   1.139
 8254CHOL    R495389   1.713  22.630   1.192
 8254CHOL    R595390   1.591  22.454   1.216
 8254CHOL    C195391   1.707  22.279   1.332
 8254CHOL    C295392   1.824  22.105   1.447
 8255CHOL   ROH95393  12.100  15.884  26.560
 8255CHOL    R195394  12.079  15.829  26.411
 8255CHOL    R295395  12.136  15.959  26.226
 8255CHOL    R395396  12.056  15.767  26.244
 8255CHOL    R495397  12.118  15.911  26.096
 8255CHOL    R595398  12.036  15.712  26.095
 8255CHOL    C195399  12.005  15.629  25.872
 8255CHOL    C295400  11.974  15.547  25.649
 8256CHOL   ROH95401  12.173   8.048  -7.703
 8256CHOL    R195402  12.155   8.066  -7.545
 8256CHOL    R295403  12.065   8.262  -7.456
 8256CHOL    R395404  12.135   8.086  -7.367
 8256CHOL    R495405  12.049   8.278  -7.318
 8256CHOL    R595406  12.117   8.105  -7.210
 8256CHOL    C195407  12.090   8.132  -6.973
 8256CHOL    C295408  12.063   8.159  -6.736
 8257CHOL   ROH95409  -4.963  15.976   2.076
 8257CHOL    R195410  -4.828  15.921   2.142
 8257CHOL    R295411  -4.761  15.991   2.355
 8257CHOL    R395412  -4.677  15.858   2.217
 8257CHOL    R495413  -4.643  15.942   2.413
 8257CHOL    R595414  -4.542  15.803   2.283
 8257CHOL    C195415  -4.340  15.720   2.383
 8257CHOL    C295416  -4.138  15.637   2.483
 8258CHOL   ROH95417  12.744  -4.767   0.289
 8258CHOL    R195418  12.718  -4.635   0.376
 8258CHOL    R295419  12.757  -4.633   0.606
 8258CHOL    R395420  12.690  -4.487   0.473
 8258CHOL    R495421  12.735  -4.518   0.681
 8258CHOL    R595422  12.664  -4.355   0.560
 8258CHOL    C195423  12.626  -4.157   0.690
 8258CHOL    C295424  12.587  -3.959   0.820
 8259CHOL   ROH95425   1.476  25.695   9.453
 8259CHOL    R195426   1.556  25.557   9.460
 8259CHOL    R295427   1.770  25.537   9.371
 8259CHOL    R395428   1.646  25.401   9.469
 8259CHOL    R495429   1.840  25.416   9.377
 8259CHOL    R595430   1.726  25.262   9.476
 8259CHOL    C195431   1.845  25.055   9.487
 8259CHOL    C295432   1.965  24.847   9.498
 8260CHOL   ROH95433  14.011  -1.169  23.174
 8260CHOL    R195434  13.976  -1.066  23.057
 8260CHOL    R295435  14.050  -1.102  22.839
 8260CHOL    R395436  13.937  -0.949  22.925
 8260CHOL    R495437  14.020  -1.011  22.736
 8260CHOL    R595438  13.902  -0.846  22.808
 8260CHOL    C195439  13.850  -0.691  22.632
 8260CHOL    C295440  13.797  -0.536  22.457
 8261CHOL   ROH95441   5.828  -1.502  23.036
 8261CHOL    R195442   5.864  -1.398  22.920
 8261CHOL    R295443   6.080  -1.383  22.834
 8261CHOL    R395444   5.904  -1.280  22.790
 8261CHOL    R495445   6.112  -1.292  22.733
 8261CHOL    R595446   5.940  -1.176  22.674
 8261CHOL    C195447   5.994  -1.019  22.500
 8261CHOL    C295448   6.048  -0.862  22.326
 8262CHOL   ROH95449  24.211  20.397  11.960
 8262CHOL    R195450  24.083  20.303  11.941
 8262CHOL    R295451  23.954  20.314  11.747
 8262CHOL    R395452  23.940  20.196  11.919
 8262CHOL    R495453  23.842  20.232  11.730
 8262CHOL    R595454  23.812  20.102  11.900
 8262CHOL    C195455  23.620  19.960  11.870
 8262CHOL    C295456  23.429  19.819  11.841
 8263CHOL   ROH95457  16.531  26.365  12.129
 8263CHOL    R195458  16.467  26.219  12.112
 8263CHOL    R295459  16.579  26.029  12.186
 8263CHOL    R395460  16.395  26.056  12.092
 8263CHOL    R495461  16.523  25.902  12.170
 8263CHOL    R595462  16.331  25.910  12.075
 8263CHOL    C195463  16.234  25.692  12.048
 8263CHOL    C295464  16.138  25.473  12.022
 8264CHOL   ROH95465  -6.813  10.418  16.296
 8264CHOL    R195466  -6.663  10.418  16.240
 8264CHOL    R295467  -6.511  10.583  16.303
 8264CHOL    R395468  -6.494  10.417  16.177
 8264CHOL    R495469  -6.380  10.583  16.254
 8264CHOL    R595470  -6.345  10.417  16.121
 8264CHOL    C195471  -6.120  10.417  16.038
 8264CHOL    C295472  -5.895  10.416  15.954
 8265CHOL   ROH95473  -7.326  14.565  11.705
 8265CHOL    R195474  -7.173  14.521  11.690
 8265CHOL    R295475  -7.006  14.680  11.654
 8265CHOL    R395476  -7.001  14.473  11.672
 8265CHOL    R495477  -6.872  14.642  11.641
 8265CHOL    R595478  -6.848  14.429  11.657
 8265CHOL    C195479  -6.618  14.364  11.634
 8265CHOL    C295480  -6.388  14.298  11.611
 8266CHOL   ROH95481  10.045  -7.838  10.129
 8266CHOL    R195482  10.045  -7.678  10.126
 8266CHOL    R295483  10.211  -7.560  10.013
 8266CHOL    R395484  10.045  -7.498  10.123
 8266CHOL    R495485  10.211  -7.420  10.010
 8266CHOL    R595486  10.045  -7.338  10.121
 8266CHOL    C195487  10.044  -7.098  10.116
 8266CHOL    C295488  10.044  -6.858  10.112
 8267CHOL   ROH95489  -4.415  18.634  16.276
 8267CHOL    R195490  -4.287  18.556  16.220
 8267CHOL    R295491  -4.071  18.622  16.278
 8267CHOL    R395492  -4.143  18.467  16.158
 8267CHOL    R495493  -3.959  18.553  16.230
 8267CHOL    R595494  -4.015  18.389  16.103
 8267CHOL    C195495  -3.823  18.271  16.019
 8267CHOL    C295496  -3.631  18.154  15.936
 8268CHOL   ROH95497  -3.538  16.759   0.209
 8268CHOL    R195498  -3.417  16.695   0.291
 8268CHOL    R295499  -3.247  16.830   0.379
 8268CHOL    R395500  -3.280  16.624   0.384
 8268CHOL    R495501  -3.141  16.775   0.451
 8268CHOL    R595502  -3.158  16.561   0.467
 8268CHOL    C195503  -2.976  16.465   0.590
 8268CHOL    C295504  -2.794  16.370   0.714
 8269CHOL   ROH95505   4.848  21.106  -3.161
 8269CHOL    R195506   4.890  21.004  -3.045
 8269CHOL    R295507   5.094  20.892  -3.052
 8269CHOL    R395508   4.936  20.889  -2.915
 8269CHOL    R495509   5.130  20.802  -2.950
 8269CHOL    R595510   4.978  20.787  -2.799
 8269CHOL    C195511   5.040  20.634  -2.625
 8269CHOL    C295512   5.103  20.481  -2.451
 8270CHOL   ROH95513  -0.299   4.461  -3.652
 8270CHOL    R195514  -0.208   4.513  -3.532
 8270CHOL    R295515  -0.301   4.565  -3.324
 8270CHOL    R395516  -0.105   4.573  -3.396
 8270CHOL    R495517  -0.221   4.611  -3.218
 8270CHOL    R595518  -0.014   4.625  -3.275
 8270CHOL    C195519   0.124   4.704  -3.095
 8270CHOL    C295520   0.261   4.782  -2.914
 8271CHOL   ROH95521  26.626   7.355   4.381
 8271CHOL    R195522  26.474   7.377   4.427
 8271CHOL    R295523  26.370   7.584   4.403
 8271CHOL    R395524  26.304   7.401   4.479
 8271CHOL    R495525  26.237   7.603   4.443
 8271CHOL    R595526  26.152   7.423   4.525
 8271CHOL    C195527  25.924   7.455   4.594
 8271CHOL    C295528  25.697   7.487   4.663
 8272CHOL   ROH95529  -6.061  12.468   2.253
 8272CHOL    R195530  -5.916  12.445   2.317
 8272CHOL    R295531  -5.890  12.412   2.546
 8272CHOL    R395532  -5.753  12.419   2.389
 8272CHOL    R495533  -5.764  12.391   2.602
 8272CHOL    R595534  -5.609  12.396   2.453
 8272CHOL    C195535  -5.391  12.361   2.548
 8272CHOL    C295536  -5.174  12.326   2.644
 8273CHOL   ROH95537  15.045  23.280  -0.881
 8273CHOL    R195538  14.996  23.160  -0.787
 8273CHOL    R295539  15.112  22.958  -0.781
 8273CHOL    R395540  14.941  23.025  -0.681
 8273CHOL    R495541  15.070  22.853  -0.699
 8273CHOL    R595542  14.893  22.905  -0.588
 8273CHOL    C195543  14.819  22.725  -0.447
 8273CHOL    C295544  14.746  22.545  -0.306
 8274CHOL   ROH95545  -2.607   7.767  22.533
 8274CHOL    R195546  -2.496   7.787  22.420
 8274CHOL    R295547  -2.304   7.913  22.461
 8274CHOL    R395548  -2.371   7.809  22.292
 8274CHOL    R495549  -2.207   7.931  22.362
 8274CHOL    R595550  -2.259   7.829  22.179
 8274CHOL    C195551  -2.093   7.859  22.009
 8274CHOL    C295552  -1.926   7.889  21.839
 8275CHOL   ROH95553  13.049  21.645  23.068
 8275CHOL    R195554  13.023  21.538  22.952
 8275CHOL    R295555  13.200  21.423  22.853
 8275CHOL    R395556  12.994  21.417  22.822
 8275CHOL    R495557  13.177  21.329  22.751
 8275CHOL    R595558  12.967  21.310  22.706
 8275CHOL    C195559  12.928  21.149  22.532
 8275CHOL    C295560  12.889  20.988  22.358
 8276CHOL   ROH95561  -6.465  10.118   2.760
 8276CHOL    R195562  -6.317  10.117   2.822
 8276CHOL    R295563  -6.256   9.960   2.983
 8276CHOL    R395564  -6.152  10.116   2.892
 8276CHOL    R495565  -6.127   9.960   3.037
 8276CHOL    R595566  -6.004  10.116   2.953
 8276CHOL    C195567  -5.783  10.114   3.046
 8276CHOL    C295568  -5.561  10.113   3.139
 8277CHOL   ROH95569  -0.907  21.361   1.389
 8277CHOL    R195570  -0.812  21.256   1.463
 8277CHOL    R295571  -0.857  21.186   1.681
 8277CHOL    R395572  -0.705  21.138   1.547
 8277CHOL    R495573  -0.774  21.094   1.746
 8277CHOL    R595574  -0.610  21.033   1.621
 8277CHOL    C195575  -0.467  20.876   1.732
 8277CHOL    C295576  -0.324  20.718   1.844
 8278CHOL   ROH95577  25.902   2.294  11.508
 8278CHOL    R195578  25.758   2.363  11.494
 8278CHOL    R295579  25.715   2.517  11.324
 8278CHOL    R395580  25.596   2.440  11.477
 8278CHOL    R495581  25.589   2.577  11.311
 8278CHOL    R595582  25.453   2.508  11.463
 8278CHOL    C195583  25.237   2.611  11.441
 8278CHOL    C295584  25.021   2.714  11.420
 8279CHOL   ROH95585   4.625  -2.642  21.425
 8279CHOL    R195586   4.671  -2.528  21.322
 8279CHOL    R295587   4.699  -2.307  21.392
 8279CHOL    R395588   4.724  -2.401  21.207
 8279CHOL    R495589   4.740  -2.208  21.302
 8279CHOL    R595590   4.770  -2.287  21.104
 8279CHOL    C195591   4.840  -2.117  20.950
 8279CHOL    C295592   4.909  -1.946  20.796
 8280CHOL   ROH95593  23.030  22.026   8.638
 8280CHOL    R195594  22.910  21.921   8.652
 8280CHOL    R295595  22.784  21.858   8.466
 8280CHOL    R395596  22.776  21.802   8.667
 8280CHOL    R495597  22.679  21.766   8.478
 8280CHOL    R595598  22.656  21.696   8.681
 8280CHOL    C195599  22.476  21.538   8.701
 8280CHOL    C295600  22.297  21.380   8.721
 8281CHOL   ROH95601  -2.729   0.954   0.954
 8281CHOL    R195602  -2.619   1.036   1.036
 8281CHOL    R295603  -2.428   0.931   1.118
 8281CHOL    R395604  -2.495   1.128   1.129
 8281CHOL    R495605  -2.331   1.003   1.190
 8281CHOL    R595606  -2.386   1.211   1.211
 8281CHOL    C195607  -2.221   1.334   1.335
 8281CHOL    C295608  -2.056   1.457   1.459
 8282CHOL   ROH95609  26.856   5.680  13.301
 8282CHOL    R195610  26.704   5.720  13.272
 8282CHOL    R295611  26.584   5.617  13.100
 8282CHOL    R395612  26.532   5.764  13.239
 8282CHOL    R495613  26.450   5.651  13.075
 8282CHOL    R595614  26.380   5.803  13.210
 8282CHOL    C195615  26.152   5.863  13.166
 8282CHOL    C295616  25.923   5.922  13.123
 8283CHOL   ROH95617  10.337  16.149  26.633
 8283CHOL    R195618  10.329  16.094  26.483
 8283CHOL    R295619  10.348  15.867  26.437
 8283CHOL    R395620  10.320  16.033  26.314
 8283CHOL    R495621  10.341  15.819  26.305
 8283CHOL    R595622  10.313  15.979  26.163
 8283CHOL    C195623  10.301  15.897  25.938
 8283CHOL    C295624  10.289  15.815  25.713
 8284CHOL   ROH95625   3.794   3.385  25.404
 8284CHOL    R195626   3.846   3.442  25.264
 8284CHOL    R295627   3.913   3.299  25.093
 8284CHOL    R395628   3.904   3.507  25.106
 8284CHOL    R495629   3.958   3.349  24.970
 8284CHOL    R595630   3.956   3.565  24.966
 8284CHOL    C195631   4.033   3.651  24.756
 8284CHOL    C295632   4.111   3.737  24.546
 8285CHOL   ROH95633  -1.982  -1.605  16.654
 8285CHOL    R195634  -1.875  -1.503  16.593
 8285CHOL    R295635  -1.694  -1.579  16.468
 8285CHOL    R395636  -1.755  -1.388  16.524
 8285CHOL    R495637  -1.600  -1.490  16.414
 8285CHOL    R595638  -1.648  -1.285  16.463
 8285CHOL    C195639  -1.488  -1.132  16.371
 8285CHOL    C295640  -1.327  -0.979  16.280
 8286CHOL   ROH95641  16.504  25.948   5.620
 8286CHOL    R195642  16.445  25.804   5.658
 8286CHOL    R295643  16.528  25.610   5.558
 8286CHOL    R395644  16.379  25.642   5.701
 8286CHOL    R495645  16.476  25.484   5.592
 8286CHOL    R595646  16.320  25.498   5.739
 8286CHOL    C195647  16.232  25.283   5.797
 8286CHOL    C295648  16.143  25.067   5.854
 8287CHOL   ROH95649  17.742  -5.998  10.730
 8287CHOL    R195650  17.671  -5.855  10.722
 8287CHOL    R295651  17.796  -5.660  10.695
 8287CHOL    R395652  17.590  -5.694  10.713
 8287CHOL    R495653  17.733  -5.535  10.688
 8287CHOL    R595654  17.519  -5.552  10.705
 8287CHOL    C195655  17.412  -5.337  10.694
 8287CHOL    C295656  17.305  -5.123  10.682
 8288CHOL   ROH95657   7.798   9.774  -7.792
 8288CHOL    R195658   7.817   9.776  -7.633
 8288CHOL    R295659   7.685   9.642  -7.495
 8288CHOL    R395660   7.838   9.779  -7.454
 8288CHOL    R495661   7.702   9.644  -7.356
 8288CHOL    R595662   7.857   9.781  -7.295
 8288CHOL    C195663   7.885   9.784  -7.057
 8288CHOL    C295664   7.914   9.788  -6.819
 8289CHOL   ROH95665  24.886   2.550   3.685
 8289CHOL    R195666  24.752   2.617   3.741
 8289CHOL    R295667  24.732   2.849   3.757
 8289CHOL    R395668  24.601   2.693   3.804
 8289CHOL    R495669  24.614   2.908   3.806
 8289CHOL    R595670  24.467   2.760   3.859
 8289CHOL    C195671  24.266   2.861   3.943
 8289CHOL    C295672  24.065   2.962   4.027
 8290CHOL   ROH95673  23.914   9.684  -0.971
 8290CHOL    R195674  23.787   9.684  -0.873
 8290CHOL    R295675  23.598   9.556  -0.922
 8290CHOL    R395676  23.644   9.684  -0.764
 8290CHOL    R495677  23.487   9.555  -0.837
 8290CHOL    R595678  23.517   9.683  -0.666
 8290CHOL    C195679  23.327   9.683  -0.520
 8290CHOL    C295680  23.137   9.683  -0.373
 8291CHOL   ROH95681  13.480  -1.399  23.114
 8291CHOL    R195682  13.451  -1.293  22.998
 8291CHOL    R295683  13.478  -1.351  22.773
 8291CHOL    R395684  13.418  -1.174  22.866
 8291CHOL    R495685  13.453  -1.259  22.671
 8291CHOL    R595686  13.388  -1.069  22.750
 8291CHOL    C195687  13.345  -0.910  22.575
 8291CHOL    C295688  13.301  -0.751  22.401
 8292CHOL   ROH95689   8.060  -2.338  22.750
 8292CHOL    R195690   8.075  -2.226  22.636
 8292CHOL    R295691   8.105  -2.285  22.413
 8292CHOL    R395692   8.091  -2.100  22.509
 8292CHOL    R495693   8.118  -2.187  22.313
 8292CHOL    R595694   8.106  -1.988  22.395
 8292CHOL    C195695   8.127  -1.821  22.225
 8292CHOL    C295696   8.149  -1.653  22.054
 8293CHOL   ROH95697  24.853   2.101   4.191
 8293CHOL    R195698  24.719   2.173   4.241
 8293CHOL    R295699  24.718   2.397   4.303
 8293CHOL    R395700  24.568   2.253   4.297
 8293CHOL    R495701  24.601   2.460   4.347
 8293CHOL    R595702  24.434   2.324   4.347
 8293CHOL    C195703  24.232   2.432   4.422
 8293CHOL    C295704  24.031   2.539   4.497
 8294CHOL   ROH95705  13.869   5.469  -6.886
 8294CHOL    R195706  13.832   5.511  -6.736
 8294CHOL    R295707  13.754   5.725  -6.687
 8294CHOL    R395708  13.790   5.557  -6.567
 8294CHOL    R495709  13.722   5.761  -6.556
 8294CHOL    R595710  13.753   5.599  -6.417
 8294CHOL    C195711  13.697   5.661  -6.193
 8294CHOL    C295712  13.642   5.724  -5.968
 8295CHOL   ROH95713  20.962   5.099  -3.151
 8295CHOL    R195714  20.863   5.145  -3.034
 8295CHOL    R295715  20.633   5.107  -3.050
 8295CHOL    R395716  20.751   5.197  -2.903
 8295CHOL    R495717  20.546   5.147  -2.948
 8295CHOL    R595718  20.652   5.242  -2.786
 8295CHOL    C195719  20.503   5.311  -2.611
 8295CHOL    C295720  20.354   5.380  -2.436
 8296CHOL   ROH95721  27.223  13.401  12.083
 8296CHOL    R195722  27.067  13.373  12.063
 8296CHOL    R295723  26.963  13.414  11.858
 8296CHOL    R395724  26.891  13.341  12.040
 8296CHOL    R495725  26.826  13.389  11.840
 8296CHOL    R595726  26.735  13.312  12.020
 8296CHOL    C195727  26.501  13.270  11.989
 8296CHOL    C295728  26.267  13.228  11.959
 8297CHOL   ROH95729  10.406  27.775   8.754
 8297CHOL    R195730  10.402  27.615   8.763
 8297CHOL    R295731  10.558  27.484   8.650
 8297CHOL    R395732  10.397  27.436   8.774
 8297CHOL    R495733  10.554  27.344   8.659
 8297CHOL    R595734  10.393  27.276   8.784
 8297CHOL    C195735  10.386  27.036   8.798
 8297CHOL    C295736  10.380  26.797   8.812
 8298CHOL   ROH95737   6.380  -4.473  19.843
 8298CHOL    R195738   6.410  -4.343  19.755
 8298CHOL    R295739   6.577  -4.192  19.816
 8298CHOL    R395740   6.444  -4.197  19.655
 8298CHOL    R495741   6.603  -4.079  19.739
 8298CHOL    R595742   6.474  -4.067  19.567
 8298CHOL    C195743   6.519  -3.872  19.435
 8298CHOL    C295744   6.564  -3.677  19.302
 8299CHOL   ROH95745   7.765  15.095  26.892
 8299CHOL    R195746   7.786  15.053  26.739
 8299CHOL    R295747   7.956  14.905  26.678
 8299CHOL    R395748   7.810  15.005  26.567
 8299CHOL    R495749   7.974  14.868  26.544
 8299CHOL    R595750   7.831  14.963  26.414
 8299CHOL    C195751   7.863  14.900  26.185
 8299CHOL    C295752   7.894  14.836  25.955
 8300CHOL   ROH95753   0.732  23.495  17.194
 8300CHOL    R195754   0.812  23.371  17.133
 8300CHOL    R295755   1.027  23.397  17.046
 8300CHOL    R395756   0.902  23.230  17.064
 8300CHOL    R495757   1.096  23.288  16.992
 8300CHOL    R595758   0.981  23.106  17.003
 8300CHOL    C195759   1.101  22.919  16.911
 8300CHOL    C295760   1.221  22.733  16.820
 8301CHOL   ROH95761   7.420  26.551   3.630
 8301CHOL    R195762   7.443  26.403   3.686
 8301CHOL    R295763   7.617  26.270   3.607
 8301CHOL    R395764   7.468  26.236   3.749
 8301CHOL    R495765   7.637  26.140   3.656
 8301CHOL    R595766   7.491  26.088   3.804
 8301CHOL    C195767   7.524  25.866   3.888
 8301CHOL    C295768   7.558  25.644   3.972
 8302CHOL   ROH95769   8.418  23.173  -1.947
 8302CHOL    R195770   8.432  23.054  -1.841
 8302CHOL    R295771   8.628  22.929  -1.826
 8302CHOL    R395772   8.447  22.920  -1.722
 8302CHOL    R495773   8.640  22.825  -1.733
 8302CHOL    R595774   8.461  22.801  -1.616
 8302CHOL    C195775   8.482  22.622  -1.457
 8302CHOL    C295776   8.502  22.443  -1.298
 8303CHOL   ROH95777  -6.699   5.005   5.394
 8303CHOL    R195778  -6.551   5.052   5.432
 8303CHOL    R295779  -6.514   5.199   5.609
 8303CHOL    R395780  -6.385   5.106   5.475
 8303CHOL    R495781  -6.384   5.241   5.642
 8303CHOL    R595782  -6.237   5.153   5.512
 8303CHOL    C195783  -6.015   5.224   5.569
 8303CHOL    C295784  -5.793   5.295   5.626
 8304CHOL   ROH95785  -2.035  20.606   1.891
 8304CHOL    R195786  -1.930  20.509   1.962
 8304CHOL    R295787  -1.950  20.455   2.188
 8304CHOL    R395788  -1.811  20.399   2.042
 8304CHOL    R495789  -1.858  20.370   2.250
 8304CHOL    R595790  -1.706  20.302   2.113
 8304CHOL    C195791  -1.548  20.156   2.220
 8304CHOL    C295792  -1.390  20.010   2.326
 8305CHOL   ROH95793  -6.977  10.038  15.856
 8305CHOL    R195794  -6.826  10.037  15.802
 8305CHOL    R295795  -6.663  10.172  15.900
 8305CHOL    R395796  -6.657  10.036  15.741
 8305CHOL    R495797  -6.531  10.171  15.852
 8305CHOL    R595798  -6.507  10.036  15.686
 8305CHOL    C195799  -6.281  10.034  15.605
 8305CHOL    C295800  -6.055  10.033  15.524
 8306CHOL   ROH95801  -1.440  19.957  19.515
 8306CHOL    R195802  -1.338  19.869  19.429
 8306CHOL    R295803  -1.125  19.948  19.376
 8306CHOL    R395804  -1.224  19.769  19.332
 8306CHOL    R495805  -1.036  19.870  19.301
 8306CHOL    R595806  -1.122  19.680  19.246
 8306CHOL    C195807  -0.969  19.548  19.117
 8306CHOL    C295808  -0.817  19.415  18.988
 8307CHOL   ROH95809   6.957  26.007  17.280
 8307CHOL    R195810   6.983  25.863  17.215
 8307CHOL    R295811   7.115  25.840  17.024
 8307CHOL    R395812   7.013  25.701  17.142
 8307CHOL    R495813   7.138  25.714  16.968
 8307CHOL    R595814   7.039  25.558  17.078
 8307CHOL    C195815   7.079  25.342  16.980
 8307CHOL    C295816   7.119  25.126  16.883
 8308CHOL   ROH95817  22.895  10.878  -2.166
 8308CHOL    R195818  22.775  10.870  -2.060
 8308CHOL    R295819  22.705  10.665  -1.975
 8308CHOL    R395820  22.641  10.861  -1.941
 8308CHOL    R495821  22.600  10.658  -1.882
 8308CHOL    R595822  22.521  10.852  -1.835
 8308CHOL    C195823  22.341  10.840  -1.676
 8308CHOL    C295824  22.162  10.828  -1.517
 8309CHOL   ROH95825  -0.981  -1.469  18.348
 8309CHOL    R195826  -0.884  -1.366  18.273
 8309CHOL    R295827  -0.670  -1.322  18.354
 8309CHOL    R395828  -0.775  -1.251  18.188
 8309CHOL    R495829  -0.585  -1.233  18.288
 8309CHOL    R595830  -0.678  -1.148  18.113
 8309CHOL    C195831  -0.533  -0.994  18.000
 8309CHOL    C295832  -0.388  -0.840  17.887
 8310CHOL   ROH95833  15.856  -2.413  -1.402
 8310CHOL    R195834  15.805  -2.301  -1.300
 8310CHOL    R295835  15.954  -2.192  -1.157
 8310CHOL    R395836  15.748  -2.175  -1.185
 8310CHOL    R495837  15.909  -2.094  -1.068
 8310CHOL    R595838  15.696  -2.063  -1.083
 8310CHOL    C195839  15.620  -1.894  -0.931
 8310CHOL    C295840  15.543  -1.726  -0.778
 8311CHOL   ROH95841  16.462  15.838  -5.612
 8311CHOL    R195842  16.405  15.783  -5.473
 8311CHOL    R295843  16.362  15.556  -5.442
 8311CHOL    R395844  16.340  15.721  -5.317
 8311CHOL    R495845  16.312  15.508  -5.321
 8311CHOL    R595846  16.283  15.667  -5.178
 8311CHOL    C195847  16.197  15.584  -4.970
 8311CHOL    C295848  16.111  15.502  -4.761
 8312CHOL   ROH95849  -7.551  11.399   6.521
 8312CHOL    R195850  -7.395  11.386   6.554
 8312CHOL    R295851  -7.321  11.269   6.742
 8312CHOL    R395852  -7.219  11.372   6.591
 8312CHOL    R495853  -7.185  11.258   6.771
 8312CHOL    R595854  -7.063  11.360   6.624
 8312CHOL    C195855  -6.829  11.341   6.674
 8312CHOL    C295856  -6.595  11.322   6.724
 8313CHOL   ROH95857   1.283  19.669  22.231
 8313CHOL    R195858   1.362  19.585  22.120
 8313CHOL    R295859   1.522  19.427  22.181
 8313CHOL    R395860   1.450  19.490  21.995
 8313CHOL    R495861   1.591  19.353  22.084
 8313CHOL    R595862   1.529  19.406  21.884
 8313CHOL    C195863   1.647  19.280  21.718
 8313CHOL    C295864   1.765  19.154  21.552
 8314CHOL   ROH95865   5.279   6.257  26.763
 8314CHOL    R195866   5.317   6.295  26.612
 8314CHOL    R295867   5.528   6.379  26.559
 8314CHOL    R395868   5.359   6.338  26.443
 8314CHOL    R495869   5.561   6.412  26.427
 8314CHOL    R595870   5.397   6.376  26.292
 8314CHOL    C195871   5.454   6.432  26.066
 8314CHOL    C295872   5.510   6.489  25.840
 8315CHOL   ROH95873   9.885  -7.122   4.715
 8315CHOL    R195874   9.890  -6.969   4.762
 8315CHOL    R295875  10.093  -6.855   4.776
 8315CHOL    R395876   9.897  -6.797   4.815
 8315CHOL    R495877  10.098  -6.722   4.818
 8315CHOL    R595878   9.902  -6.645   4.862
 8315CHOL    C195879   9.910  -6.415   4.933
 8315CHOL    C295880   9.918  -6.186   5.004
 8316CHOL   ROH95881   9.014   0.342  24.924
 8316CHOL    R195882   9.022   0.425  24.787
 8316CHOL    R295883   9.111   0.640  24.783
 8316CHOL    R395884   9.030   0.518  24.634
 8316CHOL    R495885   9.117   0.713  24.663
 8316CHOL    R595886   9.038   0.601  24.497
 8316CHOL    C195887   9.050   0.725  24.292
 8316CHOL    C295888   9.061   0.850  24.087
 8317CHOL   ROH95889  11.831   5.446  -7.207
 8317CHOL    R195890  11.817   5.490  -7.054
 8317CHOL    R295891  11.911   5.689  -6.977
 8317CHOL    R395892  11.801   5.538  -6.881
 8317CHOL    R495893  11.898   5.727  -6.842
 8317CHOL    R595894  11.787   5.582  -6.728
 8317CHOL    C195895  11.767   5.647  -6.498
 8317CHOL    C295896  11.746   5.713  -6.268
 8318CHOL   ROH95897  -5.353  13.877   1.403
 8318CHOL    R195898  -5.214  13.838   1.472
 8318CHOL    R295899  -5.188  13.847   1.704
 8318CHOL    R395900  -5.057  13.795   1.550
 8318CHOL    R495901  -5.066  13.813   1.764
 8318CHOL    R595902  -4.918  13.756   1.619
 8318CHOL    C195903  -4.709  13.699   1.722
 8318CHOL    C295904  -4.500  13.641   1.825
 8319CHOL   ROH95905   3.978  -4.619   1.430
 8319CHOL    R195906   4.028  -4.488   1.506
 8319CHOL    R295907   4.175  -4.339   1.404
 8319CHOL    R395908   4.085  -4.340   1.592
 8319CHOL    R495909   4.219  -4.224   1.470
 8319CHOL    R595910   4.135  -4.208   1.668
 8319CHOL    C195911   4.211  -4.011   1.782
 8319CHOL    C295912   4.287  -3.814   1.896
 8320CHOL   ROH95913   6.985  27.492   7.804
 8320CHOL    R195914   7.007  27.335   7.822
 8320CHOL    R295915   7.151  27.251   7.985
 8320CHOL    R395916   7.032  27.157   7.842
 8320CHOL    R495917   7.170  27.114   8.001
 8320CHOL    R595918   7.054  27.000   7.861
 8320CHOL    C195919   7.086  26.764   7.888
 8320CHOL    C295920   7.119  26.528   7.915
 8321CHOL   ROH95921  23.519  11.738  21.301
 8321CHOL    R195922  23.399  11.721  21.197
 8321CHOL    R295923  23.388  11.853  21.004
 8321CHOL    R395924  23.264  11.702  21.079
 8321CHOL    R495925  23.283  11.838  20.913
 8321CHOL    R595926  23.144  11.685  20.974
 8321CHOL    C195927  22.964  11.660  20.818
 8321CHOL    C295928  22.784  11.635  20.661
 8322CHOL   ROH95929  16.344  -1.452  -2.151
 8322CHOL    R195930  16.289  -1.347  -2.044
 8322CHOL    R295931  16.287  -1.118  -2.089
 8322CHOL    R395932  16.226  -1.229  -1.923
 8322CHOL    R495933  16.239  -1.026  -1.995
 8322CHOL    R595934  16.171  -1.124  -1.815
 8322CHOL    C195935  16.088  -0.967  -1.654
 8322CHOL    C295936  16.005  -0.809  -1.493
 8323CHOL   ROH95937  -2.926   1.279   0.899
 8323CHOL    R195938  -2.815   1.358   0.982
 8323CHOL    R295939  -2.615   1.255   1.043
 8323CHOL    R395940  -2.689   1.448   1.075
 8323CHOL    R495941  -2.517   1.325   1.116
 8323CHOL    R595942  -2.578   1.527   1.158
 8323CHOL    C195943  -2.411   1.646   1.283
 8323CHOL    C295944  -2.244   1.765   1.408
 8324CHOL   ROH95945   7.633  -3.650  21.261
 8324CHOL    R195946   7.652  -3.528  21.160
 8324CHOL    R295947   7.863  -3.433  21.124
 8324CHOL    R395948   7.674  -3.390  21.045
 8324CHOL    R495949   7.880  -3.326  21.036
 8324CHOL    R595950   7.693  -3.268  20.944
 8324CHOL    C195951   7.723  -3.085  20.792
 8324CHOL    C295952   7.752  -2.901  20.640
 8325CHOL   ROH95953   9.596  -6.263   2.536
 8325CHOL    R195954   9.601  -6.118   2.603
 8325CHOL    R295955   9.713  -6.083   2.805
 8325CHOL    R395956   9.607  -5.955   2.678
 8325CHOL    R495957   9.717  -5.956   2.863
 8325CHOL    R595958   9.612  -5.810   2.745
 8325CHOL    C195959   9.620  -5.592   2.846
 8325CHOL    C295960   9.627  -5.374   2.947
 8326CHOL   ROH95961  21.907  22.601  13.452
 8326CHOL    R195962  21.798  22.490  13.415
 8326CHOL    R295963  21.822  22.269  13.487
 8326CHOL    R395964  21.675  22.365  13.373
 8326CHOL    R495965  21.726  22.172  13.454
 8326CHOL    R595966  21.566  22.254  13.336
 8326CHOL    C195967  21.402  22.088  13.281
 8326CHOL    C295968  21.238  21.922  13.226
 8327CHOL   ROH95969  18.519  23.061   1.476
 8327CHOL    R195970  18.439  22.947   1.555
 8327CHOL    R295971  18.289  22.807   1.444
 8327CHOL    R395972  18.350  22.818   1.644
 8327CHOL    R495973  18.220  22.707   1.513
 8327CHOL    R595974  18.270  22.704   1.723
 8327CHOL    C195975  18.150  22.533   1.841
 8327CHOL    C295976  18.031  22.361   1.959
 8328CHOL   ROH95977   7.709  10.115  -7.782
 8328CHOL    R195978   7.729  10.114  -7.623
 8328CHOL    R295979   7.550  10.158  -7.480
 8328CHOL    R395980   7.751  10.113  -7.445
 8328CHOL    R495981   7.568  10.157  -7.341
 8328CHOL    R595982   7.771  10.112  -7.286
 8328CHOL    C195983   7.801  10.111  -7.048
 8328CHOL    C295984   7.831  10.109  -6.810
 8329CHOL   ROH95985  -0.921   9.814  24.183
 8329CHOL    R195986  -0.821   9.812  24.058
 8329CHOL    R295987  -0.605   9.726  24.079
 8329CHOL    R395988  -0.708   9.810  23.918
 8329CHOL    R495989  -0.517   9.724  23.970
 8329CHOL    R595990  -0.608   9.808  23.794
 8329CHOL    C195991  -0.457   9.805  23.607
 8329CHOL    C295992  -0.307   9.802  23.420
 8330CHOL   ROH95993   5.419  -1.740  -2.768
 8330CHOL    R195994   5.459  -1.634  -2.655
 8330CHOL    R295995   5.647  -1.665  -2.521
 8330CHOL    R395996   5.503  -1.514  -2.528
 8330CHOL    R495997   5.682  -1.572  -2.423
 8330CHOL    R595998   5.543  -1.407  -2.416
 8330CHOL    C195999   5.603  -1.248  -2.246
 8330CHOL    C296000   5.662  -1.088  -2.077
 8331CHOL   ROH96001  23.515  -1.229   7.417
 8331CHOL    R196002  23.392  -1.129   7.440
 8331CHOL    R296003  23.279  -1.034   7.260
 8331CHOL    R396004  23.253  -1.018   7.466
 8331CHOL    R496005  23.171  -0.947   7.280
 8331CHOL    R596006  23.130  -0.918   7.489
 8331CHOL    C196007  22.945  -0.769   7.524
 8331CHOL    C296008  22.760  -0.619   7.558
 8332CHOL   ROH96009   3.742  -3.601  19.787
 8332CHOL    R196010   3.796  -3.479  19.699
 8332CHOL    R296011   4.006  -3.488  19.598
 8332CHOL    R396012   3.857  -3.342  19.599
 8332CHOL    R496013   4.054  -3.382  19.521
 8332CHOL    R596014   3.911  -3.220  19.510
 8332CHOL    C196015   3.992  -3.038  19.378
 8332CHOL    C296016   4.073  -2.855  19.245
 8333CHOL   ROH96017  13.181  26.572  15.643
 8333CHOL    R196018  13.152  26.423  15.593
 8333CHOL    R296019  13.317  26.296  15.488
 8333CHOL    R396020  13.118  26.255  15.538
 8333CHOL    R496021  13.291  26.166  15.445
 8333CHOL    R596022  13.089  26.105  15.488
 8333CHOL    C196023  13.045  25.882  15.414
 8333CHOL    C296024  13.001  25.658  15.339
 8334CHOL   ROH96025   0.726   1.989  -3.079
 8334CHOL    R196026   0.810   2.063  -2.964
 8334CHOL    R296027   0.778   2.008  -2.740
 8334CHOL    R396028   0.903   2.145  -2.835
 8334CHOL    R496029   0.851   2.073  -2.639
 8334CHOL    R596030   0.987   2.219  -2.720
 8334CHOL    C196031   1.112   2.329  -2.548
 8334CHOL    C296032   1.238   2.440  -2.375
 8335CHOL   ROH96033  11.858  -1.914  22.987
 8335CHOL    R196034  11.835  -1.805  22.872
 8335CHOL    R296035  12.013  -1.727  22.744
 8335CHOL    R396036  11.809  -1.682  22.743
 8335CHOL    R496037  11.993  -1.631  22.643
 8335CHOL    R596038  11.786  -1.573  22.629
 8335CHOL    C196039  11.752  -1.409  22.456
 8335CHOL    C296040  11.718  -1.246  22.284
 8336CHOL   ROH96041  20.690  17.028  -2.410
 8336CHOL    R196042  20.595  16.966  -2.297
 8336CHOL    R296043  20.601  16.738  -2.248
 8336CHOL    R396044  20.488  16.895  -2.171
 8336CHOL    R496045  20.518  16.683  -2.150
 8336CHOL    R596046  20.393  16.833  -2.058
 8336CHOL    C196047  20.250  16.739  -1.889
 8336CHOL    C296048  20.108  16.646  -1.720
 8337CHOL   ROH96049  11.989  26.243  17.033
 8337CHOL    R196050  11.968  26.098  16.969
 8337CHOL    R296051  12.142  25.988  16.859
 8337CHOL    R396052  11.944  25.934  16.898
 8337CHOL    R496053  12.124  25.861  16.803
 8337CHOL    R596054  11.924  25.789  16.834
 8337CHOL    C196055  11.892  25.570  16.739
 8337CHOL    C296056  11.861  25.352  16.644
 8338CHOL   ROH96057   6.554  -1.553  -3.282
 8338CHOL    R196058   6.584  -1.449  -3.165
 8338CHOL    R296059   6.712  -1.258  -3.203
 8338CHOL    R396060   6.617  -1.331  -3.032
 8338CHOL    R496061   6.738  -1.166  -3.101
 8338CHOL    R596062   6.647  -1.227  -2.915
 8338CHOL    C196063   6.692  -1.070  -2.739
 8338CHOL    C296064   6.736  -0.913  -2.563
 8339CHOL   ROH96065  18.893  -4.246   4.100
 8339CHOL    R196066  18.815  -4.116   4.152
 8339CHOL    R296067  18.875  -4.013   4.352
 8339CHOL    R396068  18.727  -3.971   4.211
 8339CHOL    R496069  18.807  -3.899   4.398
 8339CHOL    R596070  18.650  -3.841   4.264
 8339CHOL    C196071  18.533  -3.647   4.342
 8339CHOL    C296072  18.416  -3.452   4.420
 8340CHOL   ROH96073  -6.777  15.638   6.900
 8340CHOL    R196074  -6.628  15.589   6.932
 8340CHOL    R296075  -6.523  15.647   7.132
 8340CHOL    R396076  -6.461  15.533   6.968
 8340CHOL    R496077  -6.393  15.603   7.160
 8340CHOL    R596078  -6.312  15.484   6.999
 8340CHOL    C196079  -6.089  15.410   7.047
 8340CHOL    C296080  -5.866  15.336   7.095
 8341CHOL   ROH96081   8.116  19.298  25.102
 8341CHOL    R196082   8.133  19.213  24.968
 8341CHOL    R296083   8.285  19.278  24.803
 8341CHOL    R396084   8.153  19.117  24.817
 8341CHOL    R496085   8.300  19.203  24.685
 8341CHOL    R596086   8.170  19.032  24.682
 8341CHOL    C196087   8.196  18.904  24.481
 8341CHOL    C296088   8.222  18.776  24.280
 8342CHOL   ROH96089   8.351  -5.590  18.552
 8342CHOL    R196090   8.365  -5.451  18.474
 8342CHOL    R296091   8.544  -5.412  18.330
 8342CHOL    R396092   8.381  -5.294  18.387
 8342CHOL    R496093   8.556  -5.290  18.262
 8342CHOL    R596094   8.395  -5.155  18.309
 8342CHOL    C196095   8.416  -4.946  18.193
 8342CHOL    C296096   8.437  -4.737  18.077
 8343CHOL   ROH96097  12.665  -7.324   6.244
 8343CHOL    R196098  12.638  -7.170   6.277
 8343CHOL    R296099  12.588  -7.018   6.107
 8343CHOL    R396100  12.608  -6.996   6.313
 8343CHOL    R496101  12.565  -6.883   6.135
 8343CHOL    R596102  12.580  -6.842   6.346
 8343CHOL    C196103  12.540  -6.611   6.395
 8343CHOL    C296104  12.499  -6.379   6.444
 8344CHOL   ROH96105   7.686  26.982  15.028
 8344CHOL    R196106   7.706  26.830  14.981
 8344CHOL    R296107   7.829  26.680  15.110
 8344CHOL    R396108   7.729  26.660  14.927
 8344CHOL    R496109   7.847  26.547  15.068
 8344CHOL    R596110   7.750  26.509  14.880
 8344CHOL    C196111   7.780  26.281  14.809
 8344CHOL    C296112   7.810  26.054  14.738
 8345CHOL   ROH96113   6.140  -3.794  -0.789
 8345CHOL    R196114   6.172  -3.671  -0.692
 8345CHOL    R296115   6.372  -3.552  -0.710
 8345CHOL    R396116   6.208  -3.532  -0.583
 8345CHOL    R496117   6.400  -3.444  -0.626
 8345CHOL    R596118   6.240  -3.409  -0.486
 8345CHOL    C196119   6.287  -3.223  -0.341
 8345CHOL    C296120   6.335  -3.038  -0.196
 8346CHOL   ROH96121   9.359  26.937   4.275
 8346CHOL    R196122   9.362  26.785   4.324
 8346CHOL    R296123   9.368  26.731   4.551
 8346CHOL    R396124   9.366  26.613   4.378
 8346CHOL    R496125   9.371  26.598   4.593
 8346CHOL    R596126   9.369  26.461   4.427
 8346CHOL    C196127   9.375  26.233   4.500
 8346CHOL    C296128   9.380  26.004   4.573
 8347CHOL   ROH96129   5.815  19.627  24.414
 8347CHOL    R196130   5.851  19.537  24.287
 8347CHOL    R296131   6.046  19.574  24.165
 8347CHOL    R396132   5.892  19.436  24.144
 8347CHOL    R496133   6.078  19.495  24.054
 8347CHOL    R596134   5.928  19.345  24.017
 8347CHOL    C196135   5.982  19.210  23.826
 8347CHOL    C296136   6.036  19.075  23.635
 8348CHOL   ROH96137  -4.002   0.264  15.556
 8348CHOL    R196138  -3.876   0.350  15.506
 8348CHOL    R296139  -3.805   0.538  15.623
 8348CHOL    R396140  -3.735   0.446  15.450
 8348CHOL    R496141  -3.696   0.613  15.580
 8348CHOL    R596142  -3.610   0.531  15.400
 8348CHOL    C196143  -3.421   0.660  15.325
 8348CHOL    C296144  -3.233   0.788  15.250
 8349CHOL   ROH96145   5.419  -0.599  23.665
 8349CHOL    R196146   5.457  -0.504  23.542
 8349CHOL    R296147   5.671  -0.508  23.449
 8349CHOL    R396148   5.501  -0.397  23.404
 8349CHOL    R496149   5.705  -0.425  23.342
 8349CHOL    R596150   5.539  -0.302  23.282
 8349CHOL    C196151   5.597  -0.159  23.097
 8349CHOL    C296152   5.654  -0.016  22.913
 8350CHOL   ROH96153  27.032   5.259   8.561
 8350CHOL    R196154  26.878   5.299   8.573
 8350CHOL    R296155  26.748   5.337   8.383
 8350CHOL    R396156  26.704   5.344   8.587
 8350CHOL    R496157  26.613   5.372   8.394
 8350CHOL    R596158  26.550   5.385   8.599
 8350CHOL    C196159  26.318   5.445   8.618
 8350CHOL    C296160  26.086   5.505   8.636
 8351CHOL   ROH96161   0.905   5.999  -5.028
 8351CHOL    R196162   0.987   6.034  -4.895
 8351CHOL    R296163   0.888   6.156  -4.723
 8351CHOL    R396164   1.078   6.073  -4.745
 8351CHOL    R496165   0.960   6.187  -4.606
 8351CHOL    R596166   1.160   6.108  -4.612
 8351CHOL    C196167   1.282   6.160  -4.412
 8351CHOL    C296168   1.405   6.213  -4.213
 8352CHOL   ROH96169   6.057  20.380  23.919
 8352CHOL    R196170   6.092  20.283  23.797
 8352CHOL    R296171   6.310  20.265  23.716
 8352CHOL    R396172   6.131  20.174  23.659
 8352CHOL    R496173   6.341  20.180  23.609
 8352CHOL    R596174   6.167  20.077  23.537
 8352CHOL    C196175   6.219  19.932  23.353
 8352CHOL    C296176   6.272  19.786  23.169
 8353CHOL   ROH96177  25.171   2.193   4.999
 8353CHOL    R196178  25.033   2.264   5.039
 8353CHOL    R296179  25.017   2.497   5.048
 8353CHOL    R396180  24.879   2.344   5.084
 8353CHOL    R496181  24.896   2.559   5.083
 8353CHOL    R596182  24.741   2.415   5.125
 8353CHOL    C196183  24.535   2.522   5.185
 8353CHOL    C296184  24.328   2.629   5.245
 8354CHOL   ROH96185   9.142  -0.785  24.175
 8354CHOL    R196186   9.147  -0.689  24.047
 8354CHOL    R296187   9.341  -0.572  23.993
 8354CHOL    R396188   9.153  -0.582  23.903
 8354CHOL    R496189   9.346  -0.488  23.881
 8354CHOL    R596190   9.159  -0.486  23.774
 8354CHOL    C196191   9.166  -0.342  23.582
 8354CHOL    C296192   9.174  -0.199  23.390
 8355CHOL   ROH96193  -1.101  11.349  23.943
 8355CHOL    R196194  -1.003  11.334  23.817
 8355CHOL    R296195  -0.784  11.260  23.844
 8355CHOL    R396196  -0.894  11.316  23.675
 8355CHOL    R496197  -0.698  11.246  23.734
 8355CHOL    R596198  -0.796  11.301  23.550
 8355CHOL    C196199  -0.650  11.278  23.361
 8355CHOL    C296200  -0.503  11.255  23.172
 8356CHOL   ROH96201  15.123  23.129  20.786
 8356CHOL    R196202  15.078  23.009  20.690
 8356CHOL    R296203  15.083  22.788  20.763
 8356CHOL    R396204  15.028  22.875  20.581
 8356CHOL    R496205  15.044  22.683  20.679
 8356CHOL    R596206  14.983  22.755  20.485
 8356CHOL    C196207  14.917  22.575  20.341
 8356CHOL    C296208  14.850  22.396  20.196
 8357CHOL   ROH96209  -4.316   4.698   0.344
 8357CHOL    R196210  -4.190   4.743   0.432
 8357CHOL    R296211  -4.174   4.683   0.657
 8357CHOL    R396212  -4.049   4.794   0.532
 8357CHOL    R496213  -4.064   4.722   0.734
 8357CHOL    R596214  -3.923   4.838   0.620
 8357CHOL    C196215  -3.735   4.906   0.752
 8357CHOL    C296216  -3.547   4.973   0.885
 8358CHOL   ROH96217   3.868  -6.618   7.067
 8358CHOL    R196218   3.919  -6.469   7.094
 8358CHOL    R296219   4.101  -6.381   6.978
 8358CHOL    R396220   3.976  -6.301   7.125
 8358CHOL    R496221   4.146  -6.250   7.002
 8358CHOL    R596222   4.027  -6.151   7.152
 8358CHOL    C196223   4.103  -5.928   7.193
 8358CHOL    C296224   4.180  -5.704   7.234
 8359CHOL   ROH96225  -6.599  14.937   5.330
 8359CHOL    R196226  -6.451  14.893   5.373
 8359CHOL    R296227  -6.366  14.948   5.583
 8359CHOL    R396228  -6.286  14.843   5.422
 8359CHOL    R496229  -6.237  14.909   5.621
 8359CHOL    R596230  -6.138  14.799   5.465
 8359CHOL    C196231  -5.917  14.732   5.530
 8359CHOL    C296232  -5.695  14.666   5.595
 8360CHOL   ROH96233  -1.554  15.431  -2.689
 8360CHOL    R196234  -1.454  15.384  -2.573
 8360CHOL    R296235  -1.532  15.265  -2.389
 8360CHOL    R396236  -1.342  15.330  -2.443
 8360CHOL    R496237  -1.445  15.223  -2.288
 8360CHOL    R596238  -1.242  15.283  -2.328
 8360CHOL    C196239  -1.092  15.212  -2.154
 8360CHOL    C296240  -0.942  15.141  -1.980
 8361CHOL   ROH96241  -1.933  16.040  -2.074
 8361CHOL    R196242  -1.830  15.986  -1.964
 8361CHOL    R296243  -1.891  15.820  -1.813
 8361CHOL    R396244  -1.713  15.926  -1.841
 8361CHOL    R496245  -1.801  15.773  -1.717
 8361CHOL    R596246  -1.610  15.872  -1.732
 8361CHOL    C196247  -1.455  15.791  -1.567
 8361CHOL    C296248  -1.300  15.711  -1.403
 8362CHOL   ROH96249  14.785  -4.549   0.794
 8362CHOL    R196250  14.740  -4.419   0.876
 8362CHOL    R296251  14.880  -4.234   0.894
 8362CHOL    R396252  14.689  -4.274   0.969
 8362CHOL    R496253  14.841  -4.120   0.966
 8362CHOL    R596254  14.644  -4.144   1.052
 8362CHOL    C196255  14.577  -3.950   1.175
 8362CHOL    C296256  14.510  -3.755   1.299
 8363CHOL   ROH96257  26.457  15.159  13.957
 8363CHOL    R196258  26.308  15.116  13.918
 8363CHOL    R296259  26.261  14.902  13.839
 8363CHOL    R396260  26.140  15.068  13.875
 8363CHOL    R496261  26.131  14.864  13.805
 8363CHOL    R596262  25.990  15.025  13.837
 8363CHOL    C196263  25.767  14.961  13.779
 8363CHOL    C296264  25.543  14.896  13.721
 8364CHOL   ROH96265   9.173  27.495  13.379
 8364CHOL    R196266   9.175  27.338  13.350
 8364CHOL    R296267   9.336  27.200  13.448
 8364CHOL    R396268   9.178  27.160  13.318
 8364CHOL    R496269   9.338  27.062  13.422
 8364CHOL    R596270   9.180  27.003  13.289
 8364CHOL    C196271   9.183  26.767  13.246
 8364CHOL    C296272   9.187  26.531  13.203
 8365CHOL   ROH96273  20.739  -0.078   0.010
 8365CHOL    R196274  20.640   0.010   0.100
 8365CHOL    R296275  20.416   0.037   0.041
 8365CHOL    R396276  20.529   0.109   0.201
 8365CHOL    R496277  20.330   0.114   0.120
 8365CHOL    R596278  20.431   0.197   0.291
 8365CHOL    C196279  20.282   0.329   0.427
 8365CHOL    C296280  20.134   0.461   0.562
 8366CHOL   ROH96281  11.240  13.451  27.386
 8366CHOL    R196282  11.226  13.417  27.230
 8366CHOL    R296283  11.371  13.266  27.127
 8366CHOL    R396284  11.210  13.378  27.055
 8366CHOL    R496285  11.359  13.236  26.991
 8366CHOL    R596286  11.197  13.344  26.899
 8366CHOL    C196287  11.176  13.293  26.666
 8366CHOL    C296288  11.155  13.241  26.432
 8367CHOL   ROH96289  22.260  -2.179  14.054
 8367CHOL    R196290  22.147  -2.071  14.018
 8367CHOL    R296291  22.102  -2.016  13.796
 8367CHOL    R396292  22.020  -1.951  13.976
 8367CHOL    R496293  22.003  -1.922  13.764
 8367CHOL    R596294  21.907  -1.843  13.940
 8367CHOL    C196295  21.738  -1.682  13.885
 8367CHOL    C296296  21.569  -1.520  13.831
 8368CHOL   ROH96297  14.862  -4.993   1.584
 8368CHOL    R196298  14.815  -4.859   1.658
 8368CHOL    R296299  14.930  -4.659   1.628
 8368CHOL    R396300  14.763  -4.709   1.742
 8368CHOL    R496301  14.889  -4.541   1.693
 8368CHOL    R596302  14.716  -4.575   1.817
 8368CHOL    C196303  14.646  -4.374   1.928
 8368CHOL    C296304  14.576  -4.174   2.040
 8369CHOL   ROH96305  18.893  18.380  -2.967
 8369CHOL    R196306  18.812  18.307  -2.850
 8369CHOL    R296307  18.584  18.262  -2.872
 8369CHOL    R396308  18.721  18.224  -2.719
 8369CHOL    R496309  18.513  18.198  -2.770
 8369CHOL    R596310  18.640  18.151  -2.602
 8369CHOL    C196311  18.519  18.040  -2.427
 8369CHOL    C296312  18.397  17.930  -2.252
 8370CHOL   ROH96313  27.189  14.097  11.116
 8370CHOL    R196314  27.033  14.062  11.102
 8370CHOL    R296315  26.913  14.124  10.912
 8370CHOL    R396316  26.858  14.024  11.087
 8370CHOL    R496317  26.777  14.094  10.900
 8370CHOL    R596318  26.702  13.989  11.073
 8370CHOL    C196319  26.469  13.937  11.053
 8370CHOL    C296320  26.235  13.885  11.033
 8371CHOL   ROH96321  18.882  -3.132  18.075
 8371CHOL    R196322  18.800  -3.016  18.002
 8371CHOL    R296323  18.909  -2.834  17.905
 8371CHOL    R396324  18.707  -2.885  17.920
 8371CHOL    R496325  18.837  -2.732  17.841
 8371CHOL    R596326  18.624  -2.769  17.847
 8371CHOL    C196327  18.501  -2.595  17.738
 8371CHOL    C296328  18.377  -2.421  17.628
 8372CHOL   ROH96329   1.661  10.315  -5.903
 8372CHOL    R196330   1.739  10.309  -5.763
 8372CHOL    R296331   1.717  10.125  -5.622
 8372CHOL    R396332   1.827  10.302  -5.606
 8372CHOL    R496333   1.785  10.120  -5.499
 8372CHOL    R596334   1.904  10.297  -5.466
 8372CHOL    C196335   2.021  10.288  -5.257
 8372CHOL    C296336   2.138  10.279  -5.047
 8373CHOL   ROH96337  -5.377   1.561  13.770
 8373CHOL    R196338  -5.240   1.635  13.734
 8373CHOL    R296339  -5.164   1.815  13.862
 8373CHOL    R396340  -5.085   1.719  13.695
 8373CHOL    R496341  -5.044   1.880  13.831
 8373CHOL    R596342  -4.948   1.793  13.659
 8373CHOL    C196343  -4.742   1.904  13.606
 8373CHOL    C296344  -4.536   2.016  13.552
 8374CHOL   ROH96345  14.523  -1.620  22.600
 8374CHOL    R196346  14.484  -1.514  22.487
 8374CHOL    R296347  14.497  -1.569  22.261
 8374CHOL    R396348  14.440  -1.394  22.360
 8374CHOL    R496349  14.462  -1.476  22.162
 8374CHOL    R596350  14.400  -1.288  22.247
 8374CHOL    C196351  14.342  -1.129  22.077
 8374CHOL    C296352  14.283  -0.969  21.907
 8375CHOL   ROH96353  20.191  24.507  10.537
 8375CHOL    R196354  20.104  24.373  10.536
 8375CHOL    R296355  20.128  24.216  10.365
 8375CHOL    R396356  20.006  24.222  10.534
 8375CHOL    R496357  20.052  24.098  10.364
 8375CHOL    R596358  19.918  24.088  10.533
 8375CHOL    C196359  19.788  23.887  10.531
 8375CHOL    C296360  19.657  23.686  10.529
 8376CHOL   ROH96361  15.955  26.045  14.793
 8376CHOL    R196362  15.901  25.901  14.748
 8376CHOL    R296363  16.043  25.745  14.648
 8376CHOL    R396364  15.840  25.740  14.697
 8376CHOL    R496365  15.996  25.620  14.609
 8376CHOL    R596366  15.786  25.596  14.652
 8376CHOL    C196367  15.705  25.380  14.584
 8376CHOL    C296368  15.624  25.165  14.516
 8377CHOL   ROH96369   6.378   0.280  -4.703
 8377CHOL    R196370   6.410   0.369  -4.574
 8377CHOL    R296371   6.560   0.296  -4.411
 8377CHOL    R396372   6.445   0.470  -4.429
 8377CHOL    R496373   6.588   0.375  -4.299
 8377CHOL    R596374   6.477   0.559  -4.301
 8377CHOL    C196375   6.525   0.694  -4.107
 8377CHOL    C296376   6.572   0.828  -3.914
 8378CHOL   ROH96377   4.956  -2.123  -2.224
 8378CHOL    R196378   4.999  -2.014  -2.115
 8378CHOL    R296379   5.047  -2.077  -1.895
 8378CHOL    R396380   5.047  -1.892  -1.992
 8378CHOL    R496381   5.084  -1.982  -1.800
 8378CHOL    R596382   5.090  -1.784  -1.882
 8378CHOL    C196383   5.155  -1.621  -1.719
 8378CHOL    C296384   5.220  -1.458  -1.555
 8379CHOL   ROH96385  -6.934  14.306  14.333
 8379CHOL    R196386  -6.783  14.267  14.296
 8379CHOL    R296387  -6.605  14.334  14.430
 8379CHOL    R396388  -6.614  14.223  14.253
 8379CHOL    R496389  -6.473  14.300  14.397
 8379CHOL    R596390  -6.464  14.184  14.216
 8379CHOL    C196391  -6.238  14.125  14.160
 8379CHOL    C296392  -6.012  14.067  14.104
 8380CHOL   ROH96393   5.194  27.099  12.269
 8380CHOL    R196394   5.238  26.947  12.247
 8380CHOL    R296395   5.378  26.839  12.399
 8380CHOL    R396396   5.286  26.775  12.222
 8380CHOL    R496397   5.416  26.706  12.379
 8380CHOL    R596398   5.330  26.623  12.200
 8380CHOL    C196399   5.395  26.395  12.167
 8380CHOL    C296400   5.461  26.166  12.134
 8381CHOL   ROH96401  23.950  18.151   2.556
 8381CHOL    R196402  23.824  18.077   2.621
 8381CHOL    R296403  23.841  17.858   2.699
 8381CHOL    R396404  23.682  17.993   2.694
 8381CHOL    R496405  23.730  17.793   2.756
 8381CHOL    R596406  23.556  17.919   2.759
 8381CHOL    C196407  23.367  17.808   2.856
 8381CHOL    C296408  23.178  17.696   2.953
 8382CHOL   ROH96409   6.949   3.437  -6.432
 8382CHOL    R196410   6.971   3.493  -6.284
 8382CHOL    R296411   7.051   3.356  -6.114
 8382CHOL    R396412   6.995   3.557  -6.117
 8382CHOL    R496413   7.071   3.405  -5.984
 8382CHOL    R596414   7.017   3.613  -5.969
 8382CHOL    C196415   7.050   3.697  -5.747
 8382CHOL    C296416   7.082   3.782  -5.525
 8383CHOL   ROH96417   8.714  -7.745   8.574
 8383CHOL    R196418   8.725  -7.586   8.585
 8383CHOL    R296419   8.834  -7.462   8.420
 8383CHOL    R396420   8.738  -7.407   8.597
 8383CHOL    R496421   8.844  -7.322   8.429
 8383CHOL    R596422   8.749  -7.247   8.607
 8383CHOL    C196423   8.766  -7.009   8.624
 8383CHOL    C296424   8.783  -6.770   8.640
 8384CHOL   ROH96425   3.805  21.953  21.692
 8384CHOL    R196426   3.856  21.845  21.586
 8384CHOL    R296427   3.906  21.626  21.652
 8384CHOL    R396428   3.913  21.723  21.467
 8384CHOL    R496429   3.950  21.532  21.559
 8384CHOL    R596430   3.965  21.615  21.361
 8384CHOL    C196431   4.041  21.452  21.201
 8384CHOL    C296432   4.118  21.290  21.042
 8385CHOL   ROH96433   6.242   0.896  -5.075
 8385CHOL    R196434   6.274   0.978  -4.942
 8385CHOL    R296435   6.435   0.904  -4.790
 8385CHOL    R396436   6.310   1.071  -4.792
 8385CHOL    R496437   6.463   0.976  -4.674
 8385CHOL    R596438   6.341   1.154  -4.659
 8385CHOL    C196439   6.389   1.277  -4.459
 8385CHOL    C296440   6.437   1.401  -4.259
 8386CHOL   ROH96441  25.065  19.154  11.810
 8386CHOL    R196442  24.929  19.071  11.793
 8386CHOL    R296443  24.915  18.893  11.643
 8386CHOL    R396444  24.776  18.978  11.773
 8386CHOL    R496445  24.797  18.820  11.628
 8386CHOL    R596446  24.640  18.895  11.756
 8386CHOL    C196447  24.437  18.771  11.730
 8386CHOL    C296448  24.233  18.647  11.704
 8387CHOL   ROH96449  23.574  21.260  11.711
 8387CHOL    R196450  23.451  21.159  11.691
 8387CHOL    R296451  23.282  21.205  11.537
 8387CHOL    R396452  23.313  21.046  11.669
 8387CHOL    R496453  23.175  21.117  11.520
 8387CHOL    R596454  23.191  20.946  11.649
 8387CHOL    C196455  23.006  20.795  11.619
 8387CHOL    C296456  22.822  20.644  11.589
 8388CHOL   ROH96457  16.357  19.973  23.254
 8388CHOL    R196458  16.299  19.885  23.134
 8388CHOL    R296459  16.369  19.922  22.914
 8388CHOL    R396460  16.234  19.786  22.998
 8388CHOL    R496461  16.318  19.845  22.808
 8388CHOL    R596462  16.176  19.698  22.878
 8388CHOL    C196463  16.090  19.566  22.697
 8388CHOL    C296464  16.003  19.434  22.516
 8389CHOL   ROH96465  17.594  -1.493  21.190
 8389CHOL    R196466  17.522  -1.391  21.090
 8389CHOL    R296467  17.442  -1.462  20.883
 8389CHOL    R396468  17.442  -1.275  20.977
 8389CHOL    R496469  17.379  -1.372  20.795
 8389CHOL    R596470  17.370  -1.173  20.877
 8389CHOL    C196471  17.263  -1.019  20.727
 8389CHOL    C296472  17.156  -0.866  20.577
 8390CHOL   ROH96473  -3.256  -1.421  14.082
 8390CHOL    R196474  -3.138  -1.320  14.044
 8390CHOL    R296475  -2.958  -1.286  14.189
 8390CHOL    R396476  -3.005  -1.205  14.002
 8390CHOL    R496477  -2.855  -1.198  14.156
 8390CHOL    R596478  -2.888  -1.104  13.965
 8390CHOL    C196479  -2.711  -0.952  13.908
 8390CHOL    C296480  -2.534  -0.800  13.852
 8391CHOL   ROH96481  18.769   3.243  -3.980
 8391CHOL    R196482  18.688   3.301  -3.855
 8391CHOL    R296483  18.767   3.484  -3.734
 8391CHOL    R396484  18.596   3.366  -3.714
 8391CHOL    R496485  18.696   3.535  -3.625
 8391CHOL    R596486  18.515   3.424  -3.589
 8391CHOL    C196487  18.393   3.511  -3.401
 8391CHOL    C296488  18.271   3.598  -3.214
 8392CHOL   ROH96489  -4.686   6.949  19.875
 8392CHOL    R196490  -4.557   6.973  19.783
 8392CHOL    R296491  -4.382   7.109  19.856
 8392CHOL    R396492  -4.412   7.000  19.681
 8392CHOL    R496493  -4.269   7.130  19.776
 8392CHOL    R596494  -4.283   7.024  19.589
 8392CHOL    C196495  -4.089   7.059  19.452
 8392CHOL    C296496  -3.895   7.095  19.314
 8393CHOL   ROH96497   9.339  -5.921   1.854
 8393CHOL    R196498   9.346  -5.779   1.927
 8393CHOL    R296499   9.446  -5.756   2.137
 8393CHOL    R396500   9.354  -5.618   2.009
 8393CHOL    R496501   9.452  -5.631   2.200
 8393CHOL    R596502   9.361  -5.476   2.081
 8393CHOL    C196503   9.372  -5.262   2.191
 8393CHOL    C296504   9.382  -5.049   2.300
 8394CHOL   ROH96505  18.029  23.009  18.936
 8394CHOL    R196506  17.953  22.892  18.858
 8394CHOL    R296507  17.990  22.668  18.913
 8394CHOL    R396508  17.867  22.760  18.771
 8394CHOL    R496509  17.923  22.565  18.845
 8394CHOL    R596510  17.791  22.643  18.693
 8394CHOL    C196511  17.677  22.467  18.576
 8394CHOL    C296512  17.563  22.291  18.460
 8395CHOL   ROH96513   5.019  12.191  26.858
 8395CHOL    R196514   5.060  12.174  26.704
 8395CHOL    R296515   5.279  12.120  26.644
 8395CHOL    R396516   5.106  12.154  26.532
 8395CHOL    R496517   5.315  12.105  26.510
 8395CHOL    R596518   5.148  12.137  26.378
 8395CHOL    C196519   5.209  12.110  26.148
 8395CHOL    C296520   5.271  12.084  25.917
 8396CHOL   ROH96521  -5.362  15.191  17.748
 8396CHOL    R196522  -5.226  15.146  17.677
 8396CHOL    R296523  -5.024  15.146  17.794
 8396CHOL    R396524  -5.072  15.095  17.598
 8396CHOL    R496525  -4.905  15.107  17.733
 8396CHOL    R596526  -4.936  15.051  17.527
 8396CHOL    C196527  -4.732  14.983  17.421
 8396CHOL    C296528  -4.527  14.916  17.315
 8397CHOL   ROH96529  -6.251   3.754   5.494
 8397CHOL    R196530  -6.107   3.815   5.527
 8397CHOL    R296531  -5.941   3.685   5.626
 8397CHOL    R396532  -5.945   3.885   5.565
 8397CHOL    R496533  -5.815   3.739   5.655
 8397CHOL    R596534  -5.801   3.946   5.598
 8397CHOL    C196535  -5.586   4.038   5.648
 8397CHOL    C296536  -5.370   4.130   5.698
 8398CHOL   ROH96537   9.731  -4.196  -0.913
 8398CHOL    R196538   9.733  -4.069  -0.816
 8398CHOL    R296539   9.934  -3.961  -0.764
 8398CHOL    R396540   9.736  -3.925  -0.707
 8398CHOL    R496541   9.935  -3.850  -0.679
 8398CHOL    R596542   9.738  -3.798  -0.610
 8398CHOL    C196543   9.741  -3.607  -0.465
 8398CHOL    C296544   9.745  -3.416  -0.320
 8399CHOL   ROH96545   0.242  20.792  20.433
 8399CHOL    R196546   0.329  20.698  20.337
 8399CHOL    R296547   0.427  20.502  20.419
 8399CHOL    R396548   0.426  20.591  20.230
 8399CHOL    R496549   0.503  20.420  20.335
 8399CHOL    R596550   0.513  20.497  20.134
 8399CHOL    C196551   0.643  20.355  19.990
 8399CHOL    C296552   0.773  20.214  19.847
 8400CHOL   ROH96553  18.111  10.673  -5.844
 8400CHOL    R196554  18.036  10.668  -5.703
 8400CHOL    R296555  17.835  10.780  -5.669
 8400CHOL    R396556  17.952  10.661  -5.544
 8400CHOL    R496557  17.769  10.776  -5.546
 8400CHOL    R596558  17.877  10.656  -5.402
 8400CHOL    C196559  17.765  10.648  -5.191
 8400CHOL    C296560  17.652  10.640  -4.979
 8401CHOL   ROH96561  11.866  -1.573  23.302
 8401CHOL    R196562  11.843  -1.466  23.185
 8401CHOL    R296563  11.998  -1.442  23.012
 8401CHOL    R396564  11.817  -1.346  23.053
 8401CHOL    R496565  11.978  -1.349  22.910
 8401CHOL    R596566  11.794  -1.239  22.936
 8401CHOL    C196567  11.759  -1.079  22.761
 8401CHOL    C296568  11.725  -0.919  22.586
 8402CHOL   ROH96569  11.870  20.294  24.375
 8402CHOL    R196570  11.850  20.202  24.246
 8402CHOL    R296571  12.007  20.204  24.073
 8402CHOL    R396572  11.829  20.099  24.100
 8402CHOL    R496573  11.990  20.123  23.959
 8402CHOL    R596574  11.809  20.007  23.971
 8402CHOL    C196575  11.780  19.869  23.776
 8402CHOL    C296576  11.750  19.731  23.582
 8403CHOL   ROH96577  13.535  -4.975   0.882
 8403CHOL    R196578  13.503  -4.842   0.965
 8403CHOL    R296579  13.534  -4.631   0.871
 8403CHOL    R396580  13.467  -4.693   1.059
 8403CHOL    R496581  13.506  -4.515   0.944
 8403CHOL    R596582  13.434  -4.560   1.142
 8403CHOL    C196583  13.386  -4.361   1.267
 8403CHOL    C296584  13.338  -4.162   1.392
 8404CHOL   ROH96585  18.903  -4.945   6.224
 8404CHOL    R196586  18.825  -4.810   6.259
 8404CHOL    R296587  18.940  -4.616   6.316
 8404CHOL    R396588  18.736  -4.658   6.298
 8404CHOL    R496589  18.871  -4.498   6.347
 8404CHOL    R596590  18.658  -4.523   6.333
 8404CHOL    C196591  18.540  -4.320   6.385
 8404CHOL    C296592  18.423  -4.118   6.438
 8405CHOL   ROH96593   4.060  26.806  11.686
 8405CHOL    R196594   4.115  26.657  11.669
 8405CHOL    R296595   4.343  26.611  11.680
 8405CHOL    R396596   4.177  26.489  11.650
 8405CHOL    R496597   4.391  26.480  11.665
 8405CHOL    R596598   4.232  26.339  11.632
 8405CHOL    C196599   4.314  26.116  11.607
 8405CHOL    C296600   4.396  25.892  11.581
 8406CHOL   ROH96601  22.049  23.082   9.783
 8406CHOL    R196602  21.942  22.963   9.783
 8406CHOL    R296603  21.957  22.787   9.631
 8406CHOL    R396604  21.821  22.830   9.784
 8406CHOL    R496605  21.863  22.684   9.631
 8406CHOL    R596606  21.714  22.711   9.784
 8406CHOL    C196607  21.553  22.533   9.784
 8406CHOL    C296608  21.392  22.355   9.785
 8407CHOL   ROH96609   8.954  27.794  10.478
 8407CHOL    R196610   8.960  27.634  10.474
 8407CHOL    R296611   9.145  27.523  10.386
 8407CHOL    R396612   8.966  27.454  10.468
 8407CHOL    R496613   9.150  27.383  10.382
 8407CHOL    R596614   8.972  27.294  10.464
 8407CHOL    C196615   8.981  27.055  10.457
 8407CHOL    C296616   8.989  26.815  10.451
 8408CHOL   ROH96617   9.996  25.903  18.074
 8408CHOL    R196618   9.995  25.760  18.002
 8408CHOL    R296619  10.040  25.740  17.774
 8408CHOL    R396620   9.993  25.599  17.921
 8408CHOL    R496621  10.039  25.615  17.711
 8408CHOL    R596622   9.992  25.456  17.849
 8408CHOL    C196623   9.990  25.241  17.742
 8408CHOL    C296624   9.988  25.027  17.634
 8409CHOL   ROH96625  25.037   3.646  16.961
 8409CHOL    R196626  24.900   3.699  16.897
 8409CHOL    R296627  24.900   3.823  16.700
 8409CHOL    R396628  24.746   3.758  16.826
 8409CHOL    R496629  24.780   3.869  16.644
 8409CHOL    R596630  24.609   3.811  16.762
 8409CHOL    C196631  24.404   3.889  16.666
 8409CHOL    C296632  24.198   3.968  16.571
 8410CHOL   ROH96633  14.975  -2.261  -1.970
 8410CHOL    R196634  14.930  -2.150  -1.863
 8410CHOL    R296635  15.088  -2.026  -1.746
 8410CHOL    R396636  14.879  -2.026  -1.744
 8410CHOL    R496637  15.049  -1.929  -1.653
 8410CHOL    R596638  14.835  -1.916  -1.637
 8410CHOL    C196639  14.767  -1.750  -1.477
 8410CHOL    C296640  14.700  -1.584  -1.317
 8411CHOL   ROH96641  20.219   6.268  -4.111
 8411CHOL    R196642  20.129   6.301  -3.983
 8411CHOL    R296643  19.916   6.207  -3.959
 8411CHOL    R396644  20.027   6.338  -3.839
 8411CHOL    R496645  19.837   6.236  -3.847
 8411CHOL    R596646  19.936   6.371  -3.711
 8411CHOL    C196647  19.801   6.420  -3.520
 8411CHOL    C296648  19.665   6.469  -3.328
 8412CHOL   ROH96649  19.672  -3.982  15.102
 8412CHOL    R196650  19.583  -3.857  15.056
 8412CHOL    R296651  19.668  -3.696  14.911
 8412CHOL    R396652  19.483  -3.717  15.004
 8412CHOL    R496653  19.590  -3.587  14.871
 8412CHOL    R596654  19.394  -3.592  14.958
 8412CHOL    C196655  19.260  -3.406  14.890
 8412CHOL    C296656  19.126  -3.219  14.821
 8413CHOL   ROH96657  10.836  -0.167  -4.701
 8413CHOL    R196658  10.825  -0.077  -4.569
 8413CHOL    R296659  10.991   0.077  -4.515
 8413CHOL    R396660  10.813   0.024  -4.421
 8413CHOL    R496661  10.982   0.156  -4.400
 8413CHOL    R596662  10.802   0.114  -4.289
 8413CHOL    C196663  10.785   0.249  -4.091
 8413CHOL    C296664  10.768   0.384  -3.893
 8414CHOL   ROH96665  18.644  24.914   5.597
 8414CHOL    R196666  18.570  24.776   5.631
 8414CHOL    R296667  18.660  24.572   5.562
 8414CHOL    R396668  18.487  24.621   5.668
 8414CHOL    R496669  18.595  24.451   5.592
 8414CHOL    R596670  18.413  24.483   5.702
 8414CHOL    C196671  18.301  24.277   5.752
 8414CHOL    C296672  18.190  24.070   5.803
 8415CHOL   ROH96673  14.274  -7.079  12.846
 8415CHOL    R196674  14.234  -6.927  12.818
 8415CHOL    R296675  14.300  -6.819  12.622
 8415CHOL    R396676  14.188  -6.755  12.787
 8415CHOL    R496677  14.265  -6.685  12.598
 8415CHOL    R596678  14.148  -6.603  12.760
 8415CHOL    C196679  14.088  -6.375  12.718
 8415CHOL    C296680  14.027  -6.146  12.676
 8416CHOL   ROH96681  19.798  14.496  23.926
 8416CHOL    R196682  19.706  14.454  23.802
 8416CHOL    R296683  19.799  14.405  23.594
 8416CHOL    R396684  19.602  14.407  23.663
 8416CHOL    R496685  19.719  14.368  23.486
 8416CHOL    R596686  19.510  14.365  23.539
 8416CHOL    C196687  19.372  14.301  23.353
 8416CHOL    C296688  19.234  14.238  23.167
 8417CHOL   ROH96689  19.503  15.946  -3.835
 8417CHOL    R196690  19.417  15.892  -3.711
 8417CHOL    R296691  19.219  15.773  -3.746
 8417CHOL    R396692  19.320  15.832  -3.572
 8417CHOL    R496693  19.144  15.725  -3.637
 8417CHOL    R596694  19.234  15.778  -3.448
 8417CHOL    C196695  19.104  15.697  -3.263
 8417CHOL    C296696  18.975  15.617  -3.077
 8418CHOL   ROH96697   1.738  -1.115  21.338
 8418CHOL    R196698   1.812  -1.016  21.236
 8418CHOL    R296699   1.956  -0.850  21.313
 8418CHOL    R396700   1.895  -0.905  21.121
 8418CHOL    R496701   2.021  -0.763  21.224
 8418CHOL    R596702   1.969  -0.806  21.019
 8418CHOL    C196703   2.080  -0.658  20.867
 8418CHOL    C296704   2.191  -0.510  20.714
 8419CHOL   ROH96705  -0.666   3.370  -2.827
 8419CHOL    R196706  -0.573   3.433  -2.713
 8419CHOL    R296707  -0.662   3.494  -2.506
 8419CHOL    R396708  -0.469   3.504  -2.585
 8419CHOL    R496709  -0.581   3.549  -2.406
 8419CHOL    R596710  -0.376   3.567  -2.471
 8419CHOL    C196711  -0.237   3.661  -2.299
 8419CHOL    C296712  -0.098   3.755  -2.128
 8420CHOL   ROH96713  16.472  25.110   3.176
 8420CHOL    R196714  16.416  24.972   3.235
 8420CHOL    R296715  16.524  24.865   3.411
 8420CHOL    R396716  16.354  24.817   3.300
 8420CHOL    R496717  16.476  24.744   3.462
 8420CHOL    R596718  16.299  24.678   3.359
 8420CHOL    C196719  16.215  24.471   3.447
 8420CHOL    C296720  16.132  24.264   3.535
 8421CHOL   ROH96721   3.504  26.368  13.085
 8421CHOL    R196722   3.564  26.222  13.056
 8421CHOL    R296723   3.632  26.083  13.230
 8421CHOL    R396724   3.630  26.059  13.023
 8421CHOL    R496725   3.684  25.956  13.205
 8421CHOL    R596726   3.690  25.913  12.994
 8421CHOL    C196727   3.779  25.695  12.950
 8421CHOL    C296728   3.869  25.476  12.907
 8422CHOL   ROH96729  22.076  20.049   1.743
 8422CHOL    R196730  21.970  19.956   1.818
 8422CHOL    R296731  21.786  19.868   1.705
 8422CHOL    R396732  21.851  19.851   1.903
 8422CHOL    R496733  21.693  19.787   1.771
 8422CHOL    R596734  21.744  19.758   1.978
 8422CHOL    C196735  21.585  19.618   2.092
 8422CHOL    C296736  21.426  19.479   2.205
 8423CHOL   ROH96737  20.534  -1.294  18.717
 8423CHOL    R196738  20.439  -1.194  18.636
 8423CHOL    R296739  20.470  -0.963  18.650
 8423CHOL    R396740  20.333  -1.080  18.545
 8423CHOL    R496741  20.387  -0.875  18.579
 8423CHOL    R596742  20.238  -0.980  18.463
 8423CHOL    C196743  20.097  -0.829  18.342
 8423CHOL    C296744  19.955  -0.679  18.220
 8424CHOL   ROH96745  26.831   4.565  11.119
 8424CHOL    R196746  26.679   4.613  11.107
 8424CHOL    R296747  26.547   4.549  10.925
 8424CHOL    R396748  26.508   4.668  11.092
 8424CHOL    R496749  26.414   4.591  10.914
 8424CHOL    R596750  26.356   4.716  11.080
 8424CHOL    C196751  26.128   4.788  11.061
 8424CHOL    C296752  25.900   4.861  11.043
 8425CHOL   ROH96753  -5.661  17.190  15.157
 8425CHOL    R196754  -5.522  17.125  15.112
 8425CHOL    R296755  -5.354  17.255  15.016
 8425CHOL    R396756  -5.365  17.052  15.062
 8425CHOL    R496757  -5.232  17.198  14.977
 8425CHOL    R596758  -5.226  16.987  15.017
 8425CHOL    C196759  -5.017  16.890  14.950
 8425CHOL    C296760  -4.808  16.792  14.883
 8426CHOL   ROH96761   5.251  -5.866   3.149
 8426CHOL    R196762   5.290  -5.723   3.210
 8426CHOL    R296763   5.463  -5.703   3.366
 8426CHOL    R396764   5.335  -5.563   3.278
 8426CHOL    R496765   5.497  -5.578   3.419
 8426CHOL    R596766   5.374  -5.420   3.339
 8426CHOL    C196767   5.433  -5.206   3.430
 8426CHOL    C296768   5.492  -4.992   3.521
 8427CHOL   ROH96769   2.721   6.891  -6.169
 8427CHOL    R196770   2.785   6.917  -6.025
 8427CHOL    R296771   2.654   6.903  -5.832
 8427CHOL    R396772   2.856   6.946  -5.862
 8427CHOL    R496773   2.710   6.926  -5.705
 8427CHOL    R596774   2.920   6.972  -5.717
 8427CHOL    C196775   3.016   7.012  -5.501
 8427CHOL    C296776   3.111   7.051  -5.284
 8428CHOL   ROH96777  -1.280  23.920  10.862
 8428CHOL    R196778  -1.180  23.795  10.860
 8428CHOL    R296779  -0.983  23.796  10.985
 8428CHOL    R396780  -1.068  23.654  10.858
 8428CHOL    R496781  -0.896  23.687  10.983
 8428CHOL    R596782  -0.969  23.529  10.856
 8428CHOL    C196783  -0.819  23.341  10.853
 8428CHOL    C296784  -0.669  23.154  10.850
 8429CHOL   ROH96785  22.673  13.338  -2.017
 8429CHOL    R196786  22.555  13.312  -1.912
 8429CHOL    R296787  22.363  13.195  -1.974
 8429CHOL    R396788  22.423  13.282  -1.794
 8429CHOL    R496789  22.260  13.172  -1.882
 8429CHOL    R596790  22.305  13.256  -1.689
 8429CHOL    C196791  22.128  13.216  -1.531
 8429CHOL    C296792  21.952  13.176  -1.373
 8430CHOL   ROH96793  17.539  16.778  24.546
 8430CHOL    R196794  17.467  16.718  24.416
 8430CHOL    R296795  17.428  16.852  24.229
 8430CHOL    R396796  17.386  16.651  24.270
 8430CHOL    R496797  17.365  16.799  24.115
 8430CHOL    R596798  17.314  16.591  24.140
 8430CHOL    C196799  17.206  16.502  23.946
 8430CHOL    C296800  17.098  16.412  23.751
 8431CHOL   ROH96801   8.657   9.418  -7.863
 8431CHOL    R196802   8.668   9.425  -7.703
 8431CHOL    R296803   8.515   9.312  -7.568
 8431CHOL    R396804   8.680   9.432  -7.524
 8431CHOL    R496805   8.524   9.318  -7.428
 8431CHOL    R596806   8.691   9.438  -7.364
 8431CHOL    C196807   8.707   9.448  -7.125
 8431CHOL    C296808   8.724   9.458  -6.886
 8432CHOL   ROH96809  -1.596  23.181   6.570
 8432CHOL    R196810  -1.497  23.059   6.600
 8432CHOL    R296811  -1.276  23.063   6.526
 8432CHOL    R396812  -1.385  22.922   6.634
 8432CHOL    R496813  -1.189  22.957   6.552
 8432CHOL    R596814  -1.286  22.800   6.664
 8432CHOL    C196815  -1.137  22.617   6.709
 8432CHOL    C296816  -0.988  22.434   6.754
 8433CHOL   ROH96817   4.208  15.575  -6.066
 8433CHOL    R196818   4.259  15.523  -5.923
 8433CHOL    R296819   4.124  15.541  -5.734
 8433CHOL    R396820   4.317  15.466  -5.763
 8433CHOL    R496821   4.169  15.496  -5.609
 8433CHOL    R596822   4.368  15.414  -5.620
 8433CHOL    C196823   4.445  15.337  -5.407
 8433CHOL    C296824   4.522  15.259  -5.193
 8434CHOL   ROH96825  21.822  15.350  21.927
 8434CHOL    R196826  21.717  15.303  21.816
 8434CHOL    R296827  21.758  15.340  21.589
 8434CHOL    R396828  21.599  15.250  21.690
 8434CHOL    R496829  21.666  15.299  21.492
 8434CHOL    R596830  21.495  15.203  21.579
 8434CHOL    C196831  21.337  15.132  21.412
 8434CHOL    C296832  21.180  15.062  21.245
 8435CHOL   ROH96833   8.320  -7.101   4.976
 8435CHOL    R196834   8.335  -6.948   5.021
 8435CHOL    R296835   8.544  -6.854   5.059
 8435CHOL    R396836   8.351  -6.776   5.071
 8435CHOL    R496837   8.557  -6.720   5.098
 8435CHOL    R596838   8.366  -6.623   5.116
 8435CHOL    C196839   8.387  -6.394   5.183
 8435CHOL    C296840   8.409  -6.164   5.250
 8436CHOL   ROH96841  19.118  -4.992   6.987
 8436CHOL    R196842  19.037  -4.856   7.014
 8436CHOL    R296843  19.093  -4.660   6.902
 8436CHOL    R396844  18.947  -4.704   7.044
 8436CHOL    R496845  19.022  -4.541   6.925
 8436CHOL    R596846  18.866  -4.568   7.071
 8436CHOL    C196847  18.745  -4.365   7.111
 8436CHOL    C296848  18.624  -4.162   7.152
 8437CHOL   ROH96849  16.784  -5.519  15.409
 8437CHOL    R196850  16.723  -5.379  15.360
 8437CHOL    R296851  16.799  -5.178  15.449
 8437CHOL    R396852  16.655  -5.222  15.305
 8437CHOL    R496853  16.746  -5.056  15.406
 8437CHOL    R596854  16.594  -5.082  15.256
 8437CHOL    C196855  16.504  -4.873  15.183
 8437CHOL    C296856  16.413  -4.663  15.109
 8438CHOL   ROH96857  -7.508   7.883   6.309
 8438CHOL    R196858  -7.353   7.896   6.345
 8438CHOL    R296859  -7.281   8.036   6.517
 8438CHOL    R396860  -7.178   7.912   6.385
 8438CHOL    R496861  -7.145   8.048   6.548
 8438CHOL    R596862  -7.023   7.925   6.421
 8438CHOL    C196863  -6.789   7.945   6.474
 8438CHOL    C296864  -6.556   7.965   6.528
 8439CHOL   ROH96865  10.425  27.449  13.524
 8439CHOL    R196866  10.418  27.292  13.493
 8439CHOL    R296867  10.487  27.207  13.287
 8439CHOL    R396868  10.410  27.116  13.459
 8439CHOL    R496869  10.480  27.070  13.261
 8439CHOL    R596870  10.402  26.959  13.428
 8439CHOL    C196871  10.392  26.724  13.382
 8439CHOL    C296872  10.381  26.489  13.336
 8440CHOL   ROH96873   7.655   8.751  27.584
 8440CHOL    R196874   7.676   8.762  27.426
 8440CHOL    R296875   7.868   8.858  27.336
 8440CHOL    R396876   7.699   8.773  27.248
 8440CHOL    R496877   7.887   8.867  27.198
 8440CHOL    R596878   7.720   8.784  27.090
 8440CHOL    C196879   7.751   8.800  26.852
 8440CHOL    C296880   7.782   8.816  26.615
 8441CHOL   ROH96881   3.929   4.620  25.912
 8441CHOL    R196882   3.978   4.668  25.768
 8441CHOL    R296883   4.031   4.892  25.728
 8441CHOL    R396884   4.034   4.723  25.606
 8441CHOL    R496885   4.074   4.935  25.602
 8441CHOL    R596886   4.083   4.772  25.461
 8441CHOL    C196887   4.158   4.844  25.245
 8441CHOL    C296888   4.232   4.917  25.029
 8442CHOL   ROH96889  27.168  13.951   7.873
 8442CHOL    R196890  27.013  13.915   7.891
 8442CHOL    R296891  26.878  13.868   7.707
 8442CHOL    R396892  26.839  13.875   7.912
 8442CHOL    R496893  26.742  13.837   7.723
 8442CHOL    R596894  26.684  13.839   7.931
 8442CHOL    C196895  26.452  13.785   7.958
 8442CHOL    C296896  26.219  13.731   7.986
 8443CHOL   ROH96897  -0.405  20.844   0.130
 8443CHOL    R196898  -0.313  20.744   0.215
 8443CHOL    R296899  -0.375  20.677   0.429
 8443CHOL    R396900  -0.210  20.632   0.310
 8443CHOL    R496901  -0.295  20.589   0.504
 8443CHOL    R596902  -0.118  20.532   0.395
 8443CHOL    C196903   0.020  20.382   0.522
 8443CHOL    C296904   0.158  20.232   0.649
 8444CHOL   ROH96905  25.071  18.509   6.401
 8444CHOL    R196906  24.935  18.431   6.433
 8444CHOL    R296907  24.851  18.271   6.285
 8444CHOL    R396908  24.782  18.343   6.469
 8444CHOL    R496909  24.732  18.203   6.313
 8444CHOL    R596910  24.646  18.265   6.501
 8444CHOL    C196911  24.442  18.147   6.548
 8444CHOL    C296912  24.238  18.030   6.596
 8445CHOL   ROH96913  -2.401   5.590  22.102
 8445CHOL    R196914  -2.296   5.634  21.990
 8445CHOL    R296915  -2.087   5.720  22.049
 8445CHOL    R396916  -2.177   5.684  21.864
 8445CHOL    R496917  -1.994   5.758  21.951
 8445CHOL    R596918  -2.071   5.728  21.752
 8445CHOL    C196919  -1.913   5.794  21.584
 8445CHOL    C296920  -1.755   5.860  21.416
 8446CHOL   ROH96921  17.128   4.367  -5.347
 8446CHOL    R196922  17.062   4.414  -5.209
 8446CHOL    R296923  17.168   4.569  -5.072
 8446CHOL    R396924  16.988   4.466  -5.054
 8446CHOL    R496925  17.111   4.610  -4.951
 8446CHOL    R596926  16.922   4.513  -4.915
 8446CHOL    C196927  16.823   4.582  -4.708
 8446CHOL    C296928  16.724   4.652  -4.501
 8447CHOL   ROH96929  15.150  23.058  -1.104
 8447CHOL    R196930  15.100  22.940  -1.008
 8447CHOL    R296931  15.121  22.717  -1.071
 8447CHOL    R396932  15.044  22.808  -0.899
 8447CHOL    R496933  15.077  22.614  -0.986
 8447CHOL    R596934  14.994  22.690  -0.803
 8447CHOL    C196935  14.920  22.514  -0.658
 8447CHOL    C296936  14.845  22.338  -0.513
 8448CHOL   ROH96937  10.786  -2.651  -2.657
 8448CHOL    R196938  10.777  -2.539  -2.543
 8448CHOL    R296939  10.889  -2.564  -2.340
 8448CHOL    R396940  10.767  -2.412  -2.416
 8448CHOL    R496941  10.881  -2.466  -2.241
 8448CHOL    R596942  10.758  -2.300  -2.302
 8448CHOL    C196943  10.745  -2.132  -2.132
 8448CHOL    C296944  10.732  -1.963  -1.961
 8449CHOL   ROH96945  -6.306  12.962  16.982
 8449CHOL    R196946  -6.163  12.934  16.917
 8449CHOL    R296947  -6.003  12.805  17.027
 8449CHOL    R396948  -6.001  12.903  16.843
 8449CHOL    R496949  -5.878  12.781  16.970
 8449CHOL    R596950  -5.858  12.875  16.777
 8449CHOL    C196951  -5.643  12.834  16.679
 8449CHOL    C296952  -5.428  12.792  16.581
 8450CHOL   ROH96953  -1.717  -2.395   4.205
 8450CHOL    R196954  -1.611  -2.286   4.253
 8450CHOL    R296955  -1.530  -2.284   4.472
 8450CHOL    R396956  -1.491  -2.162   4.307
 8450CHOL    R496957  -1.437  -2.189   4.514
 8450CHOL    R596958  -1.384  -2.053   4.355
 8450CHOL    C196959  -1.225  -1.889   4.427
 8450CHOL    C296960  -1.065  -1.725   4.499
 8451CHOL   ROH96961  -6.046  13.033  17.508
 8451CHOL    R196962  -5.905  13.004  17.439
 8451CHOL    R296963  -5.737  13.166  17.438
 8451CHOL    R396964  -5.745  12.972  17.361
 8451CHOL    R496965  -5.613  13.141  17.377
 8451CHOL    R596966  -5.604  12.943  17.292
 8451CHOL    C196967  -5.392  12.900  17.189
 8451CHOL    C296968  -5.180  12.857  17.086
 8452CHOL   ROH96969  11.912  -7.080   4.850
 8452CHOL    R196970  11.893  -6.928   4.896
 8452CHOL    R296971  11.880  -6.756   4.739
 8452CHOL    R396972  11.872  -6.757   4.948
 8452CHOL    R496973  11.863  -6.623   4.779
 8452CHOL    R596974  11.852  -6.605   4.994
 8452CHOL    C196975  11.824  -6.377   5.062
 8452CHOL    C296976  11.795  -6.149   5.131
 8453CHOL   ROH96977  19.318  24.677  13.707
 8453CHOL    R196978  19.231  24.547  13.671
 8453CHOL    R296979  19.328  24.335  13.670
 8453CHOL    R396980  19.134  24.401  13.632
 8453CHOL    R496981  19.252  24.222  13.639
 8453CHOL    R596982  19.047  24.272  13.596
 8453CHOL    C196983  18.917  24.077  13.543
 8453CHOL    C296984  18.787  23.882  13.489
 8454CHOL   ROH96985  27.094  12.832   6.095
 8454CHOL    R196986  26.939  12.809   6.128
 8454CHOL    R296987  26.776  12.836   5.964
 8454CHOL    R396988  26.765  12.783   6.166
 8454CHOL    R496989  26.640  12.816   5.994
 8454CHOL    R596990  26.610  12.760   6.200
 8454CHOL    C196991  26.378  12.726   6.250
 8454CHOL    C296992  26.146  12.692   6.300
 8455CHOL   ROH96993   6.771  10.589  -7.635
 8455CHOL    R196994   6.798  10.585  -7.477
 8455CHOL    R296995   6.698  10.739  -7.334
 8455CHOL    R396996   6.829  10.580  -7.300
 8455CHOL    R496997   6.722  10.735  -7.196
 8455CHOL    R596998   6.856  10.576  -7.142
 8455CHOL    C196999   6.898  10.569  -6.906
 8455CHOL    C297000   6.939  10.563  -6.670
 8456CHOL   ROH97001  20.763  23.646   6.045
 8456CHOL    R197002  20.666  23.523   6.077
 8456CHOL    R297003  20.484  23.475   5.938
 8456CHOL    R397004  20.556  23.385   6.113
 8456CHOL    R497005  20.399  23.367   5.966
 8456CHOL    R597006  20.459  23.262   6.145
 8456CHOL    C197007  20.312  23.078   6.192
 8456CHOL    C297008  20.166  22.893   6.240
 8457CHOL   ROH97009   2.203  -3.607  18.632
 8457CHOL    R197010   2.272  -3.485  18.555
 8457CHOL    R297011   2.493  -3.425  18.599
 8457CHOL    R397012   2.350  -3.348  18.468
 8457CHOL    R497013   2.554  -3.318  18.532
 8457CHOL    R597014   2.419  -3.225  18.391
 8457CHOL    C197015   2.523  -3.042  18.276
 8457CHOL    C297016   2.626  -2.859  18.161
 8458CHOL   ROH97017  -4.173  -0.508  13.410
 8458CHOL    R197018  -4.046  -0.416  13.377
 8458CHOL    R297019  -3.865  -0.405  13.523
 8458CHOL    R397020  -3.903  -0.313  13.340
 8458CHOL    R497021  -3.754  -0.325  13.494
 8458CHOL    R597022  -3.777  -0.221  13.307
 8458CHOL    C197023  -3.586  -0.083  13.258
 8458CHOL    C297024  -3.396   0.055  13.208
 8459CHOL   ROH97025  27.580  11.095  10.987
 8459CHOL    R197026  27.420  11.087  10.978
 8459CHOL    R297027  27.297  11.262  10.886
 8459CHOL    R397028  27.241  11.078  10.967
 8459CHOL    R497029  27.157  11.255  10.878
 8459CHOL    R597030  27.081  11.070  10.958
 8459CHOL    C197031  26.842  11.059  10.944
 8459CHOL    C297032  26.603  11.047  10.930
 8460CHOL   ROH97033  23.406   1.832   1.621
 8460CHOL    R197034  23.287   1.905   1.699
 8460CHOL    R297035  23.289   2.136   1.732
 8460CHOL    R397036  23.153   1.988   1.787
 8460CHOL    R497037  23.185   2.200   1.800
 8460CHOL    R597038  23.034   2.061   1.864
 8460CHOL    C197039  22.855   2.171   1.981
 8460CHOL    C297040  22.677   2.281   2.098
 8461CHOL   ROH97041  18.253  15.241  24.753
 8461CHOL    R197042  18.170  15.194  24.625
 8461CHOL    R297043  18.108  15.346  24.459
 8461CHOL    R397044  18.077  15.140  24.480
 8461CHOL    R497045  18.035  15.304  24.347
 8461CHOL    R597046  17.994  15.093  24.352
 8461CHOL    C197047  17.870  15.022  24.160
 8461CHOL    C297048  17.745  14.951  23.967
 8462CHOL   ROH97049   2.083  -2.078  -0.577
 8462CHOL    R197050   2.154  -1.973  -0.480
 8462CHOL    R297051   2.222  -2.035  -0.265
 8462CHOL    R397052   2.235  -1.855  -0.370
 8462CHOL    R497053   2.285  -1.943  -0.180
 8462CHOL    R597054   2.306  -1.749  -0.273
 8462CHOL    C197055   2.413  -1.592  -0.127
 8462CHOL    C297056   2.520  -1.434   0.019
 8463CHOL   ROH97057  12.912  -2.612  22.063
 8463CHOL    R197058  12.887  -2.498  21.954
 8463CHOL    R297059  13.064  -2.370  21.872
 8463CHOL    R397060  12.860  -2.369  21.831
 8463CHOL    R497061  13.043  -2.270  21.777
 8463CHOL    R597062  12.835  -2.255  21.722
 8463CHOL    C197063  12.798  -2.083  21.558
 8463CHOL    C297064  12.761  -1.911  21.395
 8464CHOL   ROH97065   2.523  -1.040  -1.927
 8464CHOL    R197066   2.594  -0.942  -1.822
 8464CHOL    R297067   2.824  -0.948  -1.789
 8464CHOL    R397068   2.673  -0.833  -1.703
 8464CHOL    R497069   2.886  -0.863  -1.697
 8464CHOL    R597070   2.743  -0.735  -1.598
 8464CHOL    C197071   2.849  -0.589  -1.440
 8464CHOL    C297072   2.955  -0.442  -1.282
 8465CHOL   ROH97073   8.053  -7.031  15.156
 8465CHOL    R197074   8.071  -6.880  15.107
 8465CHOL    R297075   8.272  -6.806  15.015
 8465CHOL    R397076   8.091  -6.709  15.053
 8465CHOL    R497077   8.287  -6.674  14.972
 8465CHOL    R597078   8.108  -6.558  15.004
 8465CHOL    C197079   8.135  -6.331  14.931
 8465CHOL    C297080   8.162  -6.104  14.858
 8466CHOL   ROH97081  26.355   9.351   3.126
 8466CHOL    R197082  26.207   9.356   3.187
 8466CHOL    R297083  26.087   9.556   3.194
 8466CHOL    R397084  26.040   9.362   3.255
 8466CHOL    R497085  25.957   9.561   3.247
 8466CHOL    R597086  25.892   9.367   3.316
 8466CHOL    C197087  25.670   9.375   3.406
 8466CHOL    C297088  25.448   9.382   3.497
 8467CHOL   ROH97089  26.085   3.435  13.490
 8467CHOL    R197090  25.939   3.492  13.459
 8467CHOL    R297091  25.909   3.675  13.318
 8467CHOL    R397092  25.774   3.556  13.424
 8467CHOL    R497093  25.781   3.725  13.291
 8467CHOL    R597094  25.628   3.614  13.394
 8467CHOL    C197095  25.409   3.699  13.347
 8467CHOL    C297096  25.189   3.785  13.301
 8468CHOL   ROH97097  14.382  15.421  -6.443
 8468CHOL    R197098  14.344  15.371  -6.296
 8468CHOL    R297099  14.509  15.326  -6.137
 8468CHOL    R397100  14.300  15.314  -6.131
 8468CHOL    R497101  14.475  15.282  -6.009
 8468CHOL    R597102  14.262  15.264  -5.983
 8468CHOL    C197103  14.204  15.189  -5.763
 8468CHOL    C297104  14.147  15.113  -5.542
 8469CHOL   ROH97105   6.065  -6.391   3.948
 8469CHOL    R197106   6.099  -6.244   4.002
 8469CHOL    R297107   6.318  -6.183   4.053
 8469CHOL    R397108   6.137  -6.079   4.063
 8469CHOL    R497109   6.348  -6.054   4.100
 8469CHOL    R597110   6.171  -5.933   4.117
 8469CHOL    C197111   6.222  -5.712   4.197
 8469CHOL    C297112   6.273  -5.492   4.278
 8470CHOL   ROH97113  -4.975  17.326   3.395
 8470CHOL    R197114  -4.840  17.262   3.453
 8470CHOL    R297115  -4.717  17.373   3.617
 8470CHOL    R397116  -4.689  17.190   3.519
 8470CHOL    R497117  -4.599  17.317   3.668
 8470CHOL    R597118  -4.555  17.127   3.577
 8470CHOL    C197119  -4.353  17.031   3.665
 8470CHOL    C297120  -4.151  16.935   3.753
 8471CHOL   ROH97121  22.542  22.224  12.576
 8471CHOL    R197122  22.428  22.116  12.546
 8471CHOL    R297123  22.431  21.907  12.651
 8471CHOL    R397124  22.300  21.993  12.513
 8471CHOL    R497125  22.332  21.812  12.625
 8471CHOL    R597126  22.187  21.885  12.483
 8471CHOL    C197127  22.016  21.722  12.439
 8471CHOL    C297128  21.845  21.560  12.395
 8472CHOL   ROH97129   0.264  17.948  22.637
 8472CHOL    R197130   0.351  17.879  22.522
 8472CHOL    R297131   0.583  17.907  22.514
 8472CHOL    R397132   0.450  17.800  22.393
 8472CHOL    R497133   0.659  17.847  22.413
 8472CHOL    R597134   0.537  17.731  22.279
 8472CHOL    C197135   0.668  17.627  22.106
 8472CHOL    C297136   0.799  17.523  21.934
 8473CHOL   ROH97137  15.485  -6.784   7.625
 8473CHOL    R197138  15.432  -6.635   7.647
 8473CHOL    R297139  15.579  -6.453   7.642
 8473CHOL    R397140  15.372  -6.466   7.671
 8473CHOL    R497141  15.533  -6.323   7.661
 8473CHOL    R597142  15.320  -6.317   7.693
 8473CHOL    C197143  15.240  -6.093   7.726
 8473CHOL    C297144  15.161  -5.869   7.758
 8474CHOL   ROH97145  10.463  -7.390  14.046
 8474CHOL    R197146  10.456  -7.234  14.013
 8474CHOL    R297147  10.553  -7.147  13.820
 8474CHOL    R397148  10.447  -7.058  13.976
 8474CHOL    R497149  10.547  -7.010  13.791
 8474CHOL    R597150  10.440  -6.902  13.943
 8474CHOL    C197151  10.429  -6.667  13.894
 8474CHOL    C297152  10.418  -6.433  13.844
 8475CHOL   ROH97153   4.656  27.002   8.017
 8475CHOL    R197154   4.703  26.850   8.034
 8475CHOL    R297155   4.715  26.750   8.244
 8475CHOL    R397156   4.756  26.679   8.052
 8475CHOL    R497157   4.756  26.617   8.259
 8475CHOL    R597158   4.803  26.527   8.069
 8475CHOL    C197159   4.873  26.299   8.094
 8475CHOL    C297160   4.943  26.071   8.119
 8476CHOL   ROH97161  13.030  15.860  26.422
 8476CHOL    R197162  13.003  15.805  26.274
 8476CHOL    R297163  13.140  15.640  26.181
 8476CHOL    R397164  12.974  15.743  26.108
 8476CHOL    R497165  13.116  15.592  26.052
 8476CHOL    R597166  12.947  15.687  25.960
 8476CHOL    C197167  12.907  15.605  25.738
 8476CHOL    C297168  12.867  15.522  25.516
 8477CHOL   ROH97169   3.266   7.325  -6.470
 8477CHOL    R197170   3.325   7.347  -6.323
 8477CHOL    R297171   3.306   7.182  -6.160
 8477CHOL    R397172   3.391   7.372  -6.157
 8477CHOL    R497173   3.358   7.201  -6.031
 8477CHOL    R597174   3.450   7.395  -6.010
 8477CHOL    C197175   3.538   7.428  -5.789
 8477CHOL    C297176   3.627   7.461  -5.568
 8478CHOL   ROH97177  -6.820   4.179   7.701
 8478CHOL    R197178  -6.671   4.234   7.721
 8478CHOL    R297179  -6.521   4.124   7.861
 8478CHOL    R397180  -6.503   4.296   7.743
 8478CHOL    R497181  -6.390   4.172   7.878
 8478CHOL    R597182  -6.354   4.350   7.762
 8478CHOL    C197183  -6.131   4.433   7.792
 8478CHOL    C297184  -5.908   4.515   7.822
 8479CHOL   ROH97185  18.076  13.748  25.347
 8479CHOL    R197186  17.995  13.711  25.214
 8479CHOL    R297187  17.973  13.490  25.144
 8479CHOL    R397188  17.905  13.670  25.064
 8479CHOL    R497189  17.902  13.458  25.028
 8479CHOL    R597190  17.824  13.633  24.931
 8479CHOL    C197191  17.703  13.579  24.731
 8479CHOL    C297192  17.582  13.524  24.531
 8480CHOL   ROH97193  -1.472   3.018  -1.938
 8480CHOL    R197194  -1.375   3.084  -1.829
 8480CHOL    R297195  -1.411   3.052  -1.601
 8480CHOL    R397196  -1.266   3.158  -1.707
 8480CHOL    R497197  -1.326   3.110  -1.506
 8480CHOL    R597198  -1.168   3.224  -1.598
 8480CHOL    C197199  -1.023   3.323  -1.435
 8480CHOL    C297200  -0.877   3.422  -1.272
 8481CHOL   ROH97201  25.585   3.387   4.539
 8481CHOL    R197202  25.444   3.446   4.585
 8481CHOL    R297203  25.427   3.660   4.676
 8481CHOL    R397204  25.285   3.513   4.637
 8481CHOL    R497205  25.304   3.712   4.717
 8481CHOL    R597206  25.144   3.572   4.684
 8481CHOL    C197207  24.932   3.661   4.753
 8481CHOL    C297208  24.720   3.750   4.822
 8482CHOL   ROH97209  20.145  24.530  10.855
 8482CHOL    R197210  20.057  24.396  10.851
 8482CHOL    R297211  20.097  24.232  10.690
 8482CHOL    R397212  19.959  24.246  10.846
 8482CHOL    R497213  20.020  24.115  10.686
 8482CHOL    R597214  19.871  24.112  10.842
 8482CHOL    C197215  19.740  23.911  10.836
 8482CHOL    C297216  19.609  23.711  10.830
 8483CHOL   ROH97217   2.657  19.222  23.423
 8483CHOL    R197218   2.723  19.139  23.303
 8483CHOL    R297219   2.856  18.952  23.346
 8483CHOL    R397220   2.798  19.046  23.169
 8483CHOL    R497221   2.914  18.879  23.241
 8483CHOL    R597222   2.864  18.962  23.049
 8483CHOL    C197223   2.963  18.838  22.869
 8483CHOL    C297224   3.063  18.713  22.690
 8484CHOL   ROH97225  -2.027  22.180  15.327
 8484CHOL    R197226  -1.920  22.071  15.279
 8484CHOL    R297227  -1.864  21.889  15.414
 8484CHOL    R397228  -1.800  21.949  15.224
 8484CHOL    R497229  -1.771  21.794  15.371
 8484CHOL    R597230  -1.692  21.840  15.176
 8484CHOL    C197231  -1.532  21.678  15.104
 8484CHOL    C297232  -1.371  21.515  15.031
 8485CHOL   ROH97233  -7.934  10.130  11.677
 8485CHOL    R197234  -7.775  10.130  11.660
 8485CHOL    R297235  -7.643  10.292  11.764
 8485CHOL    R397236  -7.596  10.131  11.640
 8485CHOL    R497237  -7.504  10.292  11.749
 8485CHOL    R597238  -7.437  10.132  11.622
 8485CHOL    C197239  -7.198  10.132  11.596
 8485CHOL    C297240  -6.960  10.133  11.570
 8486CHOL   ROH97241  12.394  20.477  -4.273
 8486CHOL    R197242  12.373  20.382  -4.146
 8486CHOL    R297243  12.521  20.387  -3.966
 8486CHOL    R397244  12.349  20.275  -4.003
 8486CHOL    R497245  12.503  20.304  -3.855
 8486CHOL    R597246  12.328  20.180  -3.876
 8486CHOL    C197247  12.296  20.037  -3.685
 8486CHOL    C297248  12.265  19.895  -3.495
 8487CHOL   ROH97249   3.271  15.102  25.750
 8487CHOL    R197250   3.332  15.061  25.608
 8487CHOL    R297251   3.508  15.181  25.514
 8487CHOL    R397252   3.401  15.014  25.448
 8487CHOL    R497253   3.562  15.144  25.390
 8487CHOL    R597254   3.462  14.973  25.307
 8487CHOL    C197255   3.554  14.910  25.094
 8487CHOL    C297256   3.646  14.848  24.881
 8488CHOL   ROH97257   6.927   1.969  -5.795
 8488CHOL    R197258   6.950   2.038  -5.653
 8488CHOL    R297259   7.044   1.920  -5.475
 8488CHOL    R397260   6.976   2.117  -5.492
 8488CHOL    R497261   7.064   1.981  -5.351
 8488CHOL    R597262   6.998   2.186  -5.350
 8488CHOL    C197263   7.033   2.290  -5.136
 8488CHOL    C297264   7.067   2.394  -4.923
 8489CHOL   ROH97265   4.956  -1.136  -3.144
 8489CHOL    R197266   5.000  -1.036  -3.027
 8489CHOL    R297267   5.057  -1.116  -2.816
 8489CHOL    R397268   5.050  -0.923  -2.896
 8489CHOL    R497269   5.096  -1.028  -2.714
 8489CHOL    R597270   5.094  -0.823  -2.780
 8489CHOL    C197271   5.160  -0.673  -2.605
 8489CHOL    C297272   5.226  -0.523  -2.430
 8490CHOL   ROH97273  12.847  23.146  21.563
 8490CHOL    R197274  12.821  23.026  21.460
 8490CHOL    R297275  12.992  22.879  21.401
 8490CHOL    R397276  12.791  22.892  21.344
 8490CHOL    R497277  12.969  22.774  21.311
 8490CHOL    R597278  12.765  22.773  21.241
 8490CHOL    C197279  12.726  22.593  21.086
 8490CHOL    C297280  12.686  22.414  20.932
 8491CHOL   ROH97281   5.770   9.952  -7.440
 8491CHOL    R197282   5.806   9.953  -7.284
 8491CHOL    R297283   5.799   9.756  -7.159
 8491CHOL    R397284   5.846   9.953  -7.109
 8491CHOL    R497285   5.830   9.757  -7.022
 8491CHOL    R597286   5.881   9.954  -6.953
 8491CHOL    C197287   5.935   9.955  -6.719
 8491CHOL    C297288   5.989   9.956  -6.485
 8492CHOL   ROH97289   8.862  -4.654  -0.223
 8492CHOL    R197290   8.872  -4.522  -0.133
 8492CHOL    R297291   8.953  -4.533   0.086
 8492CHOL    R397292   8.883  -4.375  -0.031
 8492CHOL    R497293   8.962  -4.418   0.165
 8492CHOL    R597294   8.894  -4.243   0.060
 8492CHOL    C197295   8.909  -4.046   0.195
 8492CHOL    C297296   8.924  -3.848   0.331
 8493CHOL   ROH97297  -6.227   9.007  17.587
 8493CHOL    R197298  -6.082   9.016  17.520
 8493CHOL    R297299  -5.966   9.218  17.510
 8493CHOL    R397300  -5.919   9.026  17.444
 8493CHOL    R497301  -5.839   9.226  17.452
 8493CHOL    R597302  -5.774   9.035  17.377
 8493CHOL    C197303  -5.557   9.048  17.276
 8493CHOL    C297304  -5.339   9.062  17.175
 8494CHOL   ROH97305  -0.712  22.321   2.656
 8494CHOL    R197306  -0.620  22.207   2.720
 8494CHOL    R297307  -0.389  22.237   2.740
 8494CHOL    R397308  -0.515  22.079   2.791
 8494CHOL    R497309  -0.308  22.137   2.796
 8494CHOL    R597310  -0.423  21.965   2.855
 8494CHOL    C197311  -0.284  21.794   2.951
 8494CHOL    C297312  -0.146  21.623   3.046
 8495CHOL   ROH97313   6.633  14.116  -7.162
 8495CHOL    R197314   6.661  14.079  -7.009
 8495CHOL    R297315   6.775  14.227  -6.869
 8495CHOL    R397316   6.693  14.037  -6.837
 8495CHOL    R497317   6.800  14.194  -6.735
 8495CHOL    R597318   6.721  14.001  -6.684
 8495CHOL    C197319   6.763  13.945  -6.454
 8495CHOL    C297320   6.805  13.890  -6.224
 8496CHOL   ROH97321  21.362  23.606  11.171
 8496CHOL    R197322  21.260  23.483  11.159
 8496CHOL    R297323  21.313  23.296  11.030
 8496CHOL    R397324  21.145  23.346  11.144
 8496CHOL    R497325  21.223  23.189  11.019
 8496CHOL    R597326  21.043  23.223  11.132
 8496CHOL    C197327  20.890  23.039  11.113
 8496CHOL    C297328  20.737  22.855  11.095
 8497CHOL   ROH97329  24.460  15.787   1.441
 8497CHOL    R197330  24.330  15.736   1.518
 8497CHOL    R297331  24.153  15.637   1.403
 8497CHOL    R397332  24.183  15.679   1.606
 8497CHOL    R497333  24.039  15.592   1.471
 8497CHOL    R597334  24.053  15.628   1.683
 8497CHOL    C197335  23.857  15.552   1.799
 8497CHOL    C297336  23.661  15.475   1.915
 8498CHOL   ROH97337   9.838  17.319  26.213
 8498CHOL    R197338   9.834  17.258  26.065
 8498CHOL    R297339  10.030  17.223  25.944
 8498CHOL    R397340   9.828  17.190  25.898
 8498CHOL    R497341  10.026  17.170  25.814
 8498CHOL    R597342   9.824  17.129  25.750
 8498CHOL    C197343   9.817  17.039  25.528
 8498CHOL    C297344   9.811  16.948  25.306
 8499CHOL   ROH97345   9.468  -7.303  14.521
 8499CHOL    R197346   9.470  -7.147  14.484
 8499CHOL    R297347   9.666  -7.022  14.501
 8499CHOL    R397348   9.472  -6.972  14.443
 8499CHOL    R497349   9.668  -6.886  14.468
 8499CHOL    R597350   9.473  -6.817  14.406
 8499CHOL    C197351   9.476  -6.583  14.351
 8499CHOL    C297352   9.479  -6.349  14.296
 8500CHOL   ROH97353   8.910  16.711  26.451
 8500CHOL    R197354   8.914  16.656  26.301
 8500CHOL    R297355   8.986  16.791  26.125
 8500CHOL    R397356   8.919  16.594  26.132
 8500CHOL    R497357   8.989  16.743  25.994
 8500CHOL    R597358   8.923  16.538  25.982
 8500CHOL    C197359   8.929  16.456  25.757
 8500CHOL    C297360   8.935  16.373  25.532
 8501CHOL   ROH97361  -2.583  18.678  19.347
 8501CHOL    R197362  -2.472  18.599  19.262
 8501CHOL    R297363  -2.268  18.698  19.211
 8501CHOL    R397364  -2.348  18.511  19.167
 8501CHOL    R497365  -2.171  18.630  19.137
 8501CHOL    R597366  -2.237  18.432  19.082
 8501CHOL    C197367  -2.072  18.314  18.955
 8501CHOL    C297368  -1.906  18.196  18.828
 8502CHOL   ROH97369  13.064  22.995  -1.935
 8502CHOL    R197370  13.040  22.879  -1.827
 8502CHOL    R297371  13.069  22.655  -1.884
 8502CHOL    R397372  13.014  22.749  -1.706
 8502CHOL    R497373  13.048  22.554  -1.790
 8502CHOL    R597374  12.990  22.633  -1.598
 8502CHOL    C197375  12.955  22.459  -1.436
 8502CHOL    C297376  12.920  22.285  -1.274
 8503CHOL   ROH97377   8.307   2.426  -6.158
 8503CHOL    R197378   8.317   2.491  -6.012
 8503CHOL    R297379   8.517   2.582  -5.935
 8503CHOL    R397380   8.328   2.564  -5.848
 8503CHOL    R497381   8.525   2.639  -5.807
 8503CHOL    R597382   8.338   2.629  -5.702
 8503CHOL    C197383   8.352   2.726  -5.483
 8503CHOL    C297384   8.367   2.823  -5.264
 8504CHOL   ROH97385  23.284  20.998   5.983
 8504CHOL    R197386  23.161  20.903   6.020
 8504CHOL    R297387  23.153  20.682   5.945
 8504CHOL    R397388  23.022  20.796   6.061
 8504CHOL    R497389  23.045  20.599   5.977
 8504CHOL    R597390  22.898  20.700   6.098
 8504CHOL    C197391  22.713  20.558   6.153
 8504CHOL    C297392  22.528  20.415   6.208
 8505CHOL   ROH97393  21.578  22.783   5.597
 8505CHOL    R197394  21.470  22.672   5.637
 8505CHOL    R297395  21.525  22.496   5.780
 8505CHOL    R397396  21.348  22.547   5.681
 8505CHOL    R497397  21.431  22.399   5.814
 8505CHOL    R597398  21.240  22.436   5.721
 8505CHOL    C197399  21.078  22.269   5.780
 8505CHOL    C297400  20.916  22.102   5.839
 8506CHOL   ROH97401  -0.449  23.884   5.886
 8506CHOL    R197402  -0.357  23.758   5.921
 8506CHOL    R297403  -0.125  23.775   5.923
 8506CHOL    R397404  -0.255  23.615   5.961
 8506CHOL    R497405  -0.045  23.664   5.954
 8506CHOL    R597406  -0.163  23.489   5.996
 8506CHOL    C197407  -0.026  23.299   6.050
 8506CHOL    C297408   0.112  23.110   6.103
 8507CHOL   ROH97409  26.380  16.686  10.158
 8507CHOL    R197410  26.232  16.626  10.159
 8507CHOL    R297411  26.193  16.400  10.116
 8507CHOL    R397412  26.065  16.559  10.161
 8507CHOL    R497413  26.063  16.348  10.118
 8507CHOL    R597414  25.917  16.499  10.162
 8507CHOL    C197415  25.694  16.409  10.165
 8507CHOL    C297416  25.472  16.319  10.167
 8508CHOL   ROH97417   9.113  -5.091   0.414
 8508CHOL    R197418   9.121  -4.956   0.499
 8508CHOL    R297419   9.248  -4.945   0.695
 8508CHOL    R397420   9.130  -4.804   0.595
 8508CHOL    R497421   9.255  -4.826   0.769
 8508CHOL    R597422   9.139  -4.668   0.680
 8508CHOL    C197423   9.151  -4.466   0.808
 8508CHOL    C297424   9.163  -4.263   0.935
 8509CHOL   ROH97425  18.226  -5.725   8.688
 8509CHOL    R197426  18.152  -5.584   8.699
 8509CHOL    R297427  18.231  -5.397   8.585
 8509CHOL    R397428  18.068  -5.425   8.712
 8509CHOL    R497429  18.167  -5.273   8.595
 8509CHOL    R597430  17.994  -5.284   8.723
 8509CHOL    C197431  17.883  -5.072   8.741
 8509CHOL    C297432  17.771  -4.860   8.758
 8510CHOL   ROH97433  25.264  18.589   7.599
 8510CHOL    R197434  25.126  18.512   7.622
 8510CHOL    R297435  25.033  18.379   7.453
 8510CHOL    R397436  24.970  18.424   7.647
 8510CHOL    R497437  24.912  18.311   7.473
 8510CHOL    R597438  24.832  18.347   7.670
 8510CHOL    C197439  24.625  18.231   7.704
 8510CHOL    C297440  24.417  18.115   7.738
 8511CHOL   ROH97441   4.932  27.101   8.184
 8511CHOL    R197442   4.976  26.948   8.199
 8511CHOL    R297443   4.994  26.849   8.409
 8511CHOL    R397444   5.025  26.776   8.216
 8511CHOL    R497445   5.033  26.715   8.423
 8511CHOL    R597446   5.069  26.622   8.232
 8511CHOL    C197447   5.135  26.393   8.254
 8511CHOL    C297448   5.201  26.163   8.277
 8512CHOL   ROH97449  -6.765   4.739  13.620
 8512CHOL    R197450  -6.616   4.787  13.588
 8512CHOL    R297451  -6.487   4.895  13.750
 8512CHOL    R397452  -6.447   4.840  13.553
 8512CHOL    R497453  -6.357   4.936  13.723
 8512CHOL    R597454  -6.298   4.887  13.521
 8512CHOL    C197455  -6.074   4.959  13.474
 8512CHOL    C297456  -5.850   5.030  13.427
 8513CHOL   ROH97457  -3.685  19.510  16.631
 8513CHOL    R197458  -3.563  19.425  16.572
 8513CHOL    R297459  -3.376  19.530  16.481
 8513CHOL    R397460  -3.426  19.328  16.506
 8513CHOL    R497461  -3.270  19.455  16.430
 8513CHOL    R597462  -3.305  19.243  16.447
 8513CHOL    C197463  -3.122  19.115  16.359
 8513CHOL    C297464  -2.939  18.987  16.270
 8514CHOL   ROH97465   6.568  18.272  25.448
 8514CHOL    R197466   6.596  18.195  25.310
 8514CHOL    R297467   6.813  18.174  25.227
 8514CHOL    R397468   6.628  18.109  25.156
 8514CHOL    R497469   6.838  18.107  25.107
 8514CHOL    R597470   6.656  18.033  25.018
 8514CHOL    C197471   6.699  17.918  24.812
 8514CHOL    C297472   6.741  17.803  24.605
 8515CHOL   ROH97473   5.139  -1.778  -2.630
 8515CHOL    R197474   5.181  -1.671  -2.518
 8515CHOL    R297475   5.138  -1.710  -2.293
 8515CHOL    R397476   5.228  -1.551  -2.393
 8515CHOL    R497477   5.175  -1.617  -2.195
 8515CHOL    R597478   5.271  -1.445  -2.282
 8515CHOL    C197479   5.334  -1.284  -2.114
 8515CHOL    C297480   5.397  -1.124  -1.947
 8516CHOL   ROH97481  -1.605   5.854  22.919
 8516CHOL    R197482  -1.504   5.896  22.802
 8516CHOL    R297483  -1.277   5.926  22.844
 8516CHOL    R397484  -1.391   5.943  22.670
 8516CHOL    R497485  -1.189   5.963  22.742
 8516CHOL    R597486  -1.291   5.986  22.553
 8516CHOL    C197487  -1.140   6.049  22.377
 8516CHOL    C297488  -0.989   6.112  22.202
 8517CHOL   ROH97489  19.723  -4.737  11.988
 8517CHOL    R197490  19.635  -4.605  11.970
 8517CHOL    R297491  19.732  -4.407  11.892
 8517CHOL    R397492  19.537  -4.455  11.949
 8517CHOL    R497493  19.655  -4.291  11.876
 8517CHOL    R597494  19.449  -4.323  11.931
 8517CHOL    C197495  19.317  -4.124  11.904
 8517CHOL    C297496  19.186  -3.926  11.876
 8518CHOL   ROH97497  27.149   8.039  13.995
 8518CHOL    R197498  26.993   8.056  13.962
 8518CHOL    R297499  26.900   7.959  13.771
 8518CHOL    R397500  26.819   8.075  13.924
 8518CHOL    R497501  26.764   7.974  13.742
 8518CHOL    R597502  26.663   8.092  13.890
 8518CHOL    C197503  26.430   8.118  13.840
 8518CHOL    C297504  26.196   8.144  13.790
 8519CHOL   ROH97505  -1.402   1.979  -1.321
 8519CHOL    R197506  -1.305   2.053  -1.217
 8519CHOL    R297507  -1.083   1.987  -1.193
 8519CHOL    R397508  -1.196   2.135  -1.100
 8519CHOL    R497509  -0.998   2.051  -1.102
 8519CHOL    R597510  -1.099   2.209  -0.996
 8519CHOL    C197511  -0.954   2.319  -0.840
 8519CHOL    C297512  -0.809   2.430  -0.684
 8520CHOL   ROH97513   3.220  -3.222  -0.066
 8520CHOL    R197514   3.282  -3.108   0.028
 8520CHOL    R297515   3.256  -3.115   0.259
 8520CHOL    R397516   3.352  -2.980   0.133
 8520CHOL    R497517   3.310  -3.016   0.341
 8520CHOL    R597518   3.414  -2.866   0.227
 8520CHOL    C197519   3.507  -2.695   0.367
 8520CHOL    C297520   3.600  -2.524   0.507
 8521CHOL   ROH97521  11.487  -3.536  -1.636
 8521CHOL    R197522  11.472  -3.415  -1.532
 8521CHOL    R297523  11.626  -3.385  -1.360
 8521CHOL    R397524  11.455  -3.279  -1.416
 8521CHOL    R497525  11.612  -3.279  -1.269
 8521CHOL    R597526  11.440  -3.158  -1.312
 8521CHOL    C197527  11.417  -2.977  -1.156
 8521CHOL    C297528  11.394  -2.795  -1.001
 8522CHOL   ROH97529  13.545  23.724  20.652
 8522CHOL    R197530  13.513  23.600  20.556
 8522CHOL    R297531  13.530  23.381  20.633
 8522CHOL    R397532  13.478  23.461  20.447
 8522CHOL    R497533  13.502  23.272  20.549
 8522CHOL    R597534  13.446  23.337  20.351
 8522CHOL    C197535  13.398  23.151  20.207
 8522CHOL    C297536  13.351  22.965  20.062
 8523CHOL   ROH97537   2.046   2.453  24.112
 8523CHOL    R197538   2.123   2.518  23.988
 8523CHOL    R297539   2.214   2.732  24.001
 8523CHOL    R397540   2.210   2.590  23.848
 8523CHOL    R497541   2.282   2.788  23.892
 8523CHOL    R597542   2.288   2.655  23.724
 8523CHOL    C197543   2.403   2.752  23.537
 8523CHOL    C297544   2.519   2.849  23.351
 8524CHOL   ROH97545  26.935  15.114  11.011
 8524CHOL    R197546  26.782  15.069  10.999
 8524CHOL    R297547  26.716  14.912  10.839
 8524CHOL    R397548  26.610  15.017  10.985
 8524CHOL    R497549  26.582  14.872  10.829
 8524CHOL    R597550  26.457  14.972  10.973
 8524CHOL    C197551  26.228  14.904  10.955
 8524CHOL    C297552  25.998  14.836  10.937
 8525CHOL   ROH97553  17.026  13.726  25.911
 8525CHOL    R197554  16.960  13.691  25.769
 8525CHOL    R297555  16.936  13.470  25.699
 8525CHOL    R397556  16.886  13.653  25.610
 8525CHOL    R497557  16.878  13.440  25.575
 8525CHOL    R597558  16.820  13.618  25.468
 8525CHOL    C197559  16.722  13.566  25.255
 8525CHOL    C297560  16.623  13.514  25.043
 8526CHOL   ROH97561  27.023  13.405  13.310
 8526CHOL    R197562  26.869  13.376  13.279
 8526CHOL    R297563  26.783  13.159  13.290
 8526CHOL    R397564  26.695  13.343  13.244
 8526CHOL    R497565  26.648  13.133  13.263
 8526CHOL    R597566  26.541  13.313  13.213
 8526CHOL    C197567  26.310  13.270  13.167
 8526CHOL    C297568  26.078  13.226  13.121
 8527CHOL   ROH97569   5.318   4.376  26.204
 8527CHOL    R197570   5.351   4.428  26.056
 8527CHOL    R297571   5.560   4.517  26.004
 8527CHOL    R397572   5.388   4.485  25.890
 8527CHOL    R497573   5.589   4.562  25.875
 8527CHOL    R597574   5.421   4.537  25.742
 8527CHOL    C197575   5.470   4.614  25.520
 8527CHOL    C297576   5.520   4.692  25.298
 8528CHOL   ROH97577   3.331  -5.081  16.981
 8528CHOL    R197578   3.389  -4.946  16.918
 8528CHOL    R297579   3.619  -4.905  16.913
 8528CHOL    R397580   3.455  -4.794  16.847
 8528CHOL    R497581   3.670  -4.787  16.858
 8528CHOL    R597582   3.513  -4.659  16.784
 8528CHOL    C197583   3.601  -4.456  16.689
 8528CHOL    C297584   3.689  -4.254  16.595
 8529CHOL   ROH97585  -4.512   0.974  15.426
 8529CHOL    R197586  -4.382   1.054  15.378
 8529CHOL    R297587  -4.280   1.211  15.516
 8529CHOL    R397588  -4.236   1.144  15.323
 8529CHOL    R497589  -4.166   1.281  15.474
 8529CHOL    R597590  -4.106   1.224  15.275
 8529CHOL    C197591  -3.912   1.345  15.203
 8529CHOL    C297592  -3.717   1.465  15.130
 8530CHOL   ROH97593  -3.902  10.682  21.216
 8530CHOL    R197594  -3.778  10.674  21.115
 8530CHOL    R297595  -3.668  10.868  21.045
 8530CHOL    R397596  -3.639  10.666  21.001
 8530CHOL    R497597  -3.560  10.861  20.957
 8530CHOL    R597598  -3.515  10.658  20.900
 8530CHOL    C197599  -3.329  10.646  20.749
 8530CHOL    C297600  -3.143  10.635  20.598
 8531CHOL   ROH97601  11.744  -7.767  10.276
 8531CHOL    R197602  11.732  -7.607  10.271
 8531CHOL    R297603  11.786  -7.489  10.078
 8531CHOL    R397604  11.718  -7.428  10.266
 8531CHOL    R497605  11.775  -7.349  10.074
 8531CHOL    R597606  11.706  -7.269  10.261
 8531CHOL    C197607  11.688  -7.029  10.254
 8531CHOL    C297608  11.670  -6.790  10.247
 8532CHOL   ROH97609  -1.233  23.350  14.240
 8532CHOL    R197610  -1.136  23.230  14.197
 8532CHOL    R297611  -1.091  23.054  14.344
 8532CHOL    R397612  -1.027  23.095  14.150
 8532CHOL    R497613  -1.006  22.949  14.306
 8532CHOL    R597614  -0.929  22.975  14.107
 8532CHOL    C197615  -0.784  22.796  14.043
 8532CHOL    C297616  -0.638  22.616  13.979
 8533CHOL   ROH97617  24.954  10.756  19.473
 8533CHOL    R197618  24.819  10.752  19.387
 8533CHOL    R297619  24.819  10.808  19.161
 8533CHOL    R397620  24.667  10.748  19.291
 8533CHOL    R497621  24.701  10.805  19.086
 8533CHOL    R597622  24.532  10.744  19.205
 8533CHOL    C197623  24.329  10.738  19.076
 8533CHOL    C297624  24.127  10.732  18.948
 8534CHOL   ROH97625  20.592  16.572  22.459
 8534CHOL    R197626  20.496  16.516  22.344
 8534CHOL    R297627  20.583  16.432  22.145
 8534CHOL    R397628  20.388  16.453  22.215
 8534CHOL    R497629  20.499  16.383  22.044
 8534CHOL    R597630  20.291  16.397  22.100
 8534CHOL    C197631  20.147  16.314  21.927
 8534CHOL    C297632  20.003  16.230  21.754
 8535CHOL   ROH97633   9.031  -3.914  21.117
 8535CHOL    R197634   9.036  -3.790  21.016
 8535CHOL    R297635   9.142  -3.809  20.808
 8535CHOL    R397636   9.042  -3.651  20.901
 8535CHOL    R497637   9.146  -3.701  20.720
 8535CHOL    R597638   9.048  -3.528  20.800
 8535CHOL    C197639   9.055  -3.342  20.648
 8535CHOL    C297640   9.063  -3.156  20.496
 8536CHOL   ROH97641  -5.483  14.917   2.338
 8536CHOL    R197642  -5.344  14.870   2.402
 8536CHOL    R297643  -5.305  14.889   2.631
 8536CHOL    R397644  -5.188  14.818   2.474
 8536CHOL    R497645  -5.183  14.848   2.687
 8536CHOL    R597646  -5.048  14.771   2.538
 8536CHOL    C197647  -4.840  14.701   2.634
 8536CHOL    C297648  -4.631  14.631   2.730
 8537CHOL   ROH97649   4.737  17.105  25.573
 8537CHOL    R197650   4.783  17.040  25.434
 8537CHOL    R297651   4.997  16.951  25.409
 8537CHOL    R397652   4.835  16.967  25.279
 8537CHOL    R497653   5.038  16.894  25.288
 8537CHOL    R597654   4.882  16.902  25.140
 8537CHOL    C197655   4.951  16.804  24.932
 8537CHOL    C297656   5.020  16.706  24.724
 8538CHOL   ROH97657  -3.055  -2.036  12.763
 8538CHOL    R197658  -2.940  -1.927  12.738
 8538CHOL    R297659  -2.791  -1.870  12.908
 8538CHOL    R397660  -2.811  -1.805  12.710
 8538CHOL    R497661  -2.690  -1.775  12.886
 8538CHOL    R597662  -2.696  -1.696  12.686
 8538CHOL    C197663  -2.524  -1.534  12.648
 8538CHOL    C297664  -2.352  -1.371  12.611
 8539CHOL   ROH97665   0.394  15.669  23.887
 8539CHOL    R197666   0.481  15.618  23.763
 8539CHOL    R297667   0.707  15.564  23.789
 8539CHOL    R397668   0.579  15.561  23.623
 8539CHOL    R497669   0.783  15.519  23.680
 8539CHOL    R597670   0.667  15.510  23.499
 8539CHOL    C197671   0.797  15.434  23.313
 8539CHOL    C297672   0.928  15.357  23.127
 8540CHOL   ROH97673   1.555  21.721  20.558
 8540CHOL    R197674   1.628  21.616  20.461
 8540CHOL    R297675   1.768  21.451  20.547
 8540CHOL    R397676   1.710  21.498  20.353
 8540CHOL    R497677   1.832  21.359  20.463
 8540CHOL    R597678   1.783  21.393  20.256
 8540CHOL    C197679   1.892  21.236  20.111
 8540CHOL    C297680   2.001  21.079  19.966
 8541CHOL   ROH97681  22.606   2.679  20.038
 8541CHOL    R197682  22.493   2.741  19.943
 8541CHOL    R297683  22.467   2.667  19.724
 8541CHOL    R397684  22.366   2.810  19.836
 8541CHOL    R497685  22.368   2.721  19.641
 8541CHOL    R597686  22.253   2.872  19.741
 8541CHOL    C197687  22.084   2.965  19.599
 8541CHOL    C297688  21.914   3.057  19.457
 8542CHOL   ROH97689   7.973   5.207  26.979
 8542CHOL    R197690   7.993   5.254  26.827
 8542CHOL    R297691   8.088   5.112  26.669
 8542CHOL    R397692   8.016   5.308  26.657
 8542CHOL    R497693   8.106   5.154  26.536
 8542CHOL    R597694   8.036   5.355  26.505
 8542CHOL    C197695   8.066   5.426  26.278
 8542CHOL    C297696   8.096   5.497  26.051
 8543CHOL   ROH97697   7.233  -3.907  -0.950
 8543CHOL    R197698   7.256  -3.782  -0.853
 8543CHOL    R297699   7.460  -3.670  -0.848
 8543CHOL    R397700   7.282  -3.640  -0.744
 8543CHOL    R497701   7.480  -3.560  -0.763
 8543CHOL    R597702   7.304  -3.515  -0.648
 8543CHOL    C197703   7.339  -3.327  -0.502
 8543CHOL    C297704   7.373  -3.139  -0.357
 8544CHOL   ROH97705   7.406  27.121   5.454
 8544CHOL    R197706   7.427  26.967   5.493
 8544CHOL    R297707   7.622  26.854   5.433
 8544CHOL    R397708   7.451  26.794   5.537
 8544CHOL    R497709   7.641  26.720   5.467
 8544CHOL    R597710   7.473  26.641   5.575
 8544CHOL    C197711   7.504  26.410   5.634
 8544CHOL    C297712   7.536  26.179   5.692
 8545CHOL   ROH97713  24.669  17.486   3.306
 8545CHOL    R197714  24.536  17.418   3.363
 8545CHOL    R297715  24.325  17.492   3.296
 8545CHOL    R397716  24.386  17.340   3.427
 8545CHOL    R497717  24.209  17.432   3.346
 8545CHOL    R597718  24.254  17.272   3.484
 8545CHOL    C197719  24.054  17.169   3.569
 8545CHOL    C297720  23.855  17.067   3.654
 8546CHOL   ROH97721  13.056  26.337   3.704
 8546CHOL    R197722  13.024  26.190   3.760
 8546CHOL    R297723  13.183  26.072   3.883
 8546CHOL    R397724  12.989  26.026   3.822
 8546CHOL    R497725  13.155  25.944   3.931
 8546CHOL    R597726  12.957  25.879   3.878
 8546CHOL    C197727  12.909  25.659   3.962
 8546CHOL    C297728  12.862  25.439   4.045
 8547CHOL   ROH97729  -7.296   8.989   5.240
 8547CHOL    R197730  -7.142   8.994   5.283
 8547CHOL    R297731  -7.069   8.894   5.480
 8547CHOL    R397732  -6.969   9.000   5.331
 8547CHOL    R497733  -6.934   8.898   5.517
 8547CHOL    R597734  -6.815   9.005   5.374
 8547CHOL    C197735  -6.583   9.013   5.438
 8547CHOL    C297736  -6.352   9.020   5.502
 8548CHOL   ROH97737  15.067   9.243  -7.141
 8548CHOL    R197738  15.014   9.251  -6.990
 8548CHOL    R297739  14.859   9.097  -6.909
 8548CHOL    R397740  14.954   9.260  -6.821
 8548CHOL    R497741  14.813   9.104  -6.777
 8548CHOL    R597742  14.901   9.269  -6.670
 8548CHOL    C197743  14.822   9.281  -6.444
 8548CHOL    C297744  14.743   9.293  -6.218
 8549CHOL   ROH97745  10.654   6.573  27.457
 8549CHOL    R197746  10.648   6.605  27.300
 8549CHOL    R297747  10.671   6.823  27.221
 8549CHOL    R397748  10.642   6.641  27.124
 8549CHOL    R497749  10.666   6.851  27.084
 8549CHOL    R597750  10.637   6.672  26.968
 8549CHOL    C197751  10.628   6.720  26.733
 8549CHOL    C297752  10.620   6.768  26.498
 8550CHOL   ROH97753  20.183  -3.958  14.086
 8550CHOL    R197754  20.092  -3.832  14.047
 8550CHOL    R297755  20.187  -3.624  14.003
 8550CHOL    R397756  19.989  -3.691  14.004
 8550CHOL    R497757  20.107  -3.514  13.970
 8550CHOL    R597758  19.898  -3.565  13.966
 8550CHOL    C197759  19.761  -3.376  13.908
 8550CHOL    C297760  19.624  -3.188  13.850
 8551CHOL   ROH97761  -3.707   4.031  19.959
 8551CHOL    R197762  -3.590   4.086  19.865
 8551CHOL    R297763  -3.368   4.021  19.898
 8551CHOL    R397764  -3.458   4.149  19.759
 8551CHOL    R497765  -3.266   4.069  19.816
 8551CHOL    R597766  -3.341   4.204  19.666
 8551CHOL    C197767  -3.165   4.287  19.525
 8551CHOL    C297768  -2.990   4.370  19.384
 8552CHOL   ROH97769  -4.834   3.890  18.179
 8552CHOL    R197770  -4.704   3.949  18.107
 8552CHOL    R297771  -4.562   3.811  17.984
 8552CHOL    R397772  -4.558   4.015  18.025
 8552CHOL    R497773  -4.448   3.862  17.921
 8552CHOL    R597774  -4.428   4.074  17.953
 8552CHOL    C197775  -4.233   4.163  17.845
 8552CHOL    C297776  -4.038   4.252  17.736
 8553CHOL   ROH97777   6.747   6.554  27.155
 8553CHOL    R197778   6.775   6.587  27.001
 8553CHOL    R297779   6.992   6.589  26.916
 8553CHOL    R397780   6.806   6.624  26.828
 8553CHOL    R497781   7.016   6.618  26.781
 8553CHOL    R597782   6.834   6.657  26.674
 8553CHOL    C197783   6.876   6.707  26.442
 8553CHOL    C297784   6.918   6.757  26.211
 8554CHOL   ROH97785  -6.494  17.195  10.074
 8554CHOL    R197786  -6.347  17.132  10.071
 8554CHOL    R297787  -6.162  17.255  10.144
 8554CHOL    R397788  -6.182  17.061  10.068
 8554CHOL    R497789  -6.034  17.200  10.141
 8554CHOL    R597790  -6.035  16.998  10.065
 8554CHOL    C197791  -5.814  16.903  10.061
 8554CHOL    C297792  -5.593  16.809  10.057
 8555CHOL   ROH97793   1.090  13.843  -5.096
 8555CHOL    R197794   1.171  13.811  -4.962
 8555CHOL    R297795   1.067  13.822  -4.753
 8555CHOL    R397796   1.262  13.775  -4.810
 8555CHOL    R497797   1.137  13.794  -4.636
 8555CHOL    R597798   1.342  13.743  -4.676
 8555CHOL    C197799   1.464  13.695  -4.474
 8555CHOL    C297800   1.585  13.647  -4.273
 8556CHOL   ROH97801  -2.694  22.302  13.169
 8556CHOL    R197802  -2.579  22.195  13.138
 8556CHOL    R297803  -2.355  22.243  13.186
 8556CHOL    R397804  -2.449  22.076  13.103
 8556CHOL    R497805  -2.255  22.149  13.159
 8556CHOL    R597806  -2.334  21.969  13.072
 8556CHOL    C197807  -2.161  21.809  13.025
 8556CHOL    C297808  -1.988  21.649  12.979
 8557CHOL   ROH97809  23.762  -1.054   8.081
 8557CHOL    R197810  23.636  -0.956   8.098
 8557CHOL    R297811  23.564  -0.822   7.922
 8557CHOL    R397812  23.495  -0.847   8.117
 8557CHOL    R497813  23.454  -0.736   7.937
 8557CHOL    R597814  23.369  -0.749   8.135
 8557CHOL    C197815  23.181  -0.603   8.160
 8557CHOL    C297816  22.993  -0.456   8.186
 8558CHOL   ROH97817  15.944  25.536   3.749
 8558CHOL    R197818  15.893  25.394   3.802
 8558CHOL    R297819  15.861  25.215   3.656
 8558CHOL    R397820  15.836  25.234   3.863
 8558CHOL    R497821  15.817  25.091   3.703
 8558CHOL    R597822  15.785  25.093   3.916
 8558CHOL    C197823  15.709  24.880   3.996
 8558CHOL    C297824  15.632  24.667   4.076
 8559CHOL   ROH97825  26.817  14.380   6.342
 8559CHOL    R197826  26.665  14.338   6.372
 8559CHOL    R297827  26.507  14.333   6.201
 8559CHOL    R397828  26.495  14.292   6.405
 8559CHOL    R497829  26.374  14.297   6.226
 8559CHOL    R597830  26.343  14.250   6.434
 8559CHOL    C197831  26.115  14.188   6.479
 8559CHOL    C297832  25.888  14.125   6.523
 8560CHOL   ROH97833  -7.468   6.165  11.651
 8560CHOL    R197834  -7.313   6.201  11.634
 8560CHOL    R297835  -7.147   6.054  11.708
 8560CHOL    R397836  -7.139   6.241  11.615
 8560CHOL    R497837  -7.012   6.085  11.693
 8560CHOL    R597838  -6.983   6.276  11.598
 8560CHOL    C197839  -6.751   6.330  11.573
 8560CHOL    C297840  -6.518   6.384  11.547
 8561CHOL   ROH97841  13.809  19.073  -4.900
 8561CHOL    R197842  13.775  18.993  -4.766
 8561CHOL    R297843  13.930  18.977  -4.593
 8561CHOL    R397844  13.737  18.902  -4.615
 8561CHOL    R497845  13.900  18.906  -4.475
 8561CHOL    R597846  13.703  18.821  -4.481
 8561CHOL    C197847  13.651  18.701  -4.280
 8561CHOL    C297848  13.600  18.580  -4.079
 8562CHOL   ROH97849  26.328   5.560   4.600
 8562CHOL    R197850  26.179   5.598   4.645
 8562CHOL    R297851  26.000   5.455   4.600
 8562CHOL    R397852  26.012   5.640   4.696
 8562CHOL    R497853  25.870   5.488   4.639
 8562CHOL    R597854  25.863   5.678   4.741
 8562CHOL    C197855  25.640   5.735   4.809
 8562CHOL    C297856  25.417   5.791   4.876
 8563CHOL   ROH97857  25.597  18.009  12.506
 8563CHOL    R197858  25.456  17.937  12.482
 8563CHOL    R297859  25.387  17.877  12.268
 8563CHOL    R397860  25.298  17.855  12.455
 8563CHOL    R497861  25.264  17.814  12.247
 8563CHOL    R597862  25.158  17.783  12.431
 8563CHOL    C197863  24.947  17.675  12.396
 8563CHOL    C297864  24.736  17.566  12.360
 8564CHOL   ROH97865   6.097  24.673  19.402
 8564CHOL    R197866   6.130  24.542  19.317
 8564CHOL    R297867   6.348  24.458  19.304
 8564CHOL    R397868   6.167  24.394  19.220
 8564CHOL    R497869   6.377  24.344  19.230
 8564CHOL    R597870   6.201  24.263  19.135
 8564CHOL    C197871   6.250  24.066  19.007
 8564CHOL    C297872   6.300  23.869  18.879
 8565CHOL   ROH97873  16.594   4.610  -5.668
 8565CHOL    R197874  16.533   4.654  -5.527
 8565CHOL    R297875  16.663   4.768  -5.370
 8565CHOL    R397876  16.464   4.702  -5.367
 8565CHOL    R497877  16.610   4.806  -5.246
 8565CHOL    R597878  16.403   4.746  -5.226
 8565CHOL    C197879  16.312   4.811  -5.014
 8565CHOL    C297880  16.221   4.877  -4.802
 8566CHOL   ROH97881   0.542  24.742   6.623
 8566CHOL    R197882   0.627  24.610   6.651
 8566CHOL    R297883   0.855  24.621   6.698
 8566CHOL    R397884   0.723  24.460   6.683
 8566CHOL    R497885   0.930  24.505   6.723
 8566CHOL    R597886   0.809  24.328   6.712
 8566CHOL    C197887   0.936  24.129   6.754
 8566CHOL    C297888   1.064  23.931   6.796
 8567CHOL   ROH97889  25.290   1.148  11.738
 8567CHOL    R197890  25.151   1.226  11.723
 8567CHOL    R297891  25.002   1.173  11.551
 8567CHOL    R397892  24.995   1.313  11.706
 8567CHOL    R497893  24.880   1.241  11.538
 8567CHOL    R597894  24.855   1.391  11.691
 8567CHOL    C197895  24.647   1.508  11.668
 8567CHOL    C297896  24.438   1.624  11.646
 8568CHOL   ROH97897   5.802  27.390   9.128
 8568CHOL    R197898   5.836  27.234   9.136
 8568CHOL    R297899   5.901  27.135   9.337
 8568CHOL    R397900   5.875  27.058   9.144
 8568CHOL    R497901   5.931  26.999   9.343
 8568CHOL    R597902   5.909  26.902   9.152
 8568CHOL    C197903   5.961  26.668   9.164
 8568CHOL    C297904   6.013  26.434   9.175
 8569CHOL   ROH97905   7.866  21.930  -3.144
 8569CHOL    R197906   7.882  21.822  -3.028
 8569CHOL    R297907   8.048  21.844  -2.865
 8569CHOL    R397908   7.901  21.700  -2.896
 8569CHOL    R497909   8.063  21.750  -2.763
 8569CHOL    R597910   7.918  21.591  -2.780
 8569CHOL    C197911   7.942  21.429  -2.605
 8569CHOL    C297912   7.967  21.267  -2.431
 8570CHOL   ROH97913  -1.051  22.040   2.655
 8570CHOL    R197914  -0.956  21.928   2.719
 8570CHOL    R297915  -1.012  21.824   2.920
 8570CHOL    R397916  -0.849  21.802   2.790
 8570CHOL    R497917  -0.929  21.726   2.976
 8570CHOL    R597918  -0.754  21.690   2.854
 8570CHOL    C197919  -0.612  21.522   2.950
 8570CHOL    C297920  -0.470  21.354   3.045
 8571CHOL   ROH97921  12.968  24.872  19.240
 8571CHOL    R197922  12.940  24.740  19.154
 8571CHOL    R297923  13.115  24.601  19.088
 8571CHOL    R397924  12.908  24.592  19.057
 8571CHOL    R497925  13.090  24.485  19.012
 8571CHOL    R597926  12.880  24.460  18.971
 8571CHOL    C197927  12.838  24.262  18.842
 8571CHOL    C297928  12.796  24.064  18.713
 8572CHOL   ROH97929   8.954   4.609  26.886
 8572CHOL    R197930   8.965   4.660  26.735
 8572CHOL    R297931   9.026   4.514  26.563
 8572CHOL    R397932   8.977   4.717  26.565
 8572CHOL    R497933   9.035   4.559  26.431
 8572CHOL    R597934   8.988   4.768  26.413
 8572CHOL    C197935   9.005   4.845  26.187
 8572CHOL    C297936   9.022   4.922  25.960
 8573CHOL   ROH97937   1.473   2.027  -3.617
 8573CHOL    R197938   1.550   2.101  -3.498
 8573CHOL    R297939   1.502   2.054  -3.275
 8573CHOL    R397940   1.638   2.185  -3.365
 8573CHOL    R497941   1.569   2.119  -3.171
 8573CHOL    R597942   1.715   2.259  -3.246
 8573CHOL    C197943   1.831   2.370  -3.068
 8573CHOL    C297944   1.947   2.482  -2.890
 8574CHOL   ROH97945  19.869  -2.556   2.063
 8574CHOL    R197946  19.781  -2.443   2.134
 8574CHOL    R297947  19.578  -2.374   2.042
 8574CHOL    R397948  19.681  -2.316   2.214
 8574CHOL    R497949  19.500  -2.275   2.105
 8574CHOL    R597950  19.592  -2.204   2.285
 8574CHOL    C197951  19.460  -2.034   2.392
 8574CHOL    C297952  19.327  -1.865   2.499
 8575CHOL   ROH97953  18.443   9.572  -5.674
 8575CHOL    R197954  18.367   9.576  -5.533
 8575CHOL    R297955  18.144   9.643  -5.519
 8575CHOL    R397956  18.282   9.581  -5.375
 8575CHOL    R497957  18.078   9.646  -5.396
 8575CHOL    R597958  18.206   9.585  -5.234
 8575CHOL    C197959  18.092   9.591  -5.023
 8575CHOL    C297960  17.978   9.597  -4.812
 8576CHOL   ROH97961   6.348  -0.253  24.172
 8576CHOL    R197962   6.378  -0.163  24.043
 8576CHOL    R297963   6.580  -0.182  23.929
 8576CHOL    R397964   6.412  -0.062  23.898
 8576CHOL    R497965   6.607  -0.103  23.816
 8576CHOL    R597966   6.442   0.027  23.769
 8576CHOL    C197967   6.487   0.162  23.576
 8576CHOL    C297968   6.532   0.297  23.382
 8577CHOL   ROH97969  12.296  22.531  -2.540
 8577CHOL    R197970  12.280  22.420  -2.426
 8577CHOL    R297971  12.465  22.344  -2.306
 8577CHOL    R397972  12.262  22.295  -2.298
 8577CHOL    R497973  12.451  22.246  -2.206
 8577CHOL    R597974  12.246  22.183  -2.184
 8577CHOL    C197975  12.222  22.017  -2.013
 8577CHOL    C297976  12.198  21.850  -1.842
 8578CHOL   ROH97977  25.769  17.546   7.400
 8578CHOL    R197978  25.626  17.478   7.423
 8578CHOL    R297979  25.543  17.319   7.273
 8578CHOL    R397980  25.465  17.402   7.449
 8578CHOL    R497981  25.418  17.260   7.293
 8578CHOL    R597982  25.322  17.334   7.471
 8578CHOL    C197983  25.107  17.232   7.506
 8578CHOL    C297984  24.893  17.130   7.540
 8579CHOL   ROH97985   6.359  26.286   3.441
 8579CHOL    R197986   6.388  26.140   3.500
 8579CHOL    R297987   6.605  26.053   3.504
 8579CHOL    R397988   6.421  25.976   3.567
 8579CHOL    R497989   6.630  25.926   3.556
 8579CHOL    R597990   6.450  25.831   3.626
 8579CHOL    C197991   6.494  25.612   3.715
 8579CHOL    C297992   6.537  25.393   3.804
 8580CHOL   ROH97993  16.416   7.430  -6.409
 8580CHOL    R197994  16.354   7.454  -6.263
 8580CHOL    R297995  16.125   7.486  -6.234
 8580CHOL    R397996  16.285   7.481  -6.099
 8580CHOL    R497997  16.071   7.507  -6.106
 8580CHOL    R597998  16.224   7.505  -5.954
 8580CHOL    C197999  16.131   7.542  -5.735
 8580CHOL    C298000  16.039   7.578  -5.516
 8581CHOL   ROH98001  16.762  21.021  -2.353
 8581CHOL    R198002  16.698  20.923  -2.244
 8581CHOL    R298003  16.822  20.750  -2.149
 8581CHOL    R398004  16.625  20.813  -2.121
 8581CHOL    R498005  16.766  20.665  -2.054
 8581CHOL    R598006  16.561  20.716  -2.012
 8581CHOL    C198007  16.465  20.569  -1.848
 8581CHOL    C298008  16.368  20.422  -1.685
 8582CHOL   ROH98009  11.028  -6.265  17.354
 8582CHOL    R198010  11.020  -6.120  17.287
 8582CHOL    R298011  11.213  -6.008  17.219
 8582CHOL    R398012  11.010  -5.957  17.211
 8582CHOL    R498013  11.205  -5.881  17.160
 8582CHOL    R598014  11.002  -5.813  17.143
 8582CHOL    C198015  10.990  -5.595  17.042
 8582CHOL    C298016  10.977  -5.378  16.941
 8583CHOL   ROH98017   9.878   0.075  24.783
 8583CHOL    R198018   9.878   0.161  24.648
 8583CHOL    R298019  10.043   0.322  24.609
 8583CHOL    R398020   9.878   0.258  24.497
 8583CHOL    R498021  10.043   0.397  24.491
 8583CHOL    R598022   9.879   0.345  24.362
 8583CHOL    C198023   9.879   0.474  24.160
 8583CHOL    C298024   9.879   0.603  23.958
 8584CHOL   ROH98025  -5.730  18.649   8.349
 8584CHOL    R198026  -5.590  18.574   8.364
 8584CHOL    R298027  -5.553  18.419   8.535
 8584CHOL    R398028  -5.431  18.489   8.380
 8584CHOL    R498029  -5.430  18.354   8.548
 8584CHOL    R598030  -5.291  18.414   8.395
 8584CHOL    C198031  -5.080  18.301   8.417
 8584CHOL    C298032  -4.870  18.188   8.439
 8585CHOL   ROH98033  23.888  21.050   9.718
 8585CHOL    R198034  23.759  20.955   9.722
 8585CHOL    R298035  23.565  21.012   9.606
 8585CHOL    R398036  23.614  20.849   9.727
 8585CHOL    R498037  23.452  20.929   9.610
 8585CHOL    R598038  23.485  20.755   9.731
 8585CHOL    C198039  23.292  20.613   9.738
 8585CHOL    C298040  23.098  20.471   9.744
 8586CHOL   ROH98041  11.159  -7.598   6.796
 8586CHOL    R198042  11.151  -7.440   6.821
 8586CHOL    R298043  11.227  -7.347   7.021
 8586CHOL    R398044  11.142  -7.263   6.850
 8586CHOL    R498045  11.220  -7.209   7.043
 8586CHOL    R598046  11.134  -7.105   6.875
 8586CHOL    C198047  11.122  -6.868   6.913
 8586CHOL    C298048  11.110  -6.632   6.951
 8587CHOL   ROH98049  -4.156  12.129  -0.966
 8587CHOL    R198050  -4.032  12.116  -0.865
 8587CHOL    R298051  -3.909  12.303  -0.801
 8587CHOL    R398052  -3.894  12.101  -0.752
 8587CHOL    R498053  -3.801  12.292  -0.713
 8587CHOL    R598054  -3.770  12.088  -0.651
 8587CHOL    C198055  -3.585  12.068  -0.500
 8587CHOL    C298056  -3.399  12.048  -0.349
 8588CHOL   ROH98057  13.118  -6.964   5.161
 8588CHOL    R198058  13.085  -6.814   5.204
 8588CHOL    R298059  13.033  -6.652   5.045
 8588CHOL    R398060  13.048  -6.644   5.253
 8588CHOL    R498061  13.004  -6.520   5.083
 8588CHOL    R598062  13.015  -6.494   5.296
 8588CHOL    C198063  12.966  -6.268   5.362
 8588CHOL    C298064  12.916  -6.043   5.427
 8589CHOL   ROH98065   2.585  14.995  25.465
 8589CHOL    R198066   2.653  14.952  25.327
 8589CHOL    R298067   2.829  15.076  25.236
 8589CHOL    R398068   2.730  14.905  25.171
 8589CHOL    R498069   2.889  15.039  25.115
 8589CHOL    R598070   2.798  14.862  25.032
 8589CHOL    C198071   2.900  14.798  24.825
 8589CHOL    C298072   3.002  14.734  24.617
 8590CHOL   ROH98073  26.182   4.487   5.172
 8590CHOL    R198074  26.035   4.535   5.211
 8590CHOL    R298075  25.850   4.472   5.084
 8590CHOL    R398076  25.869   4.590   5.255
 8590CHOL    R498077  25.721   4.515   5.118
 8590CHOL    R598078  25.722   4.638   5.294
 8590CHOL    C198079  25.500   4.710   5.353
 8590CHOL    C298080  25.279   4.783   5.412
 8591CHOL   ROH98081   3.139  -3.041  20.147
 8591CHOL    R198082   3.198  -2.924  20.055
 8591CHOL    R298083   3.351  -2.971  19.885
 8591CHOL    R398084   3.265  -2.793  19.952
 8591CHOL    R498085   3.403  -2.869  19.805
 8591CHOL    R598086   3.325  -2.676  19.860
 8591CHOL    C198087   3.414  -2.501  19.722
 8591CHOL    C298088   3.503  -2.326  19.584
 8592CHOL   ROH98089  -4.775  17.668   3.319
 8592CHOL    R198090  -4.642  17.602   3.378
 8592CHOL    R298091  -4.494  17.727   3.509
 8592CHOL    R398092  -4.492  17.528   3.445
 8592CHOL    R498093  -4.378  17.669   3.561
 8592CHOL    R598094  -4.358  17.462   3.504
 8592CHOL    C198095  -4.159  17.363   3.593
 8592CHOL    C298096  -3.959  17.264   3.682
 8593CHOL   ROH98097  16.286  14.875  -6.023
 8593CHOL    R198098  16.231  14.830  -5.879
 8593CHOL    R298099  16.273  14.616  -5.796
 8593CHOL    R398100  16.170  14.780  -5.718
 8593CHOL    R498101  16.225  14.577  -5.671
 8593CHOL    R598102  16.115  14.735  -5.575
 8593CHOL    C198103  16.033  14.669  -5.359
 8593CHOL    C298104  15.951  14.602  -5.144
 8594CHOL   ROH98105   0.383  10.845  25.095
 8594CHOL    R198106   0.470  10.832  24.961
 8594CHOL    R298107   0.565  11.020  24.862
 8594CHOL    R398108   0.567  10.818  24.810
 8594CHOL    R498109   0.641  11.009  24.744
 8594CHOL    R598110   0.653  10.805  24.677
 8594CHOL    C198111   0.783  10.786  24.476
 8594CHOL    C298112   0.913  10.767  24.275
 8595CHOL   ROH98113  15.798  -1.538  22.168
 8595CHOL    R198114  15.748  -1.433  22.058
 8595CHOL    R298115  15.833  -1.438  21.841
 8595CHOL    R398116  15.692  -1.315  21.934
 8595CHOL    R498117  15.789  -1.346  21.744
 8595CHOL    R598118  15.642  -1.210  21.824
 8595CHOL    C198119  15.568  -1.053  21.659
 8595CHOL    C298120  15.493  -0.895  21.494
 8596CHOL   ROH98121   9.089  26.035   2.061
 8596CHOL    R198122   9.095  25.892   2.133
 8596CHOL    R298123   9.264  25.740   2.083
 8596CHOL    R398124   9.102  25.731   2.214
 8596CHOL    R498125   9.269  25.615   2.146
 8596CHOL    R598126   9.108  25.589   2.285
 8596CHOL    C198127   9.116  25.374   2.393
 8596CHOL    C298128   9.125  25.160   2.501
 8597CHOL   ROH98129  -3.336   1.400  18.391
 8597CHOL    R198130  -3.219   1.478  18.315
 8597CHOL    R298131  -3.025   1.366  18.248
 8597CHOL    R398132  -3.087   1.565  18.229
 8597CHOL    R498133  -2.922   1.434  18.181
 8597CHOL    R598134  -2.970   1.642  18.153
 8597CHOL    C198135  -2.794   1.759  18.038
 8597CHOL    C298136  -2.618   1.875  17.924
 8598CHOL   ROH98137  17.172  24.022   1.704
 8598CHOL    R198138  17.106  23.897   1.779
 8598CHOL    R298139  17.206  23.804   1.968
 8598CHOL    R398140  17.032  23.756   1.863
 8598CHOL    R498141  17.149  23.695   2.034
 8598CHOL    R598142  16.967  23.631   1.938
 8598CHOL    C198143  16.868  23.443   2.050
 8598CHOL    C298144  16.769  23.256   2.163
 8599CHOL   ROH98145   2.193  -1.528  21.247
 8599CHOL    R198146   2.262  -1.425  21.146
 8599CHOL    R298147   2.396  -1.251  21.224
 8599CHOL    R398148   2.339  -1.309  21.032
 8599CHOL    R498149   2.456  -1.161  21.136
 8599CHOL    R598150   2.407  -1.206  20.930
 8599CHOL    C198151   2.510  -1.051  20.779
 8599CHOL    C298152   2.613  -0.896  20.627
 8600CHOL   ROH98153   7.572  -6.279   2.971
 8600CHOL    R198154   7.592  -6.134   3.034
 8600CHOL    R298155   7.789  -6.077   3.145
 8600CHOL    R398156   7.615  -5.970   3.106
 8600CHOL    R498157   7.807  -5.950   3.201
 8600CHOL    R598158   7.635  -5.825   3.169
 8600CHOL    C198159   7.665  -5.606   3.264
 8600CHOL    C298160   7.695  -5.388   3.359
 8601CHOL   ROH98161  -7.380  10.002   5.522
 8601CHOL    R198162  -7.225  10.000   5.562
 8601CHOL    R298163  -7.135   9.823   5.684
 8601CHOL    R398164  -7.051   9.998   5.607
 8601CHOL    R498165  -7.000   9.821   5.720
 8601CHOL    R598166  -6.896   9.995   5.647
 8601CHOL    C198167  -6.664   9.992   5.708
 8601CHOL    C298168  -6.431   9.989   5.768
 8602CHOL   ROH98169   6.711  23.768  -0.877
 8602CHOL    R198170   6.739  23.644  -0.780
 8602CHOL    R298171   6.862  23.460  -0.852
 8602CHOL    R398172   6.769  23.505  -0.670
 8602CHOL    R498173   6.886  23.352  -0.766
 8602CHOL    R598174   6.797  23.381  -0.572
 8602CHOL    C198175   6.838  23.195  -0.426
 8602CHOL    C298176   6.880  23.009  -0.280
 8603CHOL   ROH98177   9.397  15.094  27.018
 8603CHOL    R198178   9.398  15.046  26.866
 8603CHOL    R298179   9.524  14.861  26.799
 8603CHOL    R398180   9.399  14.991  26.694
 8603CHOL    R498181   9.525  14.819  26.666
 8603CHOL    R598182   9.400  14.943  26.542
 8603CHOL    C198183   9.401  14.871  26.313
 8603CHOL    C298184   9.403  14.798  26.084
 8604CHOL   ROH98185   8.777  -6.743   3.795
 8604CHOL    R198186   8.789  -6.594   3.851
 8604CHOL    R298187   8.990  -6.513   3.937
 8604CHOL    R398188   8.801  -6.426   3.915
 8604CHOL    R498189   9.000  -6.383   3.987
 8604CHOL    R598190   8.813  -6.276   3.972
 8604CHOL    C198191   8.830  -6.053   4.056
 8604CHOL    C298192   8.848  -5.829   4.141
 8605CHOL   ROH98193  -0.694  21.960  17.982
 8605CHOL    R198194  -0.598  21.853  17.911
 8605CHOL    R298195  -0.426  21.749  18.029
 8605CHOL    R398196  -0.490  21.734  17.831
 8605CHOL    R498197  -0.342  21.656  17.967
 8605CHOL    R598198  -0.394  21.627  17.760
 8605CHOL    C198199  -0.251  21.467  17.653
 8605CHOL    C298200  -0.107  21.307  17.547
 8606CHOL   ROH98201   6.580  27.380  12.572
 8606CHOL    R198202   6.608  27.224  12.549
 8606CHOL    R298203   6.744  27.104  12.695
 8606CHOL    R398204   6.640  27.049  12.523
 8606CHOL    R498205   6.769  26.967  12.675
 8606CHOL    R598206   6.668  26.893  12.500
 8606CHOL    C198207   6.710  26.659  12.465
 8606CHOL    C298208   6.752  26.425  12.430
 8607CHOL   ROH98209  -2.657   0.195  18.100
 8607CHOL    R198210  -2.545   0.282  18.027
 8607CHOL    R298211  -2.345   0.185  17.955
 8607CHOL    R398212  -2.419   0.381  17.944
 8607CHOL    R498213  -2.247   0.262  17.891
 8607CHOL    R598214  -2.307   0.468  17.871
 8607CHOL    C198215  -2.138   0.599  17.761
 8607CHOL    C298216  -1.970   0.730  17.651
 8608CHOL   ROH98217  27.470   7.715   8.751
 8608CHOL    R198218  27.311   7.733   8.762
 8608CHOL    R298219  27.209   7.933   8.700
 8608CHOL    R398220  27.133   7.753   8.773
 8608CHOL    R498221  27.070   7.949   8.710
 8608CHOL    R598222  26.974   7.771   8.784
 8608CHOL    C198223  26.736   7.797   8.800
 8608CHOL    C298224  26.498   7.824   8.816
 8609CHOL   ROH98225   8.278  -3.131  -2.075
 8609CHOL    R198226   8.294  -3.014  -1.967
 8609CHOL    R298227   8.496  -2.977  -1.858
 8609CHOL    R398228   8.311  -2.881  -1.847
 8609CHOL    R498229   8.510  -2.874  -1.764
 8609CHOL    R598230   8.327  -2.764  -1.739
 8609CHOL    C198231   8.350  -2.588  -1.578
 8609CHOL    C298232   8.373  -2.412  -1.416
 8610CHOL   ROH98233  -0.009  14.914  23.887
 8610CHOL    R198234   0.081  14.870  23.762
 8610CHOL    R298235   0.313  14.851  23.782
 8610CHOL    R398236   0.182  14.820  23.622
 8610CHOL    R498237   0.391  14.812  23.673
 8610CHOL    R598238   0.273  14.775  23.498
 8610CHOL    C198239   0.408  14.709  23.311
 8610CHOL    C298240   0.543  14.643  23.124
 8611CHOL   ROH98241  26.009   2.940  12.838
 8611CHOL    R198242  25.864   3.002  12.813
 8611CHOL    R298243  25.825   3.148  12.635
 8611CHOL    R398244  25.700   3.071  12.784
 8611CHOL    R498245  25.697   3.202  12.613
 8611CHOL    R598246  25.554   3.133  12.758
 8611CHOL    C198247  25.336   3.225  12.720
 8611CHOL    C298248  25.118   3.317  12.682
 8612CHOL   ROH98249  -6.171  16.179   5.319
 8612CHOL    R198250  -6.027  16.124   5.363
 8612CHOL    R298251  -5.961  16.128   5.587
 8612CHOL    R398252  -5.866  16.062   5.413
 8612CHOL    R498253  -5.835  16.080   5.625
 8612CHOL    R598254  -5.722  16.007   5.457
 8612CHOL    C198255  -5.506  15.924   5.523
 8612CHOL    C298256  -5.291  15.842   5.589
 8613CHOL   ROH98257  15.513   2.661  -5.389
 8613CHOL    R198258  15.463   2.723  -5.250
 8613CHOL    R298259  15.328   2.912  -5.245
 8613CHOL    R398260  15.408   2.793  -5.094
 8613CHOL    R498261  15.284   2.967  -5.123
 8613CHOL    R598262  15.358   2.855  -4.955
 8613CHOL    C198263  15.284   2.947  -4.747
 8613CHOL    C298264  15.209   3.040  -4.538
 8614CHOL   ROH98265  16.919  -6.176   7.334
 8614CHOL    R198266  16.856  -6.031   7.358
 8614CHOL    R298267  16.992  -5.843   7.385
 8614CHOL    R398268  16.784  -5.868   7.386
 8614CHOL    R498269  16.936  -5.716   7.406
 8614CHOL    R598270  16.721  -5.723   7.411
 8614CHOL    C198271  16.626  -5.506   7.447
 8614CHOL    C298272  16.531  -5.288   7.484
 8615CHOL   ROH98273  11.320   2.868  -6.363
 8615CHOL    R198274  11.309   2.930  -6.216
 8615CHOL    R298275  11.396   3.141  -6.168
 8615CHOL    R398276  11.296   3.000  -6.051
 8615CHOL    R498277  11.386   3.196  -6.039
 8615CHOL    R598278  11.285   3.063  -5.903
 8615CHOL    C198279  11.267   3.156  -5.683
 8615CHOL    C298280  11.250   3.249  -5.462
 8616CHOL   ROH98281   8.937  26.488  16.737
 8616CHOL    R198282   8.947  26.341  16.675
 8616CHOL    R298283   9.050  26.304  16.469
 8616CHOL    R398284   8.958  26.175  16.606
 8616CHOL    R498285   9.058  26.175  16.415
 8616CHOL    R598286   8.968  26.028  16.544
 8616CHOL    C198287   8.984  25.807  16.451
 8616CHOL    C298288   8.999  25.586  16.359
 8617CHOL   ROH98289  -0.037   8.665  24.801
 8617CHOL    R198290   0.055   8.682  24.671
 8617CHOL    R298291   0.254   8.563  24.648
 8617CHOL    R398292   0.158   8.701  24.525
 8617CHOL    R498293   0.335   8.578  24.535
 8617CHOL    R598294   0.250   8.718  24.395
 8617CHOL    C198295   0.388   8.744  24.200
 8617CHOL    C298296   0.526   8.770  24.005
 8618CHOL   ROH98297   6.420  22.882  21.714
 8618CHOL    R198298   6.452  22.768  21.606
 8618CHOL    R298299   6.646  22.777  21.476
 8618CHOL    R398300   6.489  22.640  21.485
 8618CHOL    R498301   6.674  22.677  21.382
 8618CHOL    R598302   6.521  22.526  21.377
 8618CHOL    C198303   6.569  22.355  21.216
 8618CHOL    C298304   6.618  22.184  21.054
 8619CHOL   ROH98305  25.801  12.277  17.637
 8619CHOL    R198306  25.657  12.256  17.570
 8619CHOL    R298307  25.634  12.136  17.372
 8619CHOL    R398308  25.495  12.231  17.495
 8619CHOL    R498309  25.508  12.117  17.313
 8619CHOL    R598310  25.351  12.210  17.428
 8619CHOL    C198311  25.136  12.178  17.328
 8619CHOL    C298312  24.920  12.146  17.227
 8620CHOL   ROH98313  27.485   7.487  10.164
 8620CHOL    R198314  27.326   7.506  10.163
 8620CHOL    R298315  27.221   7.631   9.997
 8620CHOL    R398316  27.147   7.527  10.162
 8620CHOL    R498317  27.082   7.647   9.996
 8620CHOL    R598318  26.989   7.546  10.161
 8620CHOL    C198319  26.750   7.574  10.160
 8620CHOL    C298320  26.512   7.603  10.158
 8621CHOL   ROH98321   6.753  27.117  14.030
 8621CHOL    R198322   6.781  26.965  13.991
 8621CHOL    R298323   6.975  26.856  14.063
 8621CHOL    R398324   6.814  26.793  13.947
 8621CHOL    R498325   7.000  26.723  14.029
 8621CHOL    R598326   6.842  26.641  13.908
 8621CHOL    C198327   6.885  26.412  13.849
 8621CHOL    C298328   6.927  26.183  13.790
 8622CHOL   ROH98329  -4.071  19.949  14.936
 8622CHOL    R198330  -3.946  19.860  14.892
 8622CHOL    R298331  -3.738  19.887  14.995
 8622CHOL    R398332  -3.804  19.759  14.843
 8622CHOL    R498333  -3.628  19.808  14.956
 8622CHOL    R598334  -3.679  19.670  14.799
 8622CHOL    C198335  -3.491  19.536  14.734
 8622CHOL    C298336  -3.303  19.402  14.668
 8623CHOL   ROH98337   0.448  18.373  -2.755
 8623CHOL    R198338   0.532  18.301  -2.640
 8623CHOL    R298339   0.757  18.352  -2.606
 8623CHOL    R398340   0.627  18.220  -2.510
 8623CHOL    R498341   0.831  18.289  -2.505
 8623CHOL    R598342   0.712  18.147  -2.395
 8623CHOL    C198343   0.838  18.039  -2.222
 8623CHOL    C298344   0.964  17.931  -2.049
 8624CHOL   ROH98345  15.173   6.351  -6.695
 8624CHOL    R198346  15.118   6.383  -6.548
 8624CHOL    R298347  14.898   6.455  -6.516
 8624CHOL    R398348  15.056   6.420  -6.383
 8624CHOL    R498349  14.850   6.483  -6.387
 8624CHOL    R598350  15.001   6.452  -6.236
 8624CHOL    C198351  14.918   6.501  -6.016
 8624CHOL    C298352  14.836   6.550  -5.796
 8625CHOL   ROH98353  26.746  15.436  11.878
 8625CHOL    R198354  26.594  15.389  11.860
 8625CHOL    R298355  26.525  15.276  11.668
 8625CHOL    R398356  26.423  15.336  11.841
 8625CHOL    R498357  26.392  15.235  11.653
 8625CHOL    R598358  26.271  15.289  11.823
 8625CHOL    C198359  26.044  15.218  11.797
 8625CHOL    C298360  25.816  15.147  11.770
 8626CHOL   ROH98361   0.317   6.068  24.475
 8626CHOL    R198362   0.405   6.108  24.348
 8626CHOL    R298363   0.627   6.038  24.328
 8626CHOL    R398364   0.505   6.154  24.205
 8626CHOL    R498365   0.704   6.073  24.217
 8626CHOL    R598366   0.593   6.194  24.078
 8626CHOL    C198367   0.725   6.255  23.887
 8626CHOL    C298368   0.858   6.316  23.696
 8627CHOL   ROH98369   6.801  19.372  -4.991
 8627CHOL    R198370   6.828  19.288  -4.857
 8627CHOL    R298371   7.024  19.164  -4.831
 8627CHOL    R398372   6.858  19.194  -4.707
 8627CHOL    R498373   7.047  19.091  -4.714
 8627CHOL    R598374   6.885  19.110  -4.574
 8627CHOL    C198375   6.925  18.984  -4.373
 8627CHOL    C298376   6.966  18.858  -4.173
 8628CHOL   ROH98377  25.092  19.191  11.353
 8628CHOL    R198378  24.956  19.108  11.340
 8628CHOL    R298379  24.947  18.882  11.397
 8628CHOL    R398380  24.803  19.015  11.326
 8628CHOL    R498381  24.828  18.809  11.386
 8628CHOL    R598382  24.666  18.932  11.313
 8628CHOL    C198383  24.462  18.807  11.294
 8628CHOL    C298384  24.258  18.682  11.275
 8629CHOL   ROH98385  -7.078   8.618   4.557
 8629CHOL    R198386  -6.926   8.626   4.605
 8629CHOL    R298387  -6.837   8.469   4.752
 8629CHOL    R398388  -6.754   8.636   4.658
 8629CHOL    R498389  -6.704   8.476   4.793
 8629CHOL    R598390  -6.601   8.645   4.706
 8629CHOL    C198391  -6.373   8.657   4.778
 8629CHOL    C298392  -6.144   8.670   4.849
 8630CHOL   ROH98393  -5.974  15.367  16.318
 8630CHOL    R198394  -5.833  15.318  16.260
 8630CHOL    R298395  -5.633  15.412  16.335
 8630CHOL    R398396  -5.675  15.264  16.194
 8630CHOL    R498397  -5.510  15.369  16.284
 8630CHOL    R598398  -5.534  15.215  16.136
 8630CHOL    C198399  -5.323  15.142  16.048
 8630CHOL    C298400  -5.112  15.069  15.960
 8631CHOL   ROH98401   0.061   1.453  22.109
 8631CHOL    R198402   0.151   1.526  21.999
 8631CHOL    R298403   0.383   1.513  22.005
 8631CHOL    R398404   0.252   1.608  21.874
 8631CHOL    R498405   0.462   1.577  21.909
 8631CHOL    R598406   0.342   1.682  21.764
 8631CHOL    C198407   0.476   1.791  21.598
 8631CHOL    C298408   0.611   1.901  21.433
 8632CHOL   ROH98409  18.789  -5.112  13.169
 8632CHOL    R198410  18.709  -4.976  13.140
 8632CHOL    R298411  18.792  -4.817  12.991
 8632CHOL    R398412  18.619  -4.824  13.107
 8632CHOL    R498413  18.722  -4.699  12.966
 8632CHOL    R598414  18.539  -4.689  13.079
 8632CHOL    C198415  18.419  -4.485  13.035
 8632CHOL    C298416  18.299  -4.282  12.992
 8633CHOL   ROH98417  -2.194   9.898  -3.163
 8633CHOL    R198418  -2.086   9.898  -3.045
 8633CHOL    R298419  -2.054  10.086  -2.911
 8633CHOL    R398420  -1.963   9.898  -2.913
 8633CHOL    R498421  -1.959  10.086  -2.808
 8633CHOL    R598422  -1.855   9.898  -2.795
 8633CHOL    C198423  -1.692   9.897  -2.619
 8633CHOL    C298424  -1.530   9.897  -2.443
 8634CHOL   ROH98425  -2.064   0.982  19.694
 8634CHOL    R198426  -1.958   1.062  19.604
 8634CHOL    R298427  -1.768   0.956  19.521
 8634CHOL    R398428  -1.839   1.151  19.503
 8634CHOL    R498429  -1.675   1.025  19.442
 8634CHOL    R598430  -1.733   1.231  19.413
 8634CHOL    C198431  -1.575   1.350  19.277
 8634CHOL    C298432  -1.416   1.469  19.142
 8635CHOL   ROH98433  11.791   2.459  -6.138
 8635CHOL    R198434  11.775   2.526  -5.994
 8635CHOL    R298435  11.945   2.655  -5.901
 8635CHOL    R398436  11.756   2.601  -5.831
 8635CHOL    R498437  11.931   2.714  -5.775
 8635CHOL    R598438  11.740   2.668  -5.687
 8635CHOL    C198439  11.715   2.768  -5.471
 8635CHOL    C298440  11.690   2.869  -5.254
 8636CHOL   ROH98441  22.457  22.687  10.312
 8636CHOL    R198442  22.345  22.572  10.307
 8636CHOL    R298443  22.361  22.397  10.154
 8636CHOL    R398444  22.220  22.444  10.301
 8636CHOL    R498445  22.263  22.296  10.150
 8636CHOL    R598446  22.108  22.329  10.296
 8636CHOL    C198447  21.941  22.157  10.289
 8636CHOL    C298448  21.774  21.985  10.282
 8637CHOL   ROH98449  17.174   0.462  23.160
 8637CHOL    R198450  17.107   0.548  23.043
 8637CHOL    R298451  17.125   0.481  22.820
 8637CHOL    R398452  17.032   0.644  22.911
 8637CHOL    R498453  17.066   0.556  22.717
 8637CHOL    R598454  16.964   0.730  22.793
 8637CHOL    C198455  16.864   0.859  22.618
 8637CHOL    C298456  16.763   0.987  22.442
 8638CHOL   ROH98457   5.669  20.497  -3.926
 8638CHOL    R198458   5.704  20.401  -3.803
 8638CHOL    R298459   5.892  20.263  -3.808
 8638CHOL    R398460   5.744  20.293  -3.665
 8638CHOL    R498461   5.923  20.179  -3.701
 8638CHOL    R598462   5.779  20.197  -3.542
 8638CHOL    C198463   5.832  20.053  -3.357
 8638CHOL    C298464   5.885  19.909  -3.172
 8639CHOL   ROH98465  15.444  -6.981   9.694
 8639CHOL    R198466  15.390  -6.830   9.698
 8639CHOL    R298467  15.538  -6.650   9.700
 8639CHOL    R398468  15.329  -6.661   9.703
 8639CHOL    R498469  15.490  -6.518   9.703
 8639CHOL    R598470  15.275  -6.510   9.708
 8639CHOL    C198471  15.194  -6.285   9.714
 8639CHOL    C298472  15.113  -6.059   9.720
 8640CHOL   ROH98473  23.785  14.222  -0.393
 8640CHOL    R198474  23.659  14.187  -0.301
 8640CHOL    R298475  23.448  14.275  -0.346
 8640CHOL    R398476  23.518  14.147  -0.196
 8640CHOL    R498477  23.338  14.244  -0.265
 8640CHOL    R598478  23.392  14.111  -0.104
 8640CHOL    C198479  23.203  14.058   0.035
 8640CHOL    C298480  23.015  14.005   0.173
 8641CHOL   ROH98481  10.455   0.867  25.263
 8641CHOL    R198482  10.452   0.948  25.125
 8641CHOL    R298483  10.587   1.136  25.094
 8641CHOL    R398484  10.448   1.040  24.971
 8641CHOL    R498485  10.584   1.207  24.973
 8641CHOL    R598486  10.445   1.122  24.833
 8641CHOL    C198487  10.440   1.244  24.627
 8641CHOL    C298488  10.435   1.366  24.420
 8642CHOL   ROH98489  24.132  13.119  -0.280
 8642CHOL    R198490  24.004  13.094  -0.187
 8642CHOL    R298491  23.797  13.187  -0.241
 8642CHOL    R398492  23.860  13.066  -0.083
 8642CHOL    R498493  23.685  13.165  -0.159
 8642CHOL    R598494  23.732  13.041   0.010
 8642CHOL    C198495  23.541  13.003   0.149
 8642CHOL    C298496  23.349  12.965   0.288
 8643CHOL   ROH98497  15.796  20.762  -3.076
 8643CHOL    R198498  15.742  20.668  -2.958
 8643CHOL    R298499  15.825  20.451  -2.930
 8643CHOL    R398500  15.682  20.562  -2.825
 8643CHOL    R498501  15.778  20.369  -2.827
 8643CHOL    R598502  15.629  20.468  -2.708
 8643CHOL    C198503  15.548  20.327  -2.531
 8643CHOL    C298504  15.468  20.186  -2.354
 8644CHOL   ROH98505  -6.948  16.052   9.806
 8644CHOL    R198506  -6.797  15.998   9.806
 8644CHOL    R298507  -6.619  16.140   9.757
 8644CHOL    R398508  -6.628  15.937   9.805
 8644CHOL    R498509  -6.487  16.093   9.757
 8644CHOL    R598510  -6.478  15.883   9.805
 8644CHOL    C198511  -6.252  15.802   9.805
 8644CHOL    C298512  -6.026  15.721   9.804
 8645CHOL   ROH98513  19.762   7.263  -4.634
 8645CHOL    R198514  19.676   7.288  -4.501
 8645CHOL    R298515  19.612   7.503  -4.438
 8645CHOL    R398516  19.579   7.316  -4.352
 8645CHOL    R498517  19.536   7.525  -4.322
 8645CHOL    R598518  19.493   7.340  -4.220
 8645CHOL    C198519  19.364   7.378  -4.021
 8645CHOL    C298520  19.235   7.415  -3.822
 8646CHOL   ROH98521   3.888  25.917  15.331
 8646CHOL    R198522   3.942  25.774  15.283
 8646CHOL    R298523   3.946  25.592  15.428
 8646CHOL    R398524   4.002  25.614  15.228
 8646CHOL    R498525   3.993  25.467  15.386
 8646CHOL    R598526   4.056  25.471  15.180
 8646CHOL    C198527   4.137  25.257  15.107
 8646CHOL    C298528   4.217  25.043  15.034
 8647CHOL   ROH98529  21.548   9.884  -3.561
 8647CHOL    R198530  21.442   9.884  -3.441
 8647CHOL    R298531  21.346   9.686  -3.365
 8647CHOL    R398532  21.323   9.885  -3.306
 8647CHOL    R498533  21.253   9.686  -3.261
 8647CHOL    R598534  21.216   9.886  -3.187
 8647CHOL    C198535  21.057   9.886  -3.007
 8647CHOL    C298536  20.898   9.887  -2.827
 8648CHOL   ROH98537   4.348  26.826   7.417
 8648CHOL    R198538   4.399  26.676   7.439
 8648CHOL    R298539   4.380  26.572   7.647
 8648CHOL    R398540   4.456  26.507   7.463
 8648CHOL    R498541   4.425  26.440   7.666
 8648CHOL    R598542   4.507  26.357   7.485
 8648CHOL    C198543   4.583  26.131   7.518
 8648CHOL    C298544   4.659  25.906   7.550
 8649CHOL   ROH98545   2.426  -3.995  18.198
 8649CHOL    R198546   2.493  -3.870  18.123
 8649CHOL    R298547   2.566  -3.684  18.242
 8649CHOL    R398548   2.568  -3.730  18.039
 8649CHOL    R498549   2.624  -3.575  18.177
 8649CHOL    R598550   2.635  -3.605  17.964
 8649CHOL    C198551   2.735  -3.419  17.852
 8649CHOL    C298552   2.836  -3.232  17.739
 8650CHOL   ROH98553  15.500  -6.895  11.505
 8650CHOL    R198554  15.447  -6.745  11.490
 8650CHOL    R298555  15.543  -6.571  11.613
 8650CHOL    R398556  15.388  -6.575  11.473
 8650CHOL    R498557  15.497  -6.439  11.600
 8650CHOL    R598558  15.336  -6.425  11.458
 8650CHOL    C198559  15.257  -6.199  11.435
 8650CHOL    C298560  15.178  -5.974  11.413
 8651CHOL   ROH98561  10.362  21.138  -3.949
 8651CHOL    R198562  10.358  21.036  -3.826
 8651CHOL    R298563  10.398  21.108  -3.608
 8651CHOL    R398564  10.353  20.921  -3.688
 8651CHOL    R498565  10.395  21.019  -3.500
 8651CHOL    R598566  10.349  20.818  -3.565
 8651CHOL    C198567  10.342  20.665  -3.380
 8651CHOL    C298568  10.336  20.512  -3.195
 8652CHOL   ROH98569  26.371  15.976   6.872
 8652CHOL    R198570  26.224  15.917   6.897
 8652CHOL    R298571  26.092  15.845   6.719
 8652CHOL    R398572  26.060  15.851   6.925
 8652CHOL    R498573  25.964  15.793   6.741
 8652CHOL    R598574  25.913  15.791   6.950
 8652CHOL    C198575  25.693  15.703   6.988
 8652CHOL    C298576  25.473  15.614   7.026
 8653CHOL   ROH98577  -2.276  22.966  12.027
 8653CHOL    R198578  -2.167  22.850  12.011
 8653CHOL    R298579  -1.963  22.861  12.124
 8653CHOL    R398580  -2.043  22.721  11.993
 8653CHOL    R498581  -1.867  22.760  12.110
 8653CHOL    R598582  -1.934  22.605  11.977
 8653CHOL    C198583  -1.770  22.432  11.952
 8653CHOL    C298584  -1.606  22.258  11.928
 8654CHOL   ROH98585  -1.731   7.255  23.221
 8654CHOL    R198586  -1.629   7.283  23.101
 8654CHOL    R298587  -1.403   7.324  23.143
 8654CHOL    R398588  -1.514   7.314  22.966
 8654CHOL    R498589  -1.314   7.348  23.038
 8654CHOL    R598590  -1.411   7.342  22.847
 8654CHOL    C198591  -1.258   7.384  22.667
 8654CHOL    C298592  -1.105   7.426  22.487
 8655CHOL   ROH98593   1.457   7.020  25.445
 8655CHOL    R198594   1.533   7.051  25.308
 8655CHOL    R298595   1.663   6.888  25.203
 8655CHOL    R398596   1.619   7.086  25.154
 8655CHOL    R498597   1.730   6.916  25.083
 8655CHOL    R598598   1.695   7.118  25.017
 8655CHOL    C198599   1.810   7.164  24.811
 8655CHOL    C298600   1.924   7.211  24.605
 8656CHOL   ROH98601   5.867  24.093  20.130
 8656CHOL    R198602   5.903  23.970  20.035
 8656CHOL    R298603   6.111  23.864  20.049
 8656CHOL    R398604   5.945  23.831  19.928
 8656CHOL    R498605   6.143  23.756  19.966
 8656CHOL    R598606   5.981  23.708  19.832
 8656CHOL    C198607   6.036  23.522  19.690
 8656CHOL    C298608   6.090  23.337  19.547
 8657CHOL   ROH98609  17.630  25.910  11.497
 8657CHOL    R198610  17.559  25.767  11.486
 8657CHOL    R298611  17.634  25.586  11.612
 8657CHOL    R398612  17.479  25.606  11.474
 8657CHOL    R498613  17.572  25.461  11.602
 8657CHOL    R598614  17.408  25.464  11.462
 8657CHOL    C198615  17.301  25.249  11.446
 8657CHOL    C298616  17.194  25.035  11.429
 8658CHOL   ROH98617   9.144  18.126  25.854
 8658CHOL    R198618   9.149  18.055  25.711
 8658CHOL    R298619   9.300  18.125  25.547
 8658CHOL    R398620   9.155  17.975  25.549
 8658CHOL    R498621   9.304  18.063  25.421
 8658CHOL    R598622   9.160  17.904  25.406
 8658CHOL    C198623   9.167  17.797  25.191
 8658CHOL    C298624   9.174  17.691  24.976
 8659CHOL   ROH98625  20.138  -2.657  17.241
 8659CHOL    R198626  20.044  -2.544  17.178
 8659CHOL    R298627  20.130  -2.384  17.032
 8659CHOL    R398628  19.938  -2.416  17.107
 8659CHOL    R498629  20.048  -2.285  16.977
 8659CHOL    R598630  19.845  -2.303  17.044
 8659CHOL    C198631  19.704  -2.133  16.950
 8659CHOL    C298632  19.563  -1.963  16.856
 8660CHOL   ROH98633  23.033  21.320   5.986
 8660CHOL    R198634  22.911  21.223   6.023
 8660CHOL    R298635  22.899  21.007   5.936
 8660CHOL    R398636  22.775  21.114   6.065
 8660CHOL    R498637  22.793  20.922   5.969
 8660CHOL    R598638  22.653  21.016   6.103
 8660CHOL    C198639  22.471  20.871   6.158
 8660CHOL    C298640  22.288  20.725   6.214
 8661CHOL   ROH98641   6.837  26.956   5.160
 8661CHOL    R198642   6.862  26.804   5.202
 8661CHOL    R298643   7.075  26.709   5.189
 8661CHOL    R398644   6.890  26.632   5.250
 8661CHOL    R498645   7.097  26.576   5.226
 8661CHOL    R598646   6.915  26.480   5.292
 8661CHOL    C198647   6.952  26.252   5.355
 8661CHOL    C298648   6.990  26.023   5.419
 8662CHOL   ROH98649  14.783   4.672  -6.382
 8662CHOL    R198650  14.734   4.718  -6.237
 8662CHOL    R298651  14.641   4.929  -6.203
 8662CHOL    R398652  14.680   4.770  -6.073
 8662CHOL    R498653  14.599   4.970  -6.076
 8662CHOL    R598654  14.631   4.817  -5.928
 8662CHOL    C198655  14.558   4.886  -5.710
 8662CHOL    C298656  14.485   4.955  -5.492
 8663CHOL   ROH98657  11.304  -5.779   1.646
 8663CHOL    R198658  11.292  -5.639   1.722
 8663CHOL    R298659  11.394  -5.606   1.929
 8663CHOL    R398660  11.279  -5.481   1.807
 8663CHOL    R498661  11.384  -5.483   1.996
 8663CHOL    R598662  11.267  -5.341   1.883
 8663CHOL    C198663  11.250  -5.130   1.997
 8663CHOL    C298664  11.232  -4.920   2.111
 8664CHOL   ROH98665  -6.568   4.310   5.898
 8664CHOL    R198666  -6.422   4.367   5.929
 8664CHOL    R298667  -6.387   4.524   6.097
 8664CHOL    R398668  -6.257   4.431   5.963
 8664CHOL    R498669  -6.259   4.574   6.124
 8664CHOL    R598670  -6.110   4.488   5.993
 8664CHOL    C198671  -5.891   4.573   6.039
 8664CHOL    C298672  -5.671   4.659   6.085
 8665CHOL   ROH98673  21.071   0.458  20.023
 8665CHOL    R198674  20.972   0.543  19.930
 8665CHOL    R298675  21.034   0.606  19.714
 8665CHOL    R398676  20.861   0.639  19.826
 8665CHOL    R498677  20.948   0.680  19.633
 8665CHOL    R598678  20.763   0.724  19.733
 8665CHOL    C198679  20.614   0.852  19.595
 8665CHOL    C298680  20.466   0.980  19.456
 8666CHOL   ROH98681  23.328  17.840  18.727
 8666CHOL    R198682  23.212  17.766  18.646
 8666CHOL    R298683  23.252  17.567  18.532
 8666CHOL    R398684  23.081  17.684  18.554
 8666CHOL    R498685  23.151  17.502  18.461
 8666CHOL    R598686  22.964  17.610  18.472
 8666CHOL    C198687  22.790  17.500  18.350
 8666CHOL    C298688  22.616  17.389  18.228
 8667CHOL   ROH98689  -7.553   7.042   7.035
 8667CHOL    R198690  -7.397   7.067   7.062
 8667CHOL    R298691  -7.321   7.125   7.275
 8667CHOL    R398692  -7.222   7.095   7.093
 8667CHOL    R498693  -7.184   7.147   7.298
 8667CHOL    R598694  -7.066   7.120   7.120
 8667CHOL    C198695  -6.833   7.157   7.161
 8667CHOL    C298696  -6.599   7.195   7.202
 8668CHOL   ROH98697   0.457  24.822   7.331
 8668CHOL    R198698   0.543  24.689   7.354
 8668CHOL    R298699   0.771  24.700   7.399
 8668CHOL    R398700   0.640  24.539   7.379
 8668CHOL    R498701   0.847  24.584   7.419
 8668CHOL    R598702   0.726  24.406   7.402
 8668CHOL    C198703   0.855  24.207   7.435
 8668CHOL    C298704   0.984  24.008   7.469
 8669CHOL   ROH98705  19.510  -2.052   0.931
 8669CHOL    R198706  19.423  -1.944   1.012
 8669CHOL    R298707  19.258  -1.819   0.905
 8669CHOL    R398708  19.326  -1.824   1.103
 8669CHOL    R498709  19.182  -1.725   0.976
 8669CHOL    R598710  19.239  -1.716   1.184
 8669CHOL    C198711  19.110  -1.555   1.305
 8669CHOL    C298712  18.980  -1.393   1.426
 8670CHOL   ROH98713  19.222  21.094  -0.376
 8670CHOL    R198714  19.136  20.990  -0.289
 8670CHOL    R298715  19.237  20.858  -0.125
 8670CHOL    R398716  19.039  20.874  -0.192
 8670CHOL    R498717  19.162  20.768  -0.050
 8670CHOL    R598718  18.954  20.771  -0.105
 8670CHOL    C198719  18.825  20.615   0.025
 8670CHOL    C298720  18.696  20.460   0.155
 8671CHOL   ROH98721   6.405  -4.106  20.367
 8671CHOL    R198722   6.436  -3.980  20.273
 8671CHOL    R298723   6.600  -3.825  20.331
 8671CHOL    R398724   6.471  -3.838  20.168
 8671CHOL    R498725   6.627  -3.715  20.249
 8671CHOL    R598726   6.502  -3.712  20.074
 8671CHOL    C198727   6.548  -3.524  19.933
 8671CHOL    C298728   6.594  -3.335  19.793
 8672CHOL   ROH98729   1.941  -0.579  21.984
 8672CHOL    R198730   2.016  -0.485  21.878
 8672CHOL    R298731   2.187  -0.342  21.944
 8672CHOL    R398732   2.100  -0.380  21.759
 8672CHOL    R498733   2.253  -0.260  21.852
 8672CHOL    R598734   2.174  -0.286  21.653
 8672CHOL    C198735   2.287  -0.146  21.493
 8672CHOL    C298736   2.399  -0.006  21.334
 8673CHOL   ROH98737   1.292  17.169  -3.981
 8673CHOL    R198738   1.369  17.106  -3.856
 8673CHOL    R298739   1.358  17.206  -3.645
 8673CHOL    R398740   1.456  17.035  -3.715
 8673CHOL    R498741   1.425  17.151  -3.536
 8673CHOL    R598742   1.533  16.972  -3.590
 8673CHOL    C198743   1.649  16.877  -3.402
 8673CHOL    C298744   1.764  16.783  -3.215
 8674CHOL   ROH98745   6.615  14.504  26.849
 8674CHOL    R198746   6.644  14.469  26.696
 8674CHOL    R298747   6.807  14.313  26.637
 8674CHOL    R398748   6.678  14.431  26.523
 8674CHOL    R498749   6.833  14.283  26.503
 8674CHOL    R598750   6.707  14.396  26.370
 8674CHOL    C198751   6.751  14.344  26.139
 8674CHOL    C298752   6.795  14.292  25.909
 8675CHOL   ROH98753  -2.632  22.382   6.928
 8675CHOL    R198754  -2.526  22.266   6.956
 8675CHOL    R298755  -2.396  22.265   7.149
 8675CHOL    R398756  -2.406  22.135   6.987
 8675CHOL    R498757  -2.303  22.164   7.174
 8675CHOL    R598758  -2.300  22.019   7.015
 8675CHOL    C198759  -2.140  21.844   7.056
 8675CHOL    C298760  -1.980  21.670   7.098
 8676CHOL   ROH98761  -3.941  15.216  -0.235
 8676CHOL    R198762  -3.817  15.167  -0.147
 8676CHOL    R298763  -3.640  15.311  -0.098
 8676CHOL    R398764  -3.677  15.111  -0.048
 8676CHOL    R498765  -3.531  15.267  -0.021
 8676CHOL    R598766  -3.553  15.062   0.041
 8676CHOL    C198767  -3.367  14.988   0.173
 8676CHOL    C298768  -3.181  14.914   0.305
 8677CHOL   ROH98769  -1.493  20.872   1.484
 8677CHOL    R198770  -1.393  20.772   1.558
 8677CHOL    R298771  -1.428  20.708   1.779
 8677CHOL    R398772  -1.279  20.659   1.641
 8677CHOL    R498773  -1.340  20.620   1.844
 8677CHOL    R598774  -1.179  20.559   1.715
 8677CHOL    C198775  -1.028  20.409   1.826
 8677CHOL    C298776  -0.878  20.259   1.937
 8678CHOL   ROH98777  18.054  25.695  11.491
 8678CHOL    R198778  17.981  25.553  11.481
 8678CHOL    R298779  18.046  25.375  11.617
 8678CHOL    R398780  17.898  25.393  11.470
 8678CHOL    R498781  17.981  25.251  11.609
 8678CHOL    R598782  17.825  25.251  11.460
 8678CHOL    C198783  17.715  25.039  11.446
 8678CHOL    C298784  17.605  24.826  11.431
 8679CHOL   ROH98785  -2.612  11.660  22.589
 8679CHOL    R198786  -2.499  11.645  22.477
 8679CHOL    R298787  -2.313  11.508  22.511
 8679CHOL    R398788  -2.372  11.628  22.351
 8679CHOL    R498789  -2.214  11.495  22.413
 8679CHOL    R598790  -2.258  11.614  22.238
 8679CHOL    C198791  -2.089  11.591  22.070
 8679CHOL    C298792  -1.919  11.569  21.902
 8680CHOL   ROH98793   1.328  20.206  21.837
 8680CHOL    R198794   1.405  20.116  21.729
 8680CHOL    R298795   1.582  19.979  21.793
 8680CHOL    R398796   1.492  20.015  21.609
 8680CHOL    R498797   1.650  19.900  21.699
 8680CHOL    R598798   1.569  19.925  21.501
 8680CHOL    C198799   1.685  19.791  21.340
 8680CHOL    C298800   1.801  19.656  21.178
 8681CHOL   ROH98801  12.933  24.332  20.037
 8681CHOL    R198802  12.905  24.204  19.945
 8681CHOL    R298803  13.079  24.095  19.835
 8681CHOL    R398804  12.874  24.061  19.841
 8681CHOL    R498805  13.055  23.983  19.755
 8681CHOL    R598806  12.846  23.933  19.748
 8681CHOL    C198807  12.804  23.741  19.610
 8681CHOL    C298808  12.762  23.550  19.472
 8682CHOL   ROH98809   1.283   7.169  -5.498
 8682CHOL    R198810   1.361   7.192  -5.360
 8682CHOL    R298811   1.321   7.056  -5.175
 8682CHOL    R398812   1.448   7.218  -5.205
 8682CHOL    R498813   1.389   7.076  -5.055
 8682CHOL    R598814   1.526   7.241  -5.067
 8682CHOL    C198815   1.643   7.276  -4.860
 8682CHOL    C298816   1.759   7.311  -4.653
 8683CHOL   ROH98817  27.364   6.784  11.107
 8683CHOL    R198818  27.206   6.808  11.099
 8683CHOL    R298819  27.075   6.697  10.941
 8683CHOL    R398820  27.028   6.836  11.090
 8683CHOL    R498821  26.937   6.718  10.934
 8683CHOL    R598822  26.871   6.861  11.081
 8683CHOL    C198823  26.634   6.897  11.069
 8683CHOL    C298824  26.397   6.934  11.057
 8684CHOL   ROH98825   5.355   0.872  -4.806
 8684CHOL    R198826   5.398   0.956  -4.677
 8684CHOL    R298827   5.592   0.904  -4.558
 8684CHOL    R398828   5.446   1.051  -4.532
 8684CHOL    R498829   5.629   0.978  -4.445
 8684CHOL    R598830   5.488   1.135  -4.402
 8684CHOL    C198831   5.553   1.262  -4.209
 8684CHOL    C298832   5.617   1.388  -4.015
 8685CHOL   ROH98833  14.862  -2.795  -1.441
 8685CHOL    R198834  14.817  -2.680  -1.339
 8685CHOL    R298835  14.959  -2.501  -1.290
 8685CHOL    R398836  14.767  -2.551  -1.224
 8685CHOL    R498837  14.920  -2.401  -1.200
 8685CHOL    R598838  14.723  -2.436  -1.121
 8685CHOL    C198839  14.656  -2.264  -0.968
 8685CHOL    C298840  14.589  -2.092  -0.815
 8686CHOL   ROH98841  15.327  15.744  25.927
 8686CHOL    R198842  15.284  15.688  25.783
 8686CHOL    R298843  15.286  15.827  25.596
 8686CHOL    R398844  15.236  15.626  25.622
 8686CHOL    R498845  15.248  15.778  25.470
 8686CHOL    R598846  15.193  15.570  25.478
 8686CHOL    C198847  15.129  15.486  25.262
 8686CHOL    C298848  15.064  15.403  25.047
 8687CHOL   ROH98849  -3.535  15.609  -0.561
 8687CHOL    R198850  -3.415  15.556  -0.468
 8687CHOL    R298851  -3.253  15.703  -0.387
 8687CHOL    R398852  -3.281  15.497  -0.364
 8687CHOL    R498853  -3.148  15.657  -0.306
 8687CHOL    R598854  -3.162  15.444  -0.272
 8687CHOL    C198855  -2.982  15.366  -0.133
 8687CHOL    C298856  -2.803  15.287   0.006
 8688CHOL   ROH98857  27.274  13.849   8.763
 8688CHOL    R198858  27.118  13.815   8.773
 8688CHOL    R298859  27.007  13.706   8.600
 8688CHOL    R398860  26.942  13.777   8.785
 8688CHOL    R498861  26.871  13.676   8.608
 8688CHOL    R598862  26.786  13.743   8.795
 8688CHOL    C198863  26.552  13.692   8.810
 8688CHOL    C298864  26.318  13.641   8.826
 8689CHOL   ROH98865  23.617   8.930  21.248
 8689CHOL    R198866  23.493   8.942  21.148
 8689CHOL    R298867  23.512   9.057  20.946
 8689CHOL    R398868  23.353   8.955  21.035
 8689CHOL    R498869  23.404   9.067  20.858
 8689CHOL    R598870  23.229   8.966  20.935
 8689CHOL    C198871  23.043   8.984  20.784
 8689CHOL    C298872  22.857   9.002  20.634
 8690CHOL   ROH98873  -2.492   6.887  22.449
 8690CHOL    R198874  -2.384   6.917  22.335
 8690CHOL    R298875  -2.211   7.070  22.371
 8690CHOL    R398876  -2.262   6.952  22.207
 8690CHOL    R498877  -2.117   7.097  22.271
 8690CHOL    R598878  -2.154   6.982  22.093
 8690CHOL    C198879  -1.992   7.028  21.922
 8690CHOL    C298880  -1.830   7.073  21.751
 8691CHOL   ROH98881   9.890  -3.295  21.823
 8691CHOL    R198882   9.885  -3.177  21.715
 8691CHOL    R298883   9.881  -3.223  21.487
 8691CHOL    R398884   9.879  -3.044  21.594
 8691CHOL    R498885   9.876  -3.119  21.392
 8691CHOL    R598886   9.874  -2.925  21.487
 8691CHOL    C198887   9.866  -2.748  21.325
 8691CHOL    C298888   9.859  -2.571  21.163
 8692CHOL   ROH98889  21.308   0.317   0.271
 8692CHOL    R198890  21.205   0.401   0.359
 8692CHOL    R298891  20.983   0.428   0.293
 8692CHOL    R398892  21.089   0.497   0.459
 8692CHOL    R498893  20.893   0.502   0.370
 8692CHOL    R598894  20.986   0.581   0.547
 8692CHOL    C198895  20.831   0.708   0.680
 8692CHOL    C298896  20.677   0.834   0.813
 8693CHOL   ROH98897  19.303  25.024   8.961
 8693CHOL    R198898  19.221  24.887   8.968
 8693CHOL    R298899  19.324  24.682   8.924
 8693CHOL    R398900  19.128  24.733   8.976
 8693CHOL    R498901  19.252  24.562   8.930
 8693CHOL    R598902  19.046  24.596   8.983
 8693CHOL    C198903  18.923  24.390   8.993
 8693CHOL    C298904  18.799  24.184   9.003
 8694CHOL   ROH98905  -5.510   1.626  13.369
 8694CHOL    R198906  -5.371   1.699  13.337
 8694CHOL    R298907  -5.193   1.583  13.241
 8694CHOL    R398908  -5.216   1.782  13.301
 8694CHOL    R498909  -5.072   1.647  13.213
 8694CHOL    R598910  -5.077   1.855  13.269
 8694CHOL    C198911  -4.869   1.966  13.221
 8694CHOL    C298912  -4.661   2.076  13.173
 8695CHOL   ROH98913  18.653  24.230  16.018
 8695CHOL    R198914  18.571  24.105  15.960
 8695CHOL    R298915  18.557  24.067  15.731
 8695CHOL    R398916  18.479  23.965  15.895
 8695CHOL    R498917  18.486  23.958  15.680
 8695CHOL    R598918  18.398  23.840  15.838
 8695CHOL    C198919  18.275  23.653  15.751
 8695CHOL    C298920  18.152  23.466  15.664
 8696CHOL   ROH98921  -6.212  15.284  15.782
 8696CHOL    R198922  -6.068  15.236  15.730
 8696CHOL    R298923  -5.902  15.391  15.676
 8696CHOL    R398924  -5.907  15.182  15.671
 8696CHOL    R498925  -5.777  15.349  15.630
 8696CHOL    R598926  -5.764  15.135  15.619
 8696CHOL    C198927  -5.548  15.063  15.541
 8696CHOL    C298928  -5.333  14.991  15.463
 8697CHOL   ROH98929  14.725  -3.133  20.960
 8697CHOL    R198930  14.685  -3.016  20.858
 8697CHOL    R298931  14.657  -3.060  20.631
 8697CHOL    R398932  14.640  -2.885  20.743
 8697CHOL    R498933  14.622  -2.958  20.541
 8697CHOL    R598934  14.600  -2.768  20.642
 8697CHOL    C198935  14.539  -2.594  20.489
 8697CHOL    C298936  14.479  -2.419  20.336
 8698CHOL   ROH98937   3.779  26.718  11.518
 8698CHOL    R198938   3.836  26.570  11.502
 8698CHOL    R298939   4.062  26.523  11.541
 8698CHOL    R398940   3.901  26.402  11.485
 8698CHOL    R498941   4.112  26.393  11.528
 8698CHOL    R598942   3.959  26.254  11.469
 8698CHOL    C198943   4.045  26.031  11.445
 8698CHOL    C298944   4.131  25.809  11.422
 8699CHOL   ROH98945  26.857   5.129   7.343
 8699CHOL    R198946  26.704   5.171   7.367
 8699CHOL    R298947  26.567   5.232   7.188
 8699CHOL    R398948  26.533   5.218   7.394
 8699CHOL    R498949  26.434   5.268   7.209
 8699CHOL    R598950  26.380   5.260   7.417
 8699CHOL    C198951  26.151   5.322   7.453
 8699CHOL    C298952  25.922   5.385   7.489
 8700CHOL   ROH98953  -0.899  -4.244   9.428
 8700CHOL    R198954  -0.801  -4.117   9.429
 8700CHOL    R298955  -0.575  -4.140   9.480
 8700CHOL    R398956  -0.692  -3.974   9.430
 8700CHOL    R498957  -0.489  -4.029   9.481
 8700CHOL    R598958  -0.594  -3.847   9.432
 8700CHOL    C198959  -0.448  -3.657   9.433
 8700CHOL    C298960  -0.301  -3.467   9.435
 8701CHOL   ROH98961   6.402   2.291  -5.854
 8701CHOL    R198962   6.430   2.358  -5.711
 8701CHOL    R298963   6.602   2.280  -5.574
 8701CHOL    R398964   6.462   2.433  -5.551
 8701CHOL    R498965   6.626   2.338  -5.449
 8701CHOL    R598966   6.490   2.499  -5.408
 8701CHOL    C198967   6.532   2.600  -5.194
 8701CHOL    C298968   6.574   2.700  -4.980
 8702CHOL   ROH98969  22.815   9.620  -2.301
 8702CHOL    R198970  22.696   9.621  -2.194
 8702CHOL    R298971  22.588   9.819  -2.136
 8702CHOL    R398972  22.563   9.622  -2.073
 8702CHOL    R498973  22.484   9.820  -2.042
 8702CHOL    R598974  22.444   9.623  -1.966
 8702CHOL    C198975  22.266   9.624  -1.805
 8702CHOL    C298976  22.088   9.625  -1.644
 8703CHOL   ROH98977  -1.899  13.161  22.941
 8703CHOL    R198978  -1.797  13.130  22.822
 8703CHOL    R298979  -1.601  13.010  22.860
 8703CHOL    R398980  -1.682  13.095  22.688
 8703CHOL    R498981  -1.511  12.983  22.756
 8703CHOL    R598982  -1.579  13.065  22.569
 8703CHOL    C198983  -1.426  13.018  22.390
 8703CHOL    C298984  -1.273  12.972  22.212
 8704CHOL   ROH98985  18.815   9.424  -5.465
 8704CHOL    R198986  18.736   9.429  -5.326
 8704CHOL    R298987  18.513   9.495  -5.317
 8704CHOL    R398988  18.648   9.435  -5.169
 8704CHOL    R498989  18.444   9.499  -5.195
 8704CHOL    R598990  18.569   9.441  -5.030
 8704CHOL    C198991  18.451   9.448  -4.821
 8704CHOL    C298992  18.333   9.456  -4.612
 8705CHOL   ROH98993  -0.173   9.127  -4.759
 8705CHOL    R198994  -0.081   9.131  -4.628
 8705CHOL    R298995  -0.174   9.171  -4.418
 8705CHOL    R398996   0.022   9.136  -4.481
 8705CHOL    R498997  -0.094   9.175  -4.303
 8705CHOL    R598998   0.113   9.140  -4.350
 8705CHOL    C198999   0.251   9.146  -4.153
 8705CHOL    C299000   0.389   9.152  -3.956
 8706CHOL   ROH99001  12.999  -7.079  14.152
 8706CHOL    R199002  12.971  -6.926  14.114
 8706CHOL    R299003  13.063  -6.832  13.922
 8706CHOL    R399004  12.938  -6.755  14.070
 8706CHOL    R499005  13.038  -6.698  13.888
 8706CHOL    R599006  12.910  -6.602  14.032
 8706CHOL    C199007  12.867  -6.373  13.974
 8706CHOL    C299008  12.825  -6.144  13.917
 8707CHOL   ROH99009   7.846  27.074  14.789
 8707CHOL    R199010   7.864  26.921  14.744
 8707CHOL    R299011   8.009  26.779  14.859
 8707CHOL    R399012   7.884  26.750  14.694
 8707CHOL    R499013   8.024  26.646  14.820
 8707CHOL    R599014   7.901  26.597  14.650
 8707CHOL    C199015   7.928  26.368  14.583
 8707CHOL    C299016   7.955  26.139  14.516
 8708CHOL   ROH99017  17.737  -3.494   1.262
 8708CHOL    R199018  17.666  -3.372   1.337
 8708CHOL    R299019  17.768  -3.163   1.350
 8708CHOL    R399020  17.585  -3.235   1.421
 8708CHOL    R499021  17.706  -3.056   1.415
 8708CHOL    R599022  17.514  -3.112   1.496
 8708CHOL    C199023  17.407  -2.929   1.608
 8708CHOL    C299024  17.300  -2.746   1.720
 8709CHOL   ROH99025   4.507  17.805  25.140
 8709CHOL    R199026   4.555  17.733  25.006
 8709CHOL    R299027   4.631  17.512  25.009
 8709CHOL    R399028   4.609  17.651  24.855
 8709CHOL    R499029   4.674  17.449  24.892
 8709CHOL    R599030   4.657  17.579  24.721
 8709CHOL    C199031   4.730  17.471  24.519
 8709CHOL    C299032   4.802  17.362  24.318
 8710CHOL   ROH99033  -6.472  14.910   4.884
 8710CHOL    R199034  -6.325  14.865   4.930
 8710CHOL    R299035  -6.246  14.918   5.143
 8710CHOL    R399036  -6.161  14.815   4.983
 8710CHOL    R499037  -6.117  14.879   5.184
 8710CHOL    R599038  -6.014  14.771   5.029
 8710CHOL    C199039  -5.794  14.704   5.099
 8710CHOL    C299040  -5.574  14.637   5.168
 8711POPC   NC399041   8.579  16.996  21.864
 8711POPC   PO499042   8.559  17.100  22.033
 8711POPC   GL199043   8.539  17.204  22.202
 8711POPC   GL299044   8.626  17.250  22.185
 8711POPC   C1A99045   8.518  17.308  22.372
 8711POPC   D2A99046   8.498  17.413  22.541
 8711POPC   C3A99047   8.477  17.517  22.711
 8711POPC   C4A99048   8.457  17.621  22.880
 8711POPC   C1B99049   8.613  17.164  22.472
 8711POPC   C2B99050   8.593  17.268  22.641
 8711POPC   C3B99051   8.573  17.372  22.811
 8711POPC   C4B99052   8.552  17.476  22.980
 8712POPC   NC399053  -1.743  17.236  12.118
 8712POPC   PO499054  -1.909  17.343  12.152
 8712POPC   GL199055  -2.075  17.450  12.186
 8712POPC   GL299056  -2.075  17.420  12.281
 8712POPC   C1A99057  -2.240  17.557  12.220
 8712POPC   D2A99058  -2.406  17.664  12.253
 8712POPC   C3A99059  -2.571  17.771  12.287
 8712POPC   C4A99060  -2.737  17.878  12.321
 8712POPC   C1B99061  -2.352  17.399  12.169
 8712POPC   C2B99062  -2.518  17.506  12.203
 8712POPC   C3B99063  -2.684  17.613  12.236
 8712POPC   C4B99064  -2.849  17.720  12.270
 8713POPC   NC399065   5.138   8.251  -2.999
 8713POPC   PO499066   5.071   8.228  -3.186
 8713POPC   GL199067   5.004   8.205  -3.373
 8713POPC   GL299068   4.986   8.109  -3.355
 8713POPC   C1A99069   4.938   8.183  -3.560
 8713POPC   D2A99070   4.871   8.160  -3.748
 8713POPC   C3A99071   4.805   8.138  -3.935
 8713POPC   C4A99072   4.738   8.115  -4.122
 8713POPC   C1B99073   5.123   8.137  -3.621
 8713POPC   C2B99074   5.056   8.114  -3.808
 8713POPC   C3B99075   4.990   8.092  -3.995
 8713POPC   C4B99076   4.923   8.069  -4.182
 8714POPC   NC399077  20.371   6.232   1.685
 8714POPC   PO499078  20.519   6.173   1.564
 8714POPC   GL199079  20.667   6.114   1.443
 8714POPC   GL299080  20.624   6.163   1.367
 8714POPC   C1A99081  20.815   6.055   1.322
 8714POPC   D2A99082  20.962   5.995   1.201
 8714POPC   C3A99083  21.110   5.936   1.080
 8714POPC   C4A99084  21.258   5.877   0.959
 8714POPC   C1B99085  20.710   5.891   1.275
 8714POPC   C2B99086  20.858   5.831   1.154
 8714POPC   C3B99087  21.006   5.772   1.033
 8714POPC   C4B99088  21.154   5.713   0.912
 8715POPC   NC399089  12.851  18.792  20.228
 8715POPC   PO499090  12.890  18.921  20.375
 8715POPC   GL199091  12.929  19.050  20.522
 8715POPC   GL299092  13.020  19.068  20.483
 8715POPC   C1A99093  12.969  19.180  20.670
 8715POPC   D2A99094  13.008  19.309  20.817
 8715POPC   C3A99095  13.048  19.439  20.965
 8715POPC   C4A99096  13.087  19.568  21.112
 8715POPC   C1B99097  13.045  19.031  20.780
 8715POPC   C2B99098  13.084  19.161  20.927
 8715POPC   C3B99099  13.124  19.290  21.075
 8715POPC   C4B99100  13.163  19.419  21.222
 8716POPC   NC399101   1.240   8.654  -0.785
 8716POPC   PO499102   1.114   8.641  -0.940
 8716POPC   GL199103   0.988   8.628  -1.095
 8716POPC   GL299104   0.945   8.713  -1.067
 8716POPC   C1A99105   0.863   8.614  -1.250
 8716POPC   D2A99106   0.737   8.601  -1.405
 8716POPC   C3A99107   0.612   8.587  -1.560
 8716POPC   C4A99108   0.486   8.574  -1.715
 8716POPC   C1B99109   0.733   8.513  -1.136
 8716POPC   C2B99110   0.608   8.499  -1.291
 8716POPC   C3B99111   0.482   8.486  -1.446
 8716POPC   C4B99112   0.357   8.472  -1.601
 8717POPC   NC399113  18.042  14.642  -0.236
 8717POPC   PO499114  18.156  14.708  -0.386
 8717POPC   GL199115  18.270  14.774  -0.536
 8717POPC   GL299116  18.217  14.720  -0.601
 8717POPC   C1A99117  18.385  14.841  -0.686
 8717POPC   D2A99118  18.499  14.907  -0.836
 8717POPC   C3A99119  18.614  14.974  -0.986
 8717POPC   C4A99120  18.728  15.040  -1.136
 8717POPC   C1B99121  18.509  14.686  -0.660
 8717POPC   C2B99122  18.624  14.753  -0.810
 8717POPC   C3B99123  18.738  14.819  -0.960
 8717POPC   C4B99124  18.852  14.886  -1.110
 8718POPC   NC399125  22.699  12.823   5.419
 8718POPC   PO499126  22.884  12.862   5.352
 8718POPC   GL199127  23.069  12.901   5.285
 8718POPC   GL299128  23.030  12.952   5.209
 8718POPC   C1A99129  23.253  12.939   5.218
 8718POPC   D2A99130  23.438  12.978   5.152
 8718POPC   C3A99131  23.622  13.016   5.085
 8718POPC   C4A99132  23.807  13.055   5.018
 8718POPC   C1B99133  23.248  12.772   5.108
 8718POPC   C2B99134  23.433  12.811   5.042
 8718POPC   C3B99135  23.617  12.849   4.975
 8718POPC   C4B99136  23.802  12.888   4.908
 8719POPC   NC399137   0.500  17.800  16.514
 8719POPC   PO499138   0.365  17.912  16.610
 8719POPC   GL199139   0.230  18.024  16.706
 8719POPC   GL299140   0.302  18.087  16.735
 8719POPC   C1A99141   0.095  18.136  16.801
 8719POPC   D2A99142  -0.041  18.249  16.897
 8719POPC   C3A99143  -0.176  18.361  16.992
 8719POPC   C4A99144  -0.311  18.473  17.088
 8719POPC   C1B99145   0.121  18.027  16.967
 8719POPC   C2B99146  -0.014  18.140  17.062
 8719POPC   C3B99147  -0.149  18.252  17.158
 8719POPC   C4B99148  -0.284  18.364  17.254
 8720POPC   NC399149   7.408  -2.347   4.165
 8720POPC   PO499150   7.373  -2.525   4.081
 8720POPC   GL199151   7.338  -2.703   3.997
 8720POPC   GL299152   7.421  -2.739   4.039
 8720POPC   C1A99153   7.303  -2.881   3.913
 8720POPC   D2A99154   7.269  -3.060   3.829
 8720POPC   C3A99155   7.234  -3.238   3.745
 8720POPC   C4A99156   7.199  -3.416   3.661
 8720POPC   C1B99157   7.409  -2.826   3.752
 8720POPC   C2B99158   7.374  -3.005   3.668
 8720POPC   C3B99159   7.339  -3.183   3.584
 8720POPC   C4B99160   7.305  -3.361   3.500
 8721POPC   NC399161  16.888   9.289  -1.938
 8721POPC   PO499162  16.987   9.277  -2.112
 8721POPC   GL199163  17.086   9.265  -2.286
 8721POPC   GL299164  16.999   9.259  -2.335
 8721POPC   C1A99165  17.184   9.253  -2.459
 8721POPC   D2A99166  17.283   9.241  -2.633
 8721POPC   C3A99167  17.381   9.229  -2.806
 8721POPC   C4A99168  17.480   9.217  -2.980
 8721POPC   C1B99169  17.189   9.054  -2.443
 8721POPC   C2B99170  17.287   9.042  -2.617
 8721POPC   C3B99171  17.386   9.030  -2.790
 8721POPC   C4B99172  17.484   9.018  -2.964
 8722POPC   NC399173  13.847  13.791  -2.777
 8722POPC   PO499174  13.900  13.848  -2.961
 8722POPC   GL199175  13.953  13.905  -3.145
 8722POPC   GL299176  13.864  13.877  -3.180
 8722POPC   C1A99177  14.006  13.962  -3.329
 8722POPC   D2A99178  14.060  14.020  -3.514
 8722POPC   C3A99179  14.113  14.077  -3.698
 8722POPC   C4A99180  14.166  14.134  -3.882
 8722POPC   C1B99181  14.078  13.779  -3.366
 8722POPC   C2B99182  14.131  13.836  -3.550
 8722POPC   C3B99183  14.185  13.894  -3.734
 8722POPC   C4B99184  14.238  13.951  -3.918
 8723POPC   NC399185  11.763   6.591  -3.361
 8723POPC   PO499186  11.784   6.536  -3.552
 8723POPC   GL199187  11.805   6.481  -3.743
 8723POPC   GL299188  11.825   6.576  -3.768
 8723POPC   C1A99189  11.826   6.427  -3.934
 8723POPC   D2A99190  11.846   6.372  -4.126
 8723POPC   C3A99191  11.867   6.318  -4.317
 8723POPC   C4A99192  11.888   6.263  -4.508
 8723POPC   C1B99193  11.631   6.460  -3.965
 8723POPC   C2B99194  11.652   6.406  -4.156
 8723POPC   C3B99195  11.672   6.351  -4.348
 8723POPC   C4B99196  11.693   6.297  -4.539
 8724POPC   NC399197   9.898  -2.510  15.998
 8724POPC   PO499198   9.895  -2.689  16.086
 8724POPC   GL199199   9.892  -2.868  16.174
 8724POPC   GL299200   9.984  -2.887  16.140
 8724POPC   C1A99201   9.888  -3.048  16.263
 8724POPC   D2A99202   9.885  -3.227  16.351
 8724POPC   C3A99203   9.881  -3.407  16.440
 8724POPC   C4A99204   9.878  -3.586  16.528
 8724POPC   C1B99205   9.810  -3.128  16.097
 8724POPC   C2B99206   9.806  -3.307  16.186
 8724POPC   C3B99207   9.803  -3.487  16.274
 8724POPC   C4B99208   9.800  -3.666  16.362
 8725POPC   NC399209  18.054   2.342   1.834
 8725POPC   PO499210  18.176   2.237   1.715
 8725POPC   GL199211  18.298   2.132   1.596
 8725POPC   GL299212  18.220   2.106   1.539
 8725POPC   C1A99213  18.420   2.027   1.478
 8725POPC   D2A99214  18.541   1.921   1.359
 8725POPC   C3A99215  18.663   1.816   1.241
 8725POPC   C4A99216  18.785   1.711   1.122
 8725POPC   C1B99217  18.390   1.865   1.592
 8725POPC   C2B99218  18.512   1.760   1.473
 8725POPC   C3B99219  18.634   1.654   1.354
 8725POPC   C4B99220  18.756   1.549   1.236
 8726POPC   NC399221  12.542  -3.518  11.605
 8726POPC   PO499222  12.578  -3.713  11.631
 8726POPC   GL199223  12.614  -3.908  11.657
 8726POPC   GL299224  12.634  -3.917  11.560
 8726POPC   C1A99225  12.650  -4.103  11.683
 8726POPC   D2A99226  12.685  -4.298  11.710
 8726POPC   C3A99227  12.721  -4.493  11.736
 8726POPC   C4A99228  12.757  -4.688  11.762
 8726POPC   C1B99229  12.457  -4.143  11.646
 8726POPC   C2B99230  12.493  -4.338  11.672
 8726POPC   C3B99231  12.529  -4.533  11.699
 8726POPC   C4B99232  12.565  -4.728  11.725
 8727POPC   NC399233  23.465  10.161   7.583
 8727POPC   PO499234  23.662  10.160   7.551
 8727POPC   GL199235  23.859  10.159   7.519
 8727POPC   GL299236  23.860  10.259   7.517
 8727POPC   C1A99237  24.057  10.157   7.488
 8727POPC   D2A99238  24.254  10.156   7.456
 8727POPC   C3A99239  24.452  10.154   7.425
 8727POPC   C4A99240  24.649  10.153   7.393
 8727POPC   C1B99241  24.025  10.152   7.290
 8727POPC   C2B99242  24.223  10.151   7.259
 8727POPC   C3B99243  24.420  10.150   7.227
 8727POPC   C4B99244  24.617  10.148   7.196
 8728POPC   NC399245  -3.556  10.200   6.769
 8728POPC   PO499246  -3.750  10.206   6.721
 8728POPC   GL199247  -3.944  10.212   6.673
 8728POPC   GL299248  -3.966  10.161   6.755
 8728POPC   C1A99249  -4.138  10.218   6.624
 8728POPC   D2A99250  -4.332  10.224   6.576
 8728POPC   C3A99251  -4.526  10.230   6.527
 8728POPC   C4A99252  -4.720  10.236   6.479
 8728POPC   C1B99253  -4.118  10.047   6.523
 8728POPC   C2B99254  -4.312  10.053   6.475
 8728POPC   C3B99255  -4.506  10.059   6.426
 8728POPC   C4B99256  -4.700  10.065   6.378
 8729POPC   NC399257  16.591  20.336  16.048
 8729POPC   PO499258  16.694  20.484  16.134
 8729POPC   GL199259  16.797  20.632  16.220
 8729POPC   GL299260  16.844  20.565  16.278
 8729POPC   C1A99261  16.901  20.780  16.306
 8729POPC   D2A99262  17.004  20.928  16.393
 8729POPC   C3A99263  17.108  21.076  16.479
 8729POPC   C4A99264  17.211  21.224  16.565
 8729POPC   C1B99265  16.757  20.800  16.444
 8729POPC   C2B99266  16.861  20.948  16.531
 8729POPC   C3B99267  16.964  21.096  16.617
 8729POPC   C4B99268  17.068  21.244  16.703
 8730POPC   NC399269   7.592  -3.469   7.556
 8730POPC   PO499270   7.562  -3.664   7.525
 8730POPC   GL199271   7.532  -3.859   7.494
 8730POPC   GL299272   7.623  -3.867   7.453
 8730POPC   C1A99273   7.502  -4.054   7.463
 8730POPC   D2A99274   7.472  -4.250   7.431
 8730POPC   C3A99275   7.442  -4.445   7.400
 8730POPC   C4A99276   7.412  -4.640   7.369
 8730POPC   C1B99277   7.425  -4.014   7.282
 8730POPC   C2B99278   7.395  -4.209   7.251
 8730POPC   C3B99279   7.365  -4.404   7.220
 8730POPC   C4B99280   7.335  -4.599   7.189
 8731POPC   NC399281   9.830  21.622   2.443
 8731POPC   PO499282   9.825  21.785   2.328
 8731POPC   GL199283   9.820  21.948   2.213
 8731POPC   GL299284   9.833  21.891   2.131
 8731POPC   C1A99285   9.814  22.111   2.097
 8731POPC   D2A99286   9.809  22.275   1.982
 8731POPC   C3A99287   9.803  22.438   1.866
 8731POPC   C4A99288   9.798  22.601   1.751
 8731POPC   C1B99289  10.012  22.132   2.116
 8731POPC   C2B99290  10.007  22.295   2.001
 8731POPC   C3B99291  10.001  22.458   1.886
 8731POPC   C4B99292   9.996  22.621   1.770
 8732POPC   NC399293   2.118  21.434  10.337
 8732POPC   PO499294   2.007  21.600  10.330
 8732POPC   GL199295   1.896  21.766  10.323
 8732POPC   GL299296   1.957  21.804  10.253
 8732POPC   C1A99297   1.785  21.932  10.316
 8732POPC   D2A99298   1.674  22.099  10.308
 8732POPC   C3A99299   1.563  22.265  10.301
 8732POPC   C4A99300   1.452  22.431  10.294
 8732POPC   C1B99301   1.897  22.014  10.460
 8732POPC   C2B99302   1.786  22.180  10.452
 8732POPC   C3B99303   1.675  22.346  10.445
 8732POPC   C4B99304   1.564  22.512  10.438
 8733POPC   NC399305  -0.185   5.378  18.259
 8733POPC   PO499306  -0.320   5.307  18.388
 8733POPC   GL199307  -0.455   5.236  18.517
 8733POPC   GL299308  -0.414   5.145  18.511
 8733POPC   C1A99309  -0.590   5.166  18.647
 8733POPC   D2A99310  -0.726   5.095  18.776
 8733POPC   C3A99311  -0.861   5.025  18.906
 8733POPC   C4A99312  -0.996   4.954  19.035
 8733POPC   C1B99313  -0.713   5.122  18.495
 8733POPC   C2B99314  -0.848   5.051  18.624
 8733POPC   C3B99315  -0.983   4.981  18.754
 8733POPC   C4B99316  -1.118   4.910  18.883
 8734POPC   NC399317  -0.853  10.753  18.599
 8734POPC   PO499318  -1.009  10.763  18.724
 8734POPC   GL199319  -1.165  10.773  18.849
 8734POPC   GL299320  -1.134  10.862  18.881
 8734POPC   C1A99321  -1.321  10.783  18.974
 8734POPC   D2A99322  -1.476  10.792  19.099
 8734POPC   C3A99323  -1.632  10.802  19.224
 8734POPC   C4A99324  -1.788  10.812  19.349
 8734POPC   C1B99325  -1.212  10.694  19.117
 8734POPC   C2B99326  -1.368  10.704  19.242
 8734POPC   C3B99327  -1.523  10.713  19.367
 8734POPC   C4B99328  -1.679  10.723  19.492
 8735POPC   NC399329   6.265  -1.491  16.855
 8735POPC   PO499330   6.214  -1.656  16.956
 8735POPC   GL199331   6.163  -1.821  17.057
 8735POPC   GL299332   6.212  -1.787  17.137
 8735POPC   C1A99333   6.111  -1.986  17.158
 8735POPC   D2A99334   6.060  -2.150  17.259
 8735POPC   C3A99335   6.008  -2.315  17.360
 8735POPC   C4A99336   5.957  -2.480  17.461
 8735POPC   C1B99337   6.277  -2.077  17.093
 8735POPC   C2B99338   6.226  -2.242  17.194
 8735POPC   C3B99339   6.174  -2.406  17.295
 8735POPC   C4B99340   6.123  -2.571  17.396
 8736POPC   NC399341  23.439  12.738   9.477
 8736POPC   PO499342  23.636  12.771   9.475
 8736POPC   GL199343  23.833  12.804   9.473
 8736POPC   GL299344  23.835  12.786   9.374
 8736POPC   C1A99345  24.030  12.838   9.470
 8736POPC   D2A99346  24.228  12.871   9.468
 8736POPC   C3A99347  24.425  12.905   9.465
 8736POPC   C4A99348  24.622  12.938   9.463
 8736POPC   C1B99349  24.064  12.644   9.506
 8736POPC   C2B99350  24.261  12.677   9.504
 8736POPC   C3B99351  24.458  12.711   9.501
 8736POPC   C4B99352  24.655  12.744   9.499
 8737POPC   NC399353   6.737  15.744  -2.287
 8737POPC   PO499354   6.691  15.826  -2.463
 8737POPC   GL199355   6.645  15.908  -2.639
 8737POPC   GL299356   6.651  15.999  -2.598
 8737POPC   C1A99357   6.599  15.991  -2.815
 8737POPC   D2A99358   6.552  16.073  -2.992
 8737POPC   C3A99359   6.506  16.156  -3.168
 8737POPC   C4A99360   6.460  16.238  -3.344
 8737POPC   C1B99361   6.404  15.982  -2.769
 8737POPC   C2B99362   6.358  16.064  -2.945
 8737POPC   C3B99363   6.312  16.147  -3.121
 8737POPC   C4B99364   6.266  16.229  -3.297
 8738POPC   NC399365  23.481   9.483   7.807
 8738POPC   PO499366  23.679   9.474   7.779
 8738POPC   GL199367  23.877   9.465   7.751
 8738POPC   GL299368  23.879   9.564   7.739
 8738POPC   C1A99369  24.075   9.456   7.722
 8738POPC   D2A99370  24.272   9.448   7.694
 8738POPC   C3A99371  24.470   9.439   7.665
 8738POPC   C4A99372  24.668   9.430   7.637
 8738POPC   C1B99373  24.045   9.434   7.526
 8738POPC   C2B99374  24.243   9.425   7.497
 8738POPC   C3B99375  24.441   9.416   7.469
 8738POPC   C4B99376  24.639   9.408   7.440
 8739POPC   NC399377  13.116  23.432  10.898
 8739POPC   PO499378  13.162  23.626  10.912
 8739POPC   GL199379  13.208  23.820  10.926
 8739POPC   GL299380  13.256  23.802  11.012
 8739POPC   C1A99381  13.254  24.014  10.940
 8739POPC   D2A99382  13.299  24.209  10.955
 8739POPC   C3A99383  13.345  24.403  10.969
 8739POPC   C4A99384  13.391  24.597  10.983
 8739POPC   C1B99385  13.085  24.047  11.042
 8739POPC   C2B99386  13.130  24.241  11.057
 8739POPC   C3B99387  13.176  24.435  11.071
 8739POPC   C4B99388  13.222  24.629  11.085
 8740POPC   NC399389  16.629  -2.055   8.992
 8740POPC   PO499390  16.725  -2.230   8.978
 8740POPC   GL199391  16.821  -2.405   8.964
 8740POPC   GL299392  16.896  -2.360   8.917
 8740POPC   C1A99393  16.917  -2.580   8.951
 8740POPC   D2A99394  17.012  -2.755   8.937
 8740POPC   C3A99395  17.108  -2.930   8.924
 8740POPC   C4A99396  17.204  -3.105   8.910
 8740POPC   C1B99397  16.827  -2.615   8.776
 8740POPC   C2B99398  16.923  -2.790   8.762
 8740POPC   C3B99399  17.018  -2.965   8.748
 8740POPC   C4B99400  17.114  -3.140   8.735
 8741POPC   NC399401  16.835  20.388   4.043
 8741POPC   PO499402  16.938  20.532   3.950
 8741POPC   GL199403  17.041  20.676   3.857
 8741POPC   GL299404  16.988  20.659   3.773
 8741POPC   C1A99405  17.144  20.820   3.764
 8741POPC   D2A99406  17.246  20.964   3.670
 8741POPC   C3A99407  17.349  21.108   3.577
 8741POPC   C4A99408  17.452  21.252   3.484
 8741POPC   C1B99409  17.279  20.685   3.705
 8741POPC   C2B99410  17.382  20.829   3.612
 8741POPC   C3B99411  17.485  20.973   3.519
 8741POPC   C4B99412  17.588  21.117   3.426
 8742POPC   NC399413   9.246  14.434  23.015
 8742POPC   PO499414   9.243  14.500  23.204
 8742POPC   GL199415   9.240  14.566  23.393
 8742POPC   GL299416   9.274  14.477  23.424
 8742POPC   C1A99417   9.236  14.632  23.582
 8742POPC   D2A99418   9.233  14.697  23.770
 8742POPC   C3A99419   9.229  14.763  23.959
 8742POPC   C4A99420   9.226  14.829  24.148
 8742POPC   C1B99421   9.049  14.565  23.601
 8742POPC   C2B99422   9.045  14.631  23.790
 8742POPC   C3B99423   9.042  14.697  23.979
 8742POPC   C4B99424   9.038  14.762  24.168
 8743POPC   NC399425  15.854  16.424  20.638
 8743POPC   PO499426  15.943  16.514  20.793
 8743POPC   GL199427  16.032  16.604  20.948
 8743POPC   GL299428  16.062  16.678  20.887
 8743POPC   C1A99429  16.121  16.695  21.102
 8743POPC   D2A99430  16.211  16.785  21.257
 8743POPC   C3A99431  16.300  16.876  21.411
 8743POPC   C4A99432  16.389  16.966  21.566
 8743POPC   C1B99433  16.290  16.596  21.063
 8743POPC   C2B99434  16.380  16.686  21.217
 8743POPC   C3B99435  16.469  16.776  21.372
 8743POPC   C4B99436  16.558  16.867  21.526
 8744POPC   NC399437  10.847  -2.055  16.783
 8744POPC   PO499438  10.859  -2.225  16.887
 8744POPC   GL199439  10.871  -2.395  16.991
 8744POPC   GL299440  10.958  -2.417  16.945
 8744POPC   C1A99441  10.884  -2.566  17.095
 8744POPC   D2A99442  10.896  -2.736  17.199
 8744POPC   C3A99443  10.909  -2.907  17.303
 8744POPC   C4A99444  10.921  -3.077  17.407
 8744POPC   C1B99445  10.783  -2.661  16.951
 8744POPC   C2B99446  10.795  -2.832  17.055
 8744POPC   C3B99447  10.808  -3.002  17.159
 8744POPC   C4B99448  10.820  -3.172  17.263
 8745POPC   NC399449   4.140  21.225  15.626
 8745POPC   PO499450   4.055  21.388  15.705
 8745POPC   GL199451   3.970  21.551  15.784
 8745POPC   GL299452   4.048  21.606  15.755
 8745POPC   C1A99453   3.884  21.714  15.862
 8745POPC   D2A99454   3.799  21.876  15.941
 8745POPC   C3A99455   3.713  22.039  16.019
 8745POPC   C4A99456   3.628  22.202  16.098
 8745POPC   C1B99457   3.975  21.677  16.037
 8745POPC   C2B99458   3.889  21.840  16.115
 8745POPC   C3B99459   3.804  22.002  16.194
 8745POPC   C4B99460   3.719  22.165  16.272
 8746POPC   NC399461  14.626  22.682   7.301
 8746POPC   PO499462  14.696  22.865   7.262
 8746POPC   GL199463  14.766  23.048   7.223
 8746POPC   GL299464  14.832  23.009   7.159
 8746POPC   C1A99465  14.836  23.231   7.184
 8746POPC   D2A99466  14.907  23.415   7.146
 8746POPC   C3A99467  14.977  23.598   7.107
 8746POPC   C4A99468  15.047  23.781   7.068
 8746POPC   C1B99469  14.969  23.212   7.332
 8746POPC   C2B99470  15.040  23.395   7.294
 8746POPC   C3B99471  15.110  23.578   7.255
 8746POPC   C4B99472  15.180  23.761   7.216
 8747POPC   NC399473  -0.855   5.011   2.548
 8747POPC   PO499474  -1.006   4.941   2.436
 8747POPC   GL199475  -1.157   4.871   2.324
 8747POPC   GL299476  -1.140   4.779   2.359
 8747POPC   C1A99477  -1.308   4.802   2.213
 8747POPC   D2A99478  -1.458   4.732   2.101
 8747POPC   C3A99479  -1.609   4.663   1.990
 8747POPC   C4A99480  -1.760   4.593   1.878
 8747POPC   C1B99481  -1.180   4.768   2.062
 8747POPC   C2B99482  -1.331   4.698   1.951
 8747POPC   C3B99483  -1.482   4.629   1.839
 8747POPC   C4B99484  -1.633   4.559   1.727
 8748POPC   NC399485  20.948  15.607   3.749
 8748POPC   PO499486  21.107  15.688   3.658
 8748POPC   GL199487  21.266  15.769   3.567
 8748POPC   GL299488  21.323  15.696   3.603
 8748POPC   C1A99489  21.424  15.850   3.476
 8748POPC   D2A99490  21.583  15.932   3.385
 8748POPC   C3A99491  21.741  16.013   3.294
 8748POPC   C4A99492  21.900  16.094   3.203
 8748POPC   C1B99493  21.462  15.960   3.639
 8748POPC   C2B99494  21.621  16.041   3.548
 8748POPC   C3B99495  21.779  16.122   3.457
 8748POPC   C4B99496  21.938  16.203   3.366
 8749POPC   NC399497  14.991   0.330  18.424
 8749POPC   PO499498  15.060   0.190  18.550
 8749POPC   GL199499  15.129   0.050  18.676
 8749POPC   GL299500  15.130  -0.016  18.601
 8749POPC   C1A99501  15.198  -0.089  18.801
 8749POPC   D2A99502  15.266  -0.229  18.927
 8749POPC   C3A99503  15.335  -0.368  19.052
 8749POPC   C4A99504  15.404  -0.508  19.178
 8749POPC   C1B99505  15.010  -0.141  18.846
 8749POPC   C2B99506  15.079  -0.281  18.972
 8749POPC   C3B99507  15.147  -0.421  19.097
 8749POPC   C4B99508  15.216  -0.560  19.223
 8750POPC   NC399509  12.472   2.020  20.927
 8750POPC   PO499510  12.506   1.896  21.080
 8750POPC   GL199511  12.540   1.772  21.233
 8750POPC   GL299512  12.603   1.719  21.176
 8750POPC   C1A99513  12.574   1.648  21.386
 8750POPC   D2A99514  12.609   1.524  21.540
 8750POPC   C3A99515  12.643   1.400  21.693
 8750POPC   C4A99516  12.677   1.276  21.846
 8750POPC   C1B99517  12.423   1.532  21.326
 8750POPC   C2B99518  12.457   1.408  21.480
 8750POPC   C3B99519  12.491   1.284  21.633
 8750POPC   C4B99520  12.525   1.160  21.786
 8751POPC   NC399521   5.604  17.383  20.857
 8751POPC   PO499522   5.545  17.497  21.011
 8751POPC   GL199523   5.486  17.611  21.165
 8751POPC   GL299524   5.527  17.546  21.229
 8751POPC   C1A99525   5.427  17.725  21.318
 8751POPC   D2A99526   5.368  17.838  21.472
 8751POPC   C3A99527   5.309  17.952  21.625
 8751POPC   C4A99528   5.250  18.066  21.779
 8751POPC   C1B99529   5.254  17.624  21.327
 8751POPC   C2B99530   5.195  17.738  21.480
 8751POPC   C3B99531   5.136  17.851  21.634
 8751POPC   C4B99532   5.077  17.965  21.788
 8752POPC   NC399533  16.554  21.982   8.930
 8752POPC   PO499534  16.650  22.157   8.919
 8752POPC   GL199535  16.746  22.332   8.908
 8752POPC   GL299536  16.828  22.285   8.875
 8752POPC   C1A99537  16.842  22.507   8.896
 8752POPC   D2A99538  16.938  22.682   8.885
 8752POPC   C3A99539  17.034  22.857   8.873
 8752POPC   C4A99540  17.130  23.032   8.862
 8752POPC   C1B99541  16.905  22.485   9.085
 8752POPC   C2B99542  17.001  22.660   9.073
 8752POPC   C3B99543  17.097  22.835   9.062
 8752POPC   C4B99544  17.193  23.010   9.050
 8753POPC   NC399545  10.846  -2.893   4.788
 8753POPC   PO499546  10.854  -3.076   4.709
 8753POPC   GL199547  10.862  -3.259   4.630
 8753POPC   GL299548  10.922  -3.226   4.557
 8753POPC   C1A99549  10.870  -3.443   4.550
 8753POPC   D2A99550  10.877  -3.626   4.471
 8753POPC   C3A99551  10.885  -3.810   4.391
 8753POPC   C4A99552  10.893  -3.993   4.312
 8753POPC   C1B99553  10.710  -3.401   4.437
 8753POPC   C2B99554  10.718  -3.584   4.358
 8753POPC   C3B99555  10.726  -3.767   4.278
 8753POPC   C4B99556  10.734  -3.951   4.199
 8754POPC   NC399557  -3.778  12.476  10.977
 8754POPC   PO499558  -3.974  12.515  10.992
 8754POPC   GL199559  -4.170  12.554  11.007
 8754POPC   GL299560  -4.154  12.602  11.093
 8754POPC   C1A99561  -4.366  12.592  11.021
 8754POPC   D2A99562  -4.561  12.631  11.036
 8754POPC   C3A99563  -4.757  12.669  11.050
 8754POPC   C4A99564  -4.953  12.708  11.065
 8754POPC   C1B99565  -4.392  12.421  11.122
 8754POPC   C2B99566  -4.588  12.460  11.136
 8754POPC   C3B99567  -4.783  12.498  11.151
 8754POPC   C4B99568  -4.979  12.537  11.165
 8755POPC   NC399569  20.841  12.084  18.151
 8755POPC   PO499570  20.994  12.115  18.276
 8755POPC   GL199571  21.147  12.146  18.401
 8755POPC   GL299572  21.173  12.228  18.349
 8755POPC   C1A99573  21.300  12.177  18.526
 8755POPC   D2A99574  21.454  12.207  18.651
 8755POPC   C3A99575  21.607  12.238  18.776
 8755POPC   C4A99576  21.760  12.269  18.901
 8755POPC   C1B99577  21.418  12.066  18.409
 8755POPC   C2B99578  21.572  12.096  18.534
 8755POPC   C3B99579  21.725  12.127  18.659
 8755POPC   C4B99580  21.878  12.158  18.784
 8756POPC   NC399581  18.640   9.857  -0.784
 8756POPC   PO499582  18.766   9.856  -0.939
 8756POPC   GL199583  18.892   9.855  -1.094
 8756POPC   GL299584  18.872   9.952  -1.111
 8756POPC   C1A99585  19.018   9.854  -1.249
 8756POPC   D2A99586  19.145   9.853  -1.405
 8756POPC   C3A99587  19.271   9.852  -1.560
 8756POPC   C4A99588  19.397   9.851  -1.715
 8756POPC   C1B99589  18.869   9.801  -1.371
 8756POPC   C2B99590  18.995   9.800  -1.526
 8756POPC   C3B99591  19.121   9.799  -1.681
 8756POPC   C4B99592  19.247   9.798  -1.837
 8757POPC   NC399593   3.066   7.157  21.686
 8757POPC   PO499594   2.964   7.109  21.851
 8757POPC   GL199595   2.862   7.061  22.016
 8757POPC   GL299596   2.904   6.970  22.015
 8757POPC   C1A99597   2.760   7.012  22.181
 8757POPC   D2A99598   2.658   6.964  22.346
 8757POPC   C3A99599   2.556   6.915  22.511
 8757POPC   C4A99600   2.454   6.867  22.676
 8757POPC   C1B99601   2.610   6.944  22.068
 8757POPC   C2B99602   2.508   6.895  22.233
 8757POPC   C3B99603   2.406   6.847  22.398
 8757POPC   C4B99604   2.304   6.798  22.563
 8758POPC   NC399605  17.220  21.631   9.644
 8758POPC   PO499606  17.322  21.803   9.640
 8758POPC   GL199607  17.424  21.975   9.636
 8758POPC   GL299608  17.496  21.933   9.693
 8758POPC   C1A99609  17.527  22.147   9.632
 8758POPC   D2A99610  17.629  22.318   9.628
 8758POPC   C3A99611  17.732  22.490   9.624
 8758POPC   C4A99612  17.834  22.662   9.620
 8758POPC   C1B99613  17.431  22.207   9.797
 8758POPC   C2B99614  17.534  22.379   9.793
 8758POPC   C3B99615  17.636  22.551   9.789
 8758POPC   C4B99616  17.739  22.723   9.785
 8759POPC   NC399617   1.607   4.450  19.443
 8759POPC   PO499618   1.488   4.374  19.585
 8759POPC   GL199619   1.369   4.298  19.727
 8759POPC   GL299620   1.449   4.275  19.782
 8759POPC   C1A99621   1.249   4.223  19.868
 8759POPC   D2A99622   1.130   4.147  20.010
 8759POPC   C3A99623   1.010   4.072  20.151
 8759POPC   C4A99624   0.891   3.996  20.293
 8759POPC   C1B99625   1.258   4.044  19.780
 8759POPC   C2B99626   1.138   3.968  19.921
 8759POPC   C3B99627   1.019   3.892  20.063
 8759POPC   C4B99628   0.900   3.817  20.205
 8760POPC   NC399629   0.739  14.692  19.175
 8760POPC   PO499630   0.614  14.761  19.315
 8760POPC   GL199631   0.489  14.830  19.455
 8760POPC   GL299632   0.566  14.843  19.517
 8760POPC   C1A99633   0.363  14.899  19.595
 8760POPC   D2A99634   0.238  14.968  19.734
 8760POPC   C3A99635   0.112  15.037  19.874
 8760POPC   C4A99636  -0.013  15.106  20.014
 8760POPC   C1B99637   0.338  14.713  19.664
 8760POPC   C2B99638   0.213  14.782  19.804
 8760POPC   C3B99639   0.087  14.851  19.943
 8760POPC   C4B99640  -0.038  14.920  20.083
 8761POPC   NC399641   1.379   2.074  17.503
 8761POPC   PO499642   1.257   1.964  17.616
 8761POPC   GL199643   1.135   1.854  17.729
 8761POPC   GL299644   1.212   1.799  17.760
 8761POPC   C1A99645   1.012   1.743  17.843
 8761POPC   D2A99646   0.890   1.633  17.956
 8761POPC   C3A99647   0.767   1.522  18.070
 8761POPC   C4A99648   0.645   1.412  18.183
 8761POPC   C1B99649   0.983   1.618  17.690
 8761POPC   C2B99650   0.861   1.507  17.803
 8761POPC   C3B99651   0.739   1.397  17.916
 8761POPC   C4B99652   0.616   1.287  18.030
 8762POPC   NC399653   4.718  -0.663  17.175
 8762POPC   PO499654   4.645  -0.817  17.279
 8762POPC   GL199655   4.572  -0.971  17.383
 8762POPC   GL299656   4.606  -1.034  17.314
 8762POPC   C1A99657   4.498  -1.125  17.488
 8762POPC   D2A99658   4.425  -1.279  17.592
 8762POPC   C3A99659   4.351  -1.433  17.697
 8762POPC   C4A99660   4.278  -1.587  17.801
 8762POPC   C1B99661   4.326  -1.111  17.387
 8762POPC   C2B99662   4.252  -1.265  17.492
 8762POPC   C3B99663   4.179  -1.419  17.596
 8762POPC   C4B99664   4.106  -1.573  17.701
 8763POPC   NC399665  23.275   6.797  11.256
 8763POPC   PO499666  23.469   6.753  11.275
 8763POPC   GL199667  23.663   6.709  11.294
 8763POPC   GL299668  23.660   6.659  11.208
 8763POPC   C1A99669  23.857   6.666  11.313
 8763POPC   D2A99670  24.052   6.622  11.332
 8763POPC   C3A99671  24.246   6.579  11.351
 8763POPC   C4A99672  24.440   6.535  11.370
 8763POPC   C1B99673  23.810   6.498  11.412
 8763POPC   C2B99674  24.004   6.455  11.431
 8763POPC   C3B99675  24.199   6.411  11.450
 8763POPC   C4B99676  24.393   6.368  11.469
 8764POPC   NC399677  11.994  19.377  -0.031
 8764POPC   PO499678  12.015  19.510  -0.179
 8764POPC   GL199679  12.036  19.643  -0.327
 8764POPC   GL299680  12.125  19.669  -0.291
 8764POPC   C1A99681  12.056  19.776  -0.475
 8764POPC   D2A99682  12.077  19.910  -0.622
 8764POPC   C3A99683  12.097  20.043  -0.770
 8764POPC   C4A99684  12.118  20.176  -0.918
 8764POPC   C1B99685  11.970  19.916  -0.361
 8764POPC   C2B99686  11.991  20.049  -0.508
 8764POPC   C3B99687  12.011  20.183  -0.656
 8764POPC   C4B99688  12.032  20.316  -0.804
 8765POPC   NC399689  12.875  23.392   8.268
 8765POPC   PO499690  12.920  23.585   8.240
 8765POPC   GL199691  12.965  23.778   8.212
 8765POPC   GL299692  13.055  23.752   8.178
 8765POPC   C1A99693  13.009  23.971   8.183
 8765POPC   D2A99694  13.054  24.163   8.155
 8765POPC   C3A99695  13.098  24.356   8.126
 8765POPC   C4A99696  13.143  24.549   8.098
 8765POPC   C1B99697  13.082  23.981   8.369
 8765POPC   C2B99698  13.127  24.174   8.341
 8765POPC   C3B99699  13.172  24.367   8.312
 8765POPC   C4B99700  13.216  24.559   8.284
 8766POPC   NC399701  11.599  20.832   1.467
 8766POPC   PO499702  11.614  20.989   1.343
 8766POPC   GL199703  11.629  21.146   1.219
 8766POPC   GL299704  11.729  21.135   1.218
 8766POPC   C1A99705  11.644  21.302   1.096
 8766POPC   D2A99706  11.659  21.459   0.972
 8766POPC   C3A99707  11.674  21.615   0.849
 8766POPC   C4A99708  11.689  21.772   0.725
 8766POPC   C1B99709  11.658  21.425   1.253
 8766POPC   C2B99710  11.673  21.582   1.129
 8766POPC   C3B99711  11.688  21.738   1.006
 8766POPC   C4B99712  11.703  21.895   0.882
 8767POPC   NC399713   7.249   5.358  22.624
 8767POPC   PO499714   7.213   5.289  22.808
 8767POPC   GL199715   7.177   5.220  22.992
 8767POPC   GL299716   7.272   5.238  23.018
 8767POPC   C1A99717   7.141   5.151  23.176
 8767POPC   D2A99718   7.106   5.082  23.361
 8767POPC   C3A99719   7.070   5.013  23.545
 8767POPC   C4A99720   7.034   4.944  23.729
 8767POPC   C1B99721   7.193   4.967  23.117
 8767POPC   C2B99722   7.157   4.898  23.302
 8767POPC   C3B99723   7.121   4.829  23.486
 8767POPC   C4B99724   7.085   4.760  23.670
 8768POPC   NC399725  16.818   4.961  -0.923
 8768POPC   PO499726  16.920   4.892  -1.081
 8768POPC   GL199727  17.022   4.823  -1.239
 8768POPC   GL299728  17.078   4.906  -1.238
 8768POPC   C1A99729  17.124   4.754  -1.396
 8768POPC   D2A99730  17.227   4.686  -1.554
 8768POPC   C3A99731  17.329   4.617  -1.711
 8768POPC   C4A99732  17.431   4.548  -1.869
 8768POPC   C1B99733  16.994   4.842  -1.519
 8768POPC   C2B99734  17.096   4.774  -1.677
 8768POPC   C3B99735  17.198   4.705  -1.835
 8768POPC   C4B99736  17.300   4.636  -1.992
 8769POPC   NC399737  -3.283  14.387   9.312
 8769POPC   PO499738  -3.473  14.449   9.302
 8769POPC   GL199739  -3.663  14.511   9.292
 8769POPC   GL299740  -3.631  14.602   9.263
 8769POPC   C1A99741  -3.853  14.574   9.281
 8769POPC   D2A99742  -4.042  14.636   9.271
 8769POPC   C3A99743  -4.232  14.699   9.260
 8769POPC   C4A99744  -4.422  14.761   9.250
 8769POPC   C1B99745  -3.844  14.631   9.473
 8769POPC   C2B99746  -4.034  14.693   9.462
 8769POPC   C3B99747  -4.224  14.756   9.452
 8769POPC   C4B99748  -4.414  14.818   9.441
 8770POPC   NC399749   7.145  -2.589   4.845
 8770POPC   PO499750   7.106  -2.771   4.772
 8770POPC   GL199751   7.067  -2.953   4.699
 8770POPC   GL299752   7.144  -2.990   4.749
 8770POPC   C1A99753   7.027  -3.135   4.626
 8770POPC   D2A99754   6.988  -3.316   4.552
 8770POPC   C3A99755   6.948  -3.498   4.479
 8770POPC   C4A99756   6.909  -3.680   4.406
 8770POPC   C1B99757   7.146  -3.097   4.469
 8770POPC   C2B99758   7.107  -3.279   4.396
 8770POPC   C3B99759   7.067  -3.461   4.323
 8770POPC   C4B99760   7.028  -3.643   4.250
 8771POPC   NC399761  15.270  -2.631  11.739
 8771POPC   PO499762  15.351  -2.812  11.765
 8771POPC   GL199763  15.432  -2.993  11.791
 8771POPC   GL299764  15.515  -2.951  11.827
 8771POPC   C1A99765  15.513  -3.174  11.817
 8771POPC   D2A99766  15.594  -3.355  11.844
 8771POPC   C3A99767  15.675  -3.536  11.870
 8771POPC   C4A99768  15.756  -3.717  11.896
 8771POPC   C1B99769  15.588  -3.167  11.632
 8771POPC   C2B99770  15.669  -3.348  11.658
 8771POPC   C3B99771  15.750  -3.529  11.685
 8771POPC   C4B99772  15.831  -3.710  11.711
 8772POPC   NC399773   7.699  18.758  -0.551
 8772POPC   PO499774   7.673  18.889  -0.700
 8772POPC   GL199775   7.647  19.020  -0.849
 8772POPC   GL299776   7.714  19.082  -0.806
 8772POPC   C1A99777   7.622  19.152  -0.997
 8772POPC   D2A99778   7.596  19.283  -1.146
 8772POPC   C3A99779   7.571  19.415  -1.294
 8772POPC   C4A99780   7.545  19.546  -1.443
 8772POPC   C1B99781   7.474  19.239  -0.894
 8772POPC   C2B99782   7.449  19.371  -1.043
 8772POPC   C3B99783   7.423  19.502  -1.192
 8772POPC   C4B99784   7.397  19.633  -1.340
 8773POPC   NC399785  17.847  21.253  11.050
 8773POPC   PO499786  17.957  21.420  11.059
 8773POPC   GL199787  18.067  21.587  11.068
 8773POPC   GL299788  18.116  21.559  10.986
 8773POPC   C1A99789  18.176  21.754  11.076
 8773POPC   D2A99790  18.286  21.922  11.085
 8773POPC   C3A99791  18.395  22.089  11.093
 8773POPC   C4A99792  18.505  22.256  11.102
 8773POPC   C1B99793  18.311  21.660  11.191
 8773POPC   C2B99794  18.420  21.828  11.199
 8773POPC   C3B99795  18.530  21.995  11.208
 8773POPC   C4B99796  18.639  22.162  11.216
 8774POPC   NC399797  11.581  20.236   0.766
 8774POPC   PO499798  11.596  20.383   0.631
 8774POPC   GL199799  11.611  20.530   0.496
 8774POPC   GL299800  11.710  20.534   0.512
 8774POPC   C1A99801  11.626  20.677   0.361
 8774POPC   D2A99802  11.641  20.824   0.227
 8774POPC   C3A99803  11.656  20.971   0.092
 8774POPC   C4A99804  11.671  21.118  -0.043
 8774POPC   C1B99805  11.598  20.812   0.506
 8774POPC   C2B99806  11.613  20.959   0.371
 8774POPC   C3B99807  11.628  21.106   0.236
 8774POPC   C4B99808  11.643  21.253   0.101
 8775POPC   NC399809  -1.612   9.402   2.194
 8775POPC   PO499810  -1.775   9.392   2.078
 8775POPC   GL199811  -1.938   9.382   1.962
 8775POPC   GL299812  -1.936   9.282   1.968
 8775POPC   C1A99813  -2.100   9.372   1.846
 8775POPC   D2A99814  -2.263   9.361   1.730
 8775POPC   C3A99815  -2.425   9.351   1.614
 8775POPC   C4A99816  -2.588   9.341   1.498
 8775POPC   C1B99817  -1.984   9.363   1.684
 8775POPC   C2B99818  -2.146   9.353   1.568
 8775POPC   C3B99819  -2.309   9.343   1.452
 8775POPC   C4B99820  -2.472   9.333   1.336
 8776POPC   NC399821  11.772  11.898  -3.673
 8776POPC   PO499822  11.800  11.931  -3.868
 8776POPC   GL199823  11.828  11.964  -4.063
 8776POPC   GL299824  11.821  11.865  -4.081
 8776POPC   C1A99825  11.855  11.997  -4.259
 8776POPC   D2A99826  11.883  12.029  -4.454
 8776POPC   C3A99827  11.910  12.062  -4.650
 8776POPC   C4A99828  11.938  12.095  -4.845
 8776POPC   C1B99829  12.053  11.980  -4.234
 8776POPC   C2B99830  12.080  12.012  -4.429
 8776POPC   C3B99831  12.108  12.045  -4.624
 8776POPC   C4B99832  12.136  12.078  -4.820
 8777POPC   NC399833  22.036   9.896  16.551
 8777POPC   PO499834  22.210   9.888  16.650
 8777POPC   GL199835  22.384   9.880  16.749
 8777POPC   GL299836  22.428   9.842  16.668
 8777POPC   C1A99837  22.557   9.873  16.848
 8777POPC   D2A99838  22.731   9.865  16.948
 8777POPC   C3A99839  22.904   9.858  17.047
 8777POPC   C4A99840  23.078   9.850  17.146
 8777POPC   C1B99841  22.513   9.688  16.911
 8777POPC   C2B99842  22.687   9.681  17.011
 8777POPC   C3B99843  22.860   9.673  17.110
 8777POPC   C4B99844  23.034   9.665  17.209
 8778POPC   NC399845  15.484  12.608  -2.486
 8778POPC   PO499846  15.567  12.641  -2.665
 8778POPC   GL199847  15.650  12.674  -2.844
 8778POPC   GL299848  15.592  12.603  -2.884
 8778POPC   C1A99849  15.732  12.707  -3.023
 8778POPC   D2A99850  15.815  12.740  -3.203
 8778POPC   C3A99851  15.897  12.773  -3.382
 8778POPC   C4A99852  15.980  12.806  -3.561
 8778POPC   C1B99853  15.873  12.571  -2.984
 8778POPC   C2B99854  15.956  12.604  -3.163
 8778POPC   C3B99855  16.038  12.637  -3.342
 8778POPC   C4B99856  16.121  12.670  -3.521
 8779POPC   NC399857  19.735  15.082   1.590
 8779POPC   PO499858  19.878  15.154   1.470
 8779POPC   GL199859  20.021  15.226   1.350
 8779POPC   GL299860  20.029  15.137   1.306
 8779POPC   C1A99861  20.164  15.299   1.231
 8779POPC   D2A99862  20.307  15.371   1.111
 8779POPC   C3A99863  20.450  15.444   0.992
 8779POPC   C4A99864  20.593  15.516   0.872
 8779POPC   C1B99865  20.303  15.244   1.364
 8779POPC   C2B99866  20.446  15.316   1.244
 8779POPC   C3B99867  20.589  15.389   1.124
 8779POPC   C4B99868  20.732  15.461   1.005
 8780POPC   NC399869  20.606   1.983  13.383
 8780POPC   PO499870  20.759   1.865  13.432
 8780POPC   GL199871  20.912   1.747  13.481
 8780POPC   GL299872  20.959   1.772  13.397
 8780POPC   C1A99873  21.066   1.628  13.531
 8780POPC   D2A99874  21.219   1.510  13.580
 8780POPC   C3A99875  21.373   1.391  13.630
 8780POPC   C4A99876  21.526   1.273  13.679
 8780POPC   C1B99877  20.979   1.476  13.435
 8780POPC   C2B99878  21.132   1.357  13.485
 8780POPC   C3B99879  21.285   1.239  13.534
 8780POPC   C4B99880  21.439   1.120  13.584
 8781POPC   NC399881   1.492  19.637  15.329
 8781POPC   PO499882   1.370  19.776  15.405
 8781POPC   GL199883   1.248  19.915  15.481
 8781POPC   GL299884   1.288  19.900  15.572
 8781POPC   C1A99885   1.127  20.055  15.557
 8781POPC   D2A99886   1.005  20.194  15.633
 8781POPC   C3A99887   0.884  20.334  15.709
 8781POPC   C4A99888   0.762  20.473  15.785
 8781POPC   C1B99889   0.989  19.915  15.594
 8781POPC   C2B99890   0.867  20.054  15.670
 8781POPC   C3B99891   0.746  20.193  15.746
 8781POPC   C4B99892   0.624  20.333  15.822
 8782POPC   NC399893  22.242   4.455   7.150
 8782POPC   PO499894  22.421   4.374   7.114
 8782POPC   GL199895  22.600   4.293   7.078
 8782POPC   GL299896  22.573   4.276   6.983
 8782POPC   C1A99897  22.779   4.212   7.042
 8782POPC   D2A99898  22.959   4.130   7.005
 8782POPC   C3A99899  23.138   4.049   6.969
 8782POPC   C4A99900  23.317   3.968   6.933
 8782POPC   C1B99901  22.709   4.032   7.094
 8782POPC   C2B99902  22.888   3.951   7.058
 8782POPC   C3B99903  23.067   3.870   7.022
 8782POPC   C4B99904  23.246   3.788   6.985
 8783POPC   NC399905   3.138  13.806  -1.529
 8783POPC   PO499906   3.038  13.859  -1.694
 8783POPC   GL199907   2.938  13.912  -1.859
 8783POPC   GL299908   2.860  13.938  -1.803
 8783POPC   C1A99909   2.838  13.964  -2.024
 8783POPC   D2A99910   2.739  14.017  -2.190
 8783POPC   C3A99911   2.639  14.069  -2.355
 8783POPC   C4A99912   2.539  14.122  -2.520
 8783POPC   C1B99913   2.765  13.779  -2.039
 8783POPC   C2B99914   2.665  13.831  -2.204
 8783POPC   C3B99915   2.565  13.884  -2.369
 8783POPC   C4B99916   2.466  13.937  -2.535
 8784POPC   NC399917   6.014  -0.716  17.864
 8784POPC   PO499918   5.958  -0.870  17.979
 8784POPC   GL199919   5.902  -1.024  18.094
 8784POPC   GL299920   5.971  -1.081  18.051
 8784POPC   C1A99921   5.846  -1.178  18.209
 8784POPC   D2A99922   5.789  -1.331  18.323
 8784POPC   C3A99923   5.733  -1.485  18.438
 8784POPC   C4A99924   5.677  -1.639  18.553
 8784POPC   C1B99925   5.713  -1.233  18.070
 8784POPC   C2B99926   5.657  -1.387  18.184
 8784POPC   C3B99927   5.600  -1.541  18.299
 8784POPC   C4B99928   5.544  -1.694  18.414
 8785POPC   NC399929  16.250  16.573  20.298
 8785POPC   PO499930  16.352  16.661  20.446
 8785POPC   GL199931  16.454  16.749  20.594
 8785POPC   GL299932  16.477  16.825  20.533
 8785POPC   C1A99933  16.557  16.836  20.742
 8785POPC   D2A99934  16.659  16.924  20.889
 8785POPC   C3A99935  16.762  17.011  21.037
 8785POPC   C4A99936  16.864  17.099  21.185
 8785POPC   C1B99937  16.723  16.741  20.683
 8785POPC   C2B99938  16.825  16.829  20.831
 8785POPC   C3B99939  16.928  16.916  20.978
 8785POPC   C4B99940  17.030  17.004  21.126
 8786POPC   NC399941  20.061   3.151   3.511
 8786POPC   PO499942  20.205   3.053   3.413
 8786POPC   GL199943  20.349   2.955   3.315
 8786POPC   GL299944  20.410   3.033   3.326
 8786POPC   C1A99945  20.493   2.857   3.216
 8786POPC   D2A99946  20.637   2.760   3.118
 8786POPC   C3A99947  20.781   2.662   3.019
 8786POPC   C4A99948  20.925   2.564   2.921
 8786POPC   C1B99949  20.428   2.935   3.044
 8786POPC   C2B99950  20.572   2.837   2.945
 8786POPC   C3B99951  20.716   2.739   2.847
 8786POPC   C4B99952  20.860   2.641   2.749
 8787POPC   NC399953  13.625  16.502  21.538
 8787POPC   PO499954  13.677  16.592  21.709
 8787POPC   GL199955  13.729  16.682  21.880
 8787POPC   GL299956  13.769  16.597  21.913
 8787POPC   C1A99957  13.781  16.773  22.050
 8787POPC   D2A99958  13.832  16.863  22.221
 8787POPC   C3A99959  13.884  16.954  22.391
 8787POPC   C4A99960  13.936  17.044  22.562
 8787POPC   C1B99961  13.605  16.721  22.131
 8787POPC   C2B99962  13.657  16.812  22.302
 8787POPC   C3B99963  13.709  16.902  22.472
 8787POPC   C4B99964  13.760  16.992  22.643
 8788POPC   NC399965  20.999   7.701  17.735
 8788POPC   PO499966  21.161   7.666  17.846
 8788POPC   GL199967  21.323   7.631  17.957
 8788POPC   GL299968  21.354   7.563  17.891
 8788POPC   C1A99969  21.486   7.596  18.069
 8788POPC   D2A99970  21.648   7.560  18.180
 8788POPC   C3A99971  21.811   7.525  18.292
 8788POPC   C4A99972  21.973   7.490  18.403
 8788POPC   C1B99973  21.387   7.453  18.168
 8788POPC   C2B99974  21.549   7.418  18.280
 8788POPC   C3B99975  21.711   7.383  18.391
 8788POPC   C4B99976  21.874   7.348  18.502
 8789POPC   NC399977   0.288  19.986  10.775
 8789POPC   PO499978   0.150  20.131  10.781
 8789POPC   GL199979   0.012  20.276  10.787
 8789POPC   GL299980   0.054  20.313  10.869
 8789POPC   C1A99981  -0.126  20.420  10.793
 8789POPC   D2A99982  -0.264  20.565  10.798
 8789POPC   C3A99983  -0.402  20.709  10.804
 8789POPC   C4A99984  -0.540  20.854  10.810
 8789POPC   C1B99985  -0.243  20.304  10.905
 8789POPC   C2B99986  -0.381  20.448  10.911
 8789POPC   C3B99987  -0.519  20.593  10.917
 8789POPC   C4B99988  -0.657  20.738  10.923
 8790POPC   NC399989   6.882  23.528  10.899
 8790POPC   PO499990   6.842  23.723  10.912
 8790POPC   GL199991   6.802  23.918  10.925
 8790POPC   GL299992   6.833  23.918  11.020
 8790POPC   C1A99993   6.761  24.114  10.939
 8790POPC   D2A99994   6.721  24.309  10.952
 8790POPC   C3A99995   6.680  24.505  10.966
 8790POPC   C4A99996   6.640  24.700  10.979
 8790POPC   C1B99997   6.575  24.071  11.000
 8790POPC   C2B99998   6.535  24.267  11.013
 8790POPC   C3B99999   6.495  24.462  11.026
 8790POPC   C4B    0   6.454  24.658  11.040
 8791POPC   NC3    1  18.333  16.928   1.437
 8791POPC   PO4    2  18.454  17.033   1.317
 8791POPC   GL1    3  18.575  17.138   1.197
 8791POPC   GL2    4  18.652  17.082   1.226
 8791POPC   C1A    5  18.696  17.244   1.078
 8791POPC   D2A    6  18.816  17.349   0.958
 8791POPC   C3A    7  18.937  17.455   0.839
 8791POPC   C4A    8  19.058  17.560   0.719
 8791POPC   C1B    9  18.734  17.370   1.228
 8791POPC   C2B   10  18.855  17.476   1.108
 8791POPC   C3B   11  18.975  17.581   0.989
 8791POPC   C4B   12  19.096  17.687   0.869
 8792POPC   NC3   13   4.928   7.041  -2.721
 8792POPC   PO4   14   4.858   7.001  -2.904
 8792POPC   GL1   15   4.788   6.961  -3.087
 8792POPC   GL2   16   4.832   6.871  -3.084
 8792POPC   C1A   17   4.718   6.921  -3.270
 8792POPC   D2A   18   4.647   6.881  -3.453
 8792POPC   C3A   19   4.577   6.841  -3.636
 8792POPC   C4A   20   4.507   6.801  -3.819
 8792POPC   C1B   21   4.882   7.000  -3.351
 8792POPC   C2B   22   4.812   6.960  -3.534
 8792POPC   C3B   23   4.742   6.920  -3.717
 8792POPC   C4B   24   4.672   6.880  -3.900
 8793POPC   NC3   25  -0.627   7.562   1.248
 8793POPC   PO4   26  -0.780   7.535   1.122
 8793POPC   GL1   27  -0.933   7.508   0.996
 8793POPC   GL2   28  -0.982   7.583   1.039
 8793POPC   C1A   29  -1.085   7.481   0.869
 8793POPC   D2A   30  -1.238   7.454   0.743
 8793POPC   C3A   31  -1.390   7.427   0.616
 8793POPC   C4A   32  -1.543   7.400   0.490
 8793POPC   C1B   33  -1.168   7.352   0.997
 8793POPC   C2B   34  -1.321   7.325   0.871
 8793POPC   C3B   35  -1.474   7.298   0.744
 8793POPC   C4B   36  -1.626   7.271   0.618
 8794POPC   NC3   37   1.420   1.243  16.626
 8794POPC   PO4   38   1.298   1.118  16.723
 8794POPC   GL1   39   1.176   0.993  16.820
 8794POPC   GL2   40   1.248   0.976  16.888
 8794POPC   C1A   41   1.054   0.868  16.918
 8794POPC   D2A   42   0.933   0.742  17.015
 8794POPC   C3A   43   0.811   0.617  17.113
 8794POPC   C4A   44   0.689   0.492  17.210
 8794POPC   C1B   45   1.123   0.715  16.808
 8794POPC   C2B   46   1.001   0.590  16.905
 8794POPC   C3B   47   0.879   0.465  17.002
 8794POPC   C4B   48   0.757   0.340  17.100
 8795POPC   NC3   49  12.533  -3.611   8.726
 8795POPC   PO4   50  12.574  -3.806   8.709
 8795POPC   GL1   51  12.615  -4.001   8.692
 8795POPC   GL2   52  12.649  -4.002   8.786
 8795POPC   C1A   53  12.655  -4.196   8.676
 8795POPC   D2A   54  12.696  -4.392   8.659
 8795POPC   C3A   55  12.736  -4.587   8.643
 8795POPC   C4A   56  12.777  -4.782   8.626
 8795POPC   C1B   57  12.839  -4.153   8.609
 8795POPC   C2B   58  12.879  -4.348   8.593
 8795POPC   C3B   59  12.920  -4.543   8.576
 8795POPC   C4B   60  12.960  -4.738   8.559
 8796POPC   NC3   61   6.028  17.544  20.890
 8796POPC   PO4   62   5.975  17.661  21.043
 8796POPC   GL1   63   5.922  17.778  21.196
 8796POPC   GL2   64   5.998  17.742  21.251
 8796POPC   C1A   65   5.869  17.896  21.349
 8796POPC   D2A   66   5.817  18.013  21.503
 8796POPC   C3A   67   5.764  18.131  21.656
 8796POPC   C4A   68   5.711  18.248  21.809
 8796POPC   C1B   69   5.749  17.752  21.419
 8796POPC   C2B   70   5.696  17.869  21.572
 8796POPC   C3B   71   5.644  17.986  21.725
 8796POPC   C4B   72   5.591  18.104  21.878
 8797POPC   NC3   73   2.767  21.837  11.140
 8797POPC   PO4   74   2.666  22.010  11.148
 8797POPC   GL1   75   2.565  22.183  11.156
 8797POPC   GL2   76   2.651  22.233  11.143
 8797POPC   C1A   77   2.464  22.355  11.164
 8797POPC   D2A   78   2.364  22.528  11.171
 8797POPC   C3A   79   2.263  22.700  11.179
 8797POPC   C4A   80   2.162  22.873  11.187
 8797POPC   C1B   81   2.491  22.362  11.362
 8797POPC   C2B   82   2.390  22.534  11.370
 8797POPC   C3B   83   2.289  22.707  11.377
 8797POPC   C4B   84   2.188  22.879  11.385
 8798POPC   NC3   85  13.410  15.722  21.989
 8798POPC   PO4   86  13.456  15.804  22.166
 8798POPC   GL1   87  13.502  15.886  22.343
 8798POPC   GL2   88  13.565  15.810  22.361
 8798POPC   C1A   89  13.548  15.968  22.519
 8798POPC   D2A   90  13.594  16.049  22.696
 8798POPC   C3A   91  13.640  16.131  22.872
 8798POPC   C4A   92  13.686  16.213  23.049
 8798POPC   C1B   93  13.400  15.865  22.605
 8798POPC   C2B   94  13.446  15.947  22.782
 8798POPC   C3B   95  13.492  16.029  22.959
 8798POPC   C4B   96  13.538  16.110  23.135
 8799POPC   NC3   97   8.412  12.868  -3.560
 8799POPC   PO4   98   8.393  12.909  -3.755
 8799POPC   GL1   99   8.374  12.950  -3.950
 8799POPC   GL2  100   8.465  12.912  -3.967
 8799POPC   C1A  101   8.356  12.992  -4.145
 8799POPC   D2A  102   8.337  13.033  -4.339
 8799POPC   C3A  103   8.319  13.075  -4.534
 8799POPC   C4A  104   8.300  13.116  -4.729
 8799POPC   C1B  105   8.437  13.172  -4.114
 8799POPC   C2B  106   8.419  13.213  -4.309
 8799POPC   C3B  107   8.400  13.255  -4.504
 8799POPC   C4B  108   8.382  13.296  -4.699
 8800POPC   NC3  109  22.843  14.356   7.942
 8800POPC   PO4  110  23.027  14.429   7.915
 8800POPC   GL1  111  23.211  14.502   7.888
 8800POPC   GL2  112  23.197  14.502   7.789
 8800POPC   C1A  113  23.396  14.574   7.861
 8800POPC   D2A  114  23.580  14.647   7.835
 8800POPC   C3A  115  23.765  14.719   7.808
 8800POPC   C4A  116  23.949  14.792   7.781
 8800POPC   C1B  117  23.467  14.388   7.850
 8800POPC   C2B  118  23.652  14.460   7.823
 8800POPC   C3B  119  23.836  14.533   7.796
 8800POPC   C4B  120  24.021  14.606   7.769
 8801POPC   NC3  121  16.219  15.404  20.939
 8801POPC   PO4  122  16.324  15.478  21.092
 8801POPC   GL1  123  16.429  15.552  21.245
 8801POPC   GL2  124  16.433  15.641  21.200
 8801POPC   C1A  125  16.534  15.625  21.399
 8801POPC   D2A  126  16.640  15.699  21.552
 8801POPC   C3A  127  16.745  15.772  21.706
 8801POPC   C4A  128  16.850  15.846  21.859
 8801POPC   C1B  129  16.704  15.573  21.307
 8801POPC   C2B  130  16.810  15.646  21.461
 8801POPC   C3B  131  16.915  15.720  21.614
 8801POPC   C4B  132  17.020  15.793  21.768
 8802POPC   NC3  133  14.449  22.981   8.989
 8802POPC   PO4  134  14.522  23.167   8.976
 8802POPC   GL1  135  14.595  23.353   8.963
 8802POPC   GL2  136  14.644  23.327   8.879
 8802POPC   C1A  137  14.668  23.539   8.949
 8802POPC   D2A  138  14.740  23.724   8.936
 8802POPC   C3A  139  14.813  23.910   8.922
 8802POPC   C4A  140  14.886  24.096   8.909
 8802POPC   C1B  141  14.826  23.485   9.059
 8802POPC   C2B  142  14.898  23.670   9.046
 8802POPC   C3B  143  14.971  23.856   9.032
 8802POPC   C4B  144  15.044  24.042   9.019
 8803POPC   NC3  145   0.572   2.114  16.564
 8803POPC   PO4  146   0.438   2.002  16.661
 8803POPC   GL1  147   0.304   1.890  16.758
 8803POPC   GL2  148   0.368   1.813  16.758
 8803POPC   C1A  149   0.170   1.778  16.855
 8803POPC   D2A  150   0.036   1.665  16.953
 8803POPC   C3A  151  -0.098   1.553  17.050
 8803POPC   C4A  152  -0.232   1.441  17.147
 8803POPC   C1B  153   0.095   1.716  16.681
 8803POPC   C2B  154  -0.039   1.604  16.778
 8803POPC   C3B  155  -0.173   1.492  16.875
 8803POPC   C4B  156  -0.307   1.379  16.972
 8804POPC   NC3  157   3.539   1.253   1.392
 8804POPC   PO4  158   3.447   1.129   1.265
 8804POPC   GL1  159   3.355   1.005   1.138
 8804POPC   GL2  160   3.441   0.958   1.121
 8804POPC   C1A  161   3.262   0.881   1.011
 8804POPC   D2A  162   3.170   0.757   0.885
 8804POPC   C3A  163   3.077   0.633   0.758
 8804POPC   C4A  164   2.985   0.509   0.631
 8804POPC   C1B  165   3.301   1.006   0.860
 8804POPC   C2B  166   3.209   0.882   0.734
 8804POPC   C3B  167   3.116   0.758   0.607
 8804POPC   C4B  168   3.024   0.634   0.480
 8805POPC   NC3  169  20.566  17.234   5.040
 8805POPC   PO4  170  20.722  17.342   4.977
 8805POPC   GL1  171  20.878  17.450   4.914
 8805POPC   GL2  172  20.923  17.367   4.883
 8805POPC   C1A  173  21.034  17.558   4.851
 8805POPC   D2A  174  21.190  17.667   4.789
 8805POPC   C3A  175  21.346  17.775   4.726
 8805POPC   C4A  176  21.502  17.883   4.663
 8805POPC   C1B  177  21.120  17.538   5.031
 8805POPC   C2B  178  21.276  17.646   4.968
 8805POPC   C3B  179  21.432  17.754   4.905
 8805POPC   C4B  180  21.588  17.863   4.842
 8806POPC   NC3  181   8.511  18.256  20.961
 8806POPC   PO4  182   8.488  18.380  21.116
 8806POPC   GL1  183   8.465  18.504  21.271
 8806POPC   GL2  184   8.519  18.573  21.224
 8806POPC   C1A  185   8.442  18.628  21.426
 8806POPC   D2A  186   8.418  18.752  21.582
 8806POPC   C3A  187   8.395  18.876  21.737
 8806POPC   C4A  188   8.372  19.000  21.892
 8806POPC   C1B  189   8.608  18.554  21.510
 8806POPC   C2B  190   8.585  18.678  21.665
 8806POPC   C3B  191   8.561  18.802  21.820
 8806POPC   C4B  192   8.538  18.926  21.976
 8807POPC   NC3  193   9.882   1.472  -1.009
 8807POPC   PO4  194   9.888   1.351  -1.168
 8807POPC   GL1  195   9.894   1.230  -1.327
 8807POPC   GL2  196   9.988   1.204  -1.304
 8807POPC   C1A  197   9.900   1.110  -1.487
 8807POPC   D2A  198   9.906   0.989  -1.646
 8807POPC   C3A  199   9.912   0.869  -1.806
 8807POPC   C4A  200   9.918   0.748  -1.965
 8807POPC   C1B  201   9.971   1.260  -1.598
 8807POPC   C2B  202   9.977   1.140  -1.757
 8807POPC   C3B  203   9.983   1.019  -1.917
 8807POPC   C4B  204   9.989   0.898  -2.076
 8808POPC   NC3  205  -1.356  12.762  17.616
 8808POPC   PO4  206  -1.517  12.794  17.730
 8808POPC   GL1  207  -1.678  12.826  17.844
 8808POPC   GL2  208  -1.621  12.871  17.912
 8808POPC   C1A  209  -1.839  12.857  17.958
 8808POPC   D2A  210  -2.000  12.889  18.073
 8808POPC   C3A  211  -2.161  12.920  18.187
 8808POPC   C4A  212  -2.322  12.952  18.301
 8808POPC   C1B  213  -1.808  12.682  18.050
 8808POPC   C2B  214  -1.969  12.714  18.164
 8808POPC   C3B  215  -2.130  12.745  18.278
 8808POPC   C4B  216  -2.291  12.777  18.392
 8809POPC   NC3  217   6.992  20.645  18.267
 8809POPC   PO4  218   6.948  20.793  18.395
 8809POPC   GL1  219   6.904  20.941  18.523
 8809POPC   GL2  220   6.971  21.000  18.477
 8809POPC   C1A  221   6.860  21.088  18.650
 8809POPC   D2A  222   6.817  21.236  18.778
 8809POPC   C3A  223   6.773  21.383  18.905
 8809POPC   C4A  224   6.729  21.531  19.033
 8809POPC   C1B  225   7.004  21.024  18.774
 8809POPC   C2B  226   6.960  21.171  18.902
 8809POPC   C3B  227   6.916  21.319  19.029
 8809POPC   C4B  228   6.872  21.466  19.157
 8810POPC   NC3  229  19.190  15.618   1.316
 8810POPC   PO4  230  19.323  15.700   1.191
 8810POPC   GL1  231  19.456  15.782   1.066
 8810POPC   GL2  232  19.381  15.822   1.013
 8810POPC   C1A  233  19.588  15.864   0.941
 8810POPC   D2A  234  19.721  15.946   0.815
 8810POPC   C3A  235  19.853  16.028   0.690
 8810POPC   C4A  236  19.986  16.110   0.565
 8810POPC   C1B  237  19.581  15.700   0.826
 8810POPC   C2B  238  19.714  15.782   0.701
 8810POPC   C3B  239  19.846  15.864   0.576
 8810POPC   C4B  240  19.979  15.946   0.450
 8811POPC   NC3  241  -3.529  13.025  12.077
 8811POPC   PO4  242  -3.721  13.072  12.108
 8811POPC   GL1  243  -3.913  13.119  12.139
 8811POPC   GL2  244  -3.886  13.178  12.215
 8811POPC   C1A  245  -4.105  13.166  12.170
 8811POPC   D2A  246  -4.297  13.213  12.201
 8811POPC   C3A  247  -4.489  13.260  12.232
 8811POPC   C4A  248  -4.681  13.307  12.263
 8811POPC   C1B  249  -4.122  13.012  12.296
 8811POPC   C2B  250  -4.314  13.059  12.327
 8811POPC   C3B  251  -4.506  13.106  12.358
 8811POPC   C4B  252  -4.698  13.153  12.389
 8812POPC   NC3  253  14.930  22.780  11.161
 8812POPC   PO4  254  15.010  22.963  11.175
 8812POPC   GL1  255  15.090  23.146  11.189
 8812POPC   GL2  256  15.147  23.115  11.266
 8812POPC   C1A  257  15.171  23.328  11.203
 8812POPC   D2A  258  15.251  23.511  11.218
 8812POPC   C3A  259  15.332  23.693  11.232
 8812POPC   C4A  260  15.412  23.876  11.246
 8812POPC   C1B  261  15.026  23.382  11.331
 8812POPC   C2B  262  15.107  23.565  11.345
 8812POPC   C3B  263  15.187  23.747  11.359
 8812POPC   C4B  264  15.267  23.930  11.373
 8813POPC   NC3  265  21.289   7.282  17.153
 8813POPC   PO4  266  21.454   7.243  17.259
 8813POPC   GL1  267  21.619   7.204  17.365
 8813POPC   GL2  268  21.672   7.196  17.281
 8813POPC   C1A  269  21.784   7.164  17.472
 8813POPC   D2A  270  21.948   7.125  17.578
 8813POPC   C3A  271  22.113   7.085  17.685
 8813POPC   C4A  272  22.278   7.046  17.791
 8813POPC   C1B  273  21.742   6.969  17.463
 8813POPC   C2B  274  21.907   6.929  17.569
 8813POPC   C3B  275  22.072   6.890  17.676
 8813POPC   C4B  276  22.237   6.850  17.782
 8814POPC   NC3  277  18.869  17.128   2.231
 8814POPC   PO4  278  18.997  17.240   2.126
 8814POPC   GL1  279  19.125  17.352   2.021
 8814POPC   GL2  280  19.202  17.305   2.065
 8814POPC   C1A  281  19.254  17.463   1.916
 8814POPC   D2A  282  19.382  17.575   1.811
 8814POPC   C3A  283  19.511  17.686   1.706
 8814POPC   C4A  284  19.639  17.798   1.601
 8814POPC   C1B  285  19.253  17.601   2.061
 8814POPC   C2B  286  19.382  17.712   1.956
 8814POPC   C3B  287  19.510  17.824   1.851
 8814POPC   C4B  288  19.638  17.935   1.746
 8815POPC   NC3  289  -1.350  18.101   8.371
 8815POPC   PO4  290  -1.510  18.219   8.350
 8815POPC   GL1  291  -1.670  18.337   8.329
 8815POPC   GL2  292  -1.712  18.294   8.410
 8815POPC   C1A  293  -1.830  18.455   8.309
 8815POPC   D2A  294  -1.990  18.574   8.288
 8815POPC   C3A  295  -2.150  18.692   8.268
 8815POPC   C4A  296  -2.310  18.810   8.247
 8815POPC   C1B  297  -1.916  18.319   8.191
 8815POPC   C2B  298  -2.076  18.437   8.170
 8815POPC   C3B  299  -2.236  18.555   8.150
 8815POPC   C4B  300  -2.396  18.673   8.129
 8816POPC   NC3  301  13.395  19.146   0.070
 8816POPC   PO4  302  13.442  19.275  -0.075
 8816POPC   GL1  303  13.489  19.404  -0.220
 8816POPC   GL2  304  13.530  19.330  -0.273
 8816POPC   C1A  305  13.536  19.533  -0.365
 8816POPC   D2A  306  13.583  19.663  -0.511
 8816POPC   C3A  307  13.630  19.792  -0.656
 8816POPC   C4A  308  13.677  19.921  -0.801
 8816POPC   C1B  309  13.712  19.568  -0.277
 8816POPC   C2B  310  13.759  19.697  -0.423
 8816POPC   C3B  311  13.806  19.826  -0.568
 8816POPC   C4B  312  13.853  19.956  -0.713
 8817POPC   NC3  313   2.061  14.340  20.417
 8817POPC   PO4  314   1.947  14.403  20.569
 8817POPC   GL1  315   1.833  14.466  20.721
 8817POPC   GL2  316   1.915  14.478  20.777
 8817POPC   C1A  317   1.719  14.530  20.872
 8817POPC   D2A  318   1.605  14.593  21.024
 8817POPC   C3A  319   1.491  14.657  21.175
 8817POPC   C4A  320   1.377  14.720  21.327
 8817POPC   C1B  321   1.701  14.342  20.938
 8817POPC   C2B  322   1.587  14.405  21.089
 8817POPC   C3B  323   1.473  14.468  21.241
 8817POPC   C4B  324   1.359  14.532  21.392
 8818POPC   NC3  325  15.847  18.201  19.417
 8818POPC   PO4  326  15.933  18.317  19.555
 8818POPC   GL1  327  16.019  18.433  19.693
 8818POPC   GL2  328  16.102  18.438  19.637
 8818POPC   C1A  329  16.105  18.548  19.832
 8818POPC   D2A  330  16.192  18.664  19.970
 8818POPC   C3A  331  16.278  18.779  20.109
 8818POPC   C4A  332  16.364  18.895  20.247
 8818POPC   C1B  333  16.178  18.385  19.922
 8818POPC   C2B  334  16.265  18.501  20.061
 8818POPC   C3B  335  16.351  18.617  20.199
 8818POPC   C4B  336  16.437  18.732  20.337
 8819POPC   NC3  337   3.544  20.529   3.682
 8819POPC   PO4  338   3.447  20.681   3.596
 8819POPC   GL1  339   3.350  20.833   3.510
 8819POPC   GL2  340   3.435  20.887   3.510
 8819POPC   C1A  341   3.253  20.986   3.424
 8819POPC   D2A  342   3.157  21.138   3.337
 8819POPC   C3A  343   3.060  21.291   3.251
 8819POPC   C4A  344   2.963  21.443   3.165
 8819POPC   C1B  345   3.207  21.058   3.604
 8819POPC   C2B  346   3.110  21.211   3.518
 8819POPC   C3B  347   3.013  21.363   3.432
 8819POPC   C4B  348   2.916  21.516   3.345
 8820POPC   NC3  349  12.562  20.847   1.685
 8820POPC   PO4  350  12.598  21.008   1.573
 8820POPC   GL1  351  12.634  21.169   1.461
 8820POPC   GL2  352  12.724  21.132   1.437
 8820POPC   C1A  353  12.671  21.331   1.348
 8820POPC   D2A  354  12.707  21.492   1.236
 8820POPC   C3A  355  12.744  21.654   1.123
 8820POPC   C4A  356  12.780  21.815   1.011
 8820POPC   C1B  357  12.751  21.423   1.506
 8820POPC   C2B  358  12.788  21.584   1.394
 8820POPC   C3B  359  12.824  21.746   1.282
 8820POPC   C4B  360  12.860  21.907   1.169
 8821POPC   NC3  361   3.393  21.141   5.105
 8821POPC   PO4  362   3.294  21.300   5.036
 8821POPC   GL1  363   3.195  21.459   4.967
 8821POPC   GL2  364   3.280  21.510   4.961
 8821POPC   C1A  365   3.095  21.618   4.898
 8821POPC   D2A  366   2.996  21.778   4.829
 8821POPC   C3A  367   2.896  21.937   4.760
 8821POPC   C4A  368   2.797  22.096   4.691
 8821POPC   C1B  369   3.069  21.683   5.085
 8821POPC   C2B  370   2.969  21.842   5.016
 8821POPC   C3B  371   2.870  22.002   4.947
 8821POPC   C4B  372   2.771  22.161   4.878
 8822POPC   NC3  373  10.935  15.678  22.472
 8822POPC   PO4  374  10.957  15.754  22.656
 8822POPC   GL1  375  10.979  15.830  22.840
 8822POPC   GL2  376  11.041  15.755  22.864
 8822POPC   C1A  377  11.001  15.905  23.024
 8822POPC   D2A  378  11.022  15.981  23.208
 8822POPC   C3A  379  11.044  16.056  23.392
 8822POPC   C4A  380  11.066  16.132  23.576
 8822POPC   C1B  381  10.845  15.797  23.087
 8822POPC   C2B  382  10.867  15.872  23.271
 8822POPC   C3B  383  10.888  15.948  23.455
 8822POPC   C4B  384  10.910  16.024  23.639
 8823POPC   NC3  385  17.876   4.834  -0.068
 8823POPC   PO4  386  17.996   4.758  -0.209
 8823POPC   GL1  387  18.116   4.682  -0.350
 8823POPC   GL2  388  18.193   4.734  -0.312
 8823POPC   C1A  389  18.236   4.606  -0.491
 8823POPC   D2A  390  18.356   4.531  -0.631
 8823POPC   C3A  391  18.476   4.455  -0.772
 8823POPC   C4A  392  18.596   4.379  -0.913
 8823POPC   C1B  393  18.192   4.760  -0.611
 8823POPC   C2B  394  18.312   4.684  -0.752
 8823POPC   C3B  395  18.432   4.608  -0.893
 8823POPC   C4B  396  18.552   4.532  -1.033
 8824POPC   NC3  397  -2.538  16.217   9.145
 8824POPC   PO4  398  -2.719  16.302   9.133
 8824POPC   GL1  399  -2.900  16.387   9.121
 8824POPC   GL2  400  -2.859  16.469   9.082
 8824POPC   C1A  401  -3.081  16.472   9.109
 8824POPC   D2A  402  -3.261  16.556   9.098
 8824POPC   C3A  403  -3.442  16.641   9.086
 8824POPC   C4A  404  -3.623  16.726   9.074
 8824POPC   C1B  405  -3.057  16.547   9.293
 8824POPC   C2B  406  -3.238  16.632   9.282
 8824POPC   C3B  407  -3.419  16.716   9.270
 8824POPC   C4B  408  -3.600  16.801   9.258
 8825POPC   NC3  409  15.403  -2.683   9.360
 8825POPC   PO4  410  15.483  -2.866   9.349
 8825POPC   GL1  411  15.563  -3.049   9.338
 8825POPC   GL2  412  15.649  -3.009   9.306
 8825POPC   C1A  413  15.643  -3.232   9.327
 8825POPC   D2A  414  15.724  -3.414   9.317
 8825POPC   C3A  415  15.804  -3.597   9.306
 8825POPC   C4A  416  15.884  -3.780   9.295
 8825POPC   C1B  417  15.581  -3.248   9.138
 8825POPC   C2B  418  15.661  -3.431   9.127
 8825POPC   C3B  419  15.741  -3.614   9.117
 8825POPC   C4B  420  15.821  -3.796   9.106
 8826POPC   NC3  421   1.523  19.142  16.189
 8826POPC   PO4  422   1.400  19.272  16.278
 8826POPC   GL1  423   1.277  19.402  16.367
 8826POPC   GL2  424   1.344  19.416  16.440
 8826POPC   C1A  425   1.154  19.532  16.456
 8826POPC   D2A  426   1.030  19.663  16.545
 8826POPC   C3A  427   0.907  19.793  16.634
 8826POPC   C4A  428   0.784  19.923  16.723
 8826POPC   C1B  429   1.071  19.383  16.560
 8826POPC   C2B  430   0.947  19.513  16.649
 8826POPC   C3B  431   0.824  19.643  16.738
 8826POPC   C4B  432   0.701  19.774  16.827
 8827POPC   NC3  433  18.069  21.061  11.490
 8827POPC   PO4  434  18.187  21.221  11.511
 8827POPC   GL1  435  18.305  21.381  11.532
 8827POPC   GL2  436  18.369  21.343  11.465
 8827POPC   C1A  437  18.423  21.541  11.553
 8827POPC   D2A  438  18.542  21.701  11.574
 8827POPC   C3A  439  18.660  21.861  11.595
 8827POPC   C4A  440  18.778  22.021  11.616
 8827POPC   C1B  441  18.523  21.448  11.699
 8827POPC   C2B  442  18.641  21.608  11.720
 8827POPC   C3B  443  18.759  21.768  11.741
 8827POPC   C4B  444  18.878  21.928  11.762
 8828POPC   NC3  445  -3.525  11.887  13.085
 8828POPC   PO4  446  -3.718  11.910  13.133
 8828POPC   GL1  447  -3.911  11.933  13.181
 8828POPC   GL2  448  -3.885  11.949  13.276
 8828POPC   C1A  449  -4.104  11.956  13.228
 8828POPC   D2A  450  -4.296  11.978  13.276
 8828POPC   C3A  451  -4.489  12.001  13.323
 8828POPC   C4A  452  -4.682  12.024  13.371
 8828POPC   C1B  453  -4.118  11.760  13.266
 8828POPC   C2B  454  -4.310  11.782  13.313
 8828POPC   C3B  455  -4.503  11.805  13.361
 8828POPC   C4B  456  -4.696  11.828  13.408
 8829POPC   NC3  457  13.455  14.840  22.356
 8829POPC   PO4  458  13.499  14.913  22.537
 8829POPC   GL1  459  13.543  14.986  22.718
 8829POPC   GL2  460  13.573  14.895  22.747
 8829POPC   C1A  461  13.588  15.058  22.899
 8829POPC   D2A  462  13.632  15.131  23.080
 8829POPC   C3A  463  13.677  15.203  23.261
 8829POPC   C4A  464  13.721  15.276  23.442
 8829POPC   C1B  465  13.402  15.017  22.961
 8829POPC   C2B  466  13.446  15.090  23.142
 8829POPC   C3B  467  13.491  15.163  23.323
 8829POPC   C4B  468  13.535  15.235  23.504
 8830POPC   NC3  469   8.256  -2.849  14.940
 8830POPC   PO4  470   8.232  -3.034  15.013
 8830POPC   GL1  471   8.208  -3.219  15.086
 8830POPC   GL2  472   8.244  -3.257  15.001
 8830POPC   C1A  473   8.185  -3.403  15.160
 8830POPC   D2A  474   8.161  -3.588  15.233
 8830POPC   C3A  475   8.138  -3.772  15.307
 8830POPC   C4A  476   8.114  -3.957  15.380
 8830POPC   C1B  477   7.999  -3.409  15.086
 8830POPC   C2B  478   7.975  -3.593  15.159
 8830POPC   C3B  479   7.952  -3.778  15.233
 8830POPC   C4B  480   7.928  -3.963  15.306
 8831POPC   NC3  481  21.316   2.470   8.080
 8831POPC   PO4  482  21.483   2.363   8.053
 8831POPC   GL1  483  21.650   2.256   8.026
 8831POPC   GL2  484  21.649   2.279   7.929
 8831POPC   C1A  485  21.817   2.149   8.000
 8831POPC   D2A  486  21.983   2.042   7.973
 8831POPC   C3A  487  22.150   1.935   7.947
 8831POPC   C4A  488  22.317   1.828   7.920
 8831POPC   C1B  489  21.706   1.986   7.963
 8831POPC   C2B  490  21.873   1.879   7.936
 8831POPC   C3B  491  22.040   1.772   7.910
 8831POPC   C4B  492  22.207   1.665   7.883
 8832POPC   NC3  493  -1.991   7.359   3.246
 8832POPC   PO4  494  -2.163   7.326   3.149
 8832POPC   GL1  495  -2.335   7.293   3.052
 8832POPC   GL2  496  -2.329   7.196   3.075
 8832POPC   C1A  497  -2.507   7.260   2.956
 8832POPC   D2A  498  -2.679   7.228   2.859
 8832POPC   C3A  499  -2.851   7.195   2.763
 8832POPC   C4A  500  -3.023   7.162   2.666
 8832POPC   C1B  501  -2.406   7.227   2.787
 8832POPC   C2B  502  -2.578   7.195   2.690
 8832POPC   C3B  503  -2.750   7.162   2.593
 8832POPC   C4B  504  -2.922   7.129   2.497
 8833POPC   NC3  505  13.740  12.407  -3.154
 8833POPC   PO4  506  13.794  12.443  -3.343
 8833POPC   GL1  507  13.848  12.479  -3.532
 8833POPC   GL2  508  13.762  12.440  -3.564
 8833POPC   C1A  509  13.902  12.516  -3.721
 8833POPC   D2A  510  13.956  12.552  -3.910
 8833POPC   C3A  511  14.010  12.589  -4.099
 8833POPC   C4A  512  14.064  12.625  -4.288
 8833POPC   C1B  513  13.988  12.335  -3.731
 8833POPC   C2B  514  14.042  12.372  -3.920
 8833POPC   C3B  515  14.096  12.408  -4.109
 8833POPC   C4B  516  14.150  12.445  -4.298
 8834POPC   NC3  517  -0.599  11.866   1.023
 8834POPC   PO4  518  -0.744  11.882   0.886
 8834POPC   GL1  519  -0.889  11.898   0.749
 8834POPC   GL2  520  -0.892  11.997   0.764
 8834POPC   C1A  521  -1.034  11.915   0.612
 8834POPC   D2A  522  -1.178  11.931   0.475
 8834POPC   C3A  523  -1.323  11.948   0.338
 8834POPC   C4A  524  -1.468  11.964   0.201
 8834POPC   C1B  525  -1.171  11.888   0.755
 8834POPC   C2B  526  -1.316  11.904   0.618
 8834POPC   C3B  527  -1.461  11.921   0.481
 8834POPC   C4B  528  -1.606  11.937   0.344
 8835POPC   NC3  529  22.978  11.365   5.677
 8835POPC   PO4  530  23.168  11.378   5.616
 8835POPC   GL1  531  23.358  11.391   5.555
 8835POPC   GL2  532  23.356  11.294   5.529
 8835POPC   C1A  533  23.548  11.404   5.493
 8835POPC   D2A  534  23.738  11.417   5.432
 8835POPC   C3A  535  23.928  11.430   5.370
 8835POPC   C4A  536  24.118  11.443   5.309
 8835POPC   C1B  537  23.611  11.354   5.676
 8835POPC   C2B  538  23.801  11.367   5.615
 8835POPC   C3B  539  23.991  11.380   5.554
 8835POPC   C4B  540  24.181  11.393   5.492
 8836POPC   NC3  541  12.139  17.135  -1.685
 8836POPC   PO4  542  12.172  17.237  -1.854
 8836POPC   GL1  543  12.205  17.339  -2.023
 8836POPC   GL2  544  12.302  17.344  -2.001
 8836POPC   C1A  545  12.238  17.440  -2.192
 8836POPC   D2A  546  12.271  17.542  -2.361
 8836POPC   C3A  547  12.304  17.643  -2.530
 8836POPC   C4A  548  12.337  17.745  -2.699
 8836POPC   C1B  549  12.206  17.612  -2.095
 8836POPC   C2B  550  12.239  17.714  -2.264
 8836POPC   C3B  551  12.272  17.815  -2.433
 8836POPC   C4B  552  12.305  17.917  -2.602
 8837POPC   NC3  553   4.678  20.397  17.470
 8837POPC   PO4  554   4.607  20.547  17.581
 8837POPC   GL1  555   4.536  20.697  17.692
 8837POPC   GL2  556   4.616  20.753  17.668
 8837POPC   C1A  557   4.465  20.848  17.803
 8837POPC   D2A  558   4.394  20.998  17.914
 8837POPC   C3A  559   4.323  21.149  18.025
 8837POPC   C4A  560   4.252  21.299  18.136
 8837POPC   C1B  561   4.562  20.776  17.963
 8837POPC   C2B  562   4.491  20.926  18.074
 8837POPC   C3B  563   4.420  21.077  18.185
 8837POPC   C4B  564   4.349  21.227  18.296
 8838POPC   NC3  565  21.947   8.132   3.409
 8838POPC   PO4  566  22.122   8.111   3.315
 8838POPC   GL1  567  22.297   8.090   3.221
 8838POPC   GL2  568  22.273   7.996   3.196
 8838POPC   C1A  569  22.472   8.069   3.126
 8838POPC   D2A  570  22.647   8.047   3.032
 8838POPC   C3A  571  22.822   8.026   2.937
 8838POPC   C4A  572  22.997   8.005   2.843
 8838POPC   C1B  573  22.556   8.003   3.296
 8838POPC   C2B  574  22.731   7.982   3.201
 8838POPC   C3B  575  22.906   7.961   3.107
 8838POPC   C4B  576  23.081   7.940   3.013
 8839POPC   NC3  577   2.790   2.704  19.315
 8839POPC   PO4  578   2.683   2.604  19.451
 8839POPC   GL1  579   2.576   2.504  19.587
 8839POPC   GL2  580   2.656   2.499  19.647
 8839POPC   C1A  581   2.469   2.404  19.723
 8839POPC   D2A  582   2.362   2.303  19.859
 8839POPC   C3A  583   2.255   2.203  19.995
 8839POPC   C4A  584   2.148   2.103  20.131
 8839POPC   C1B  585   2.523   2.231  19.638
 8839POPC   C2B  586   2.416   2.131  19.774
 8839POPC   C3B  587   2.309   2.030  19.910
 8839POPC   C4B  588   2.202   1.930  20.046
 8840POPC   NC3  589  19.376   6.122   0.654
 8840POPC   PO4  590  19.510   6.059   0.519
 8840POPC   GL1  591  19.644   5.996   0.384
 8840POPC   GL2  592  19.570   5.958   0.328
 8840POPC   C1A  593  19.778   5.934   0.249
 8840POPC   D2A  594  19.912   5.871   0.115
 8840POPC   C3A  595  20.046   5.809  -0.020
 8840POPC   C4A  596  20.180   5.746  -0.155
 8840POPC   C1B  597  19.794   5.760   0.346
 8840POPC   C2B  598  19.928   5.697   0.211
 8840POPC   C3B  599  20.062   5.634   0.077
 8840POPC   C4B  600  20.196   5.572  -0.058
 8841POPC   NC3  601  -3.000  12.796  14.412
 8841POPC   PO4  602  -3.186  12.835  14.475
 8841POPC   GL1  603  -3.372  12.874  14.538
 8841POPC   GL2  604  -3.349  12.971  14.546
 8841POPC   C1A  605  -3.558  12.913  14.601
 8841POPC   D2A  606  -3.743  12.953  14.664
 8841POPC   C3A  607  -3.929  12.992  14.727
 8841POPC   C4A  608  -4.115  13.031  14.790
 8841POPC   C1B  609  -3.500  12.884  14.790
 8841POPC   C2B  610  -3.686  12.923  14.853
 8841POPC   C3B  611  -3.871  12.962  14.916
 8841POPC   C4B  612  -4.057  13.001  14.979
 8842POPC   NC3  613   9.152   9.070  23.734
 8842POPC   PO4  614   9.136   9.056  23.933
 8842POPC   GL1  615   9.120   9.042  24.132
 8842POPC   GL2  616   9.216   9.067  24.141
 8842POPC   C1A  617   9.104   9.027  24.331
 8842POPC   D2A  618   9.088   9.013  24.529
 8842POPC   C3A  619   9.072   8.998  24.728
 8842POPC   C4A  620   9.056   8.984  24.927
 8842POPC   C1B  621   9.156   8.834  24.321
 8842POPC   C2B  622   9.140   8.820  24.520
 8842POPC   C3B  623   9.124   8.805  24.718
 8842POPC   C4B  624   9.108   8.791  24.917
 8843POPC   NC3  625  23.273  12.328  12.311
 8843POPC   PO4  626  23.468  12.360  12.345
 8843POPC   GL1  627  23.663  12.392  12.379
 8843POPC   GL2  628  23.659  12.475  12.322
 8843POPC   C1A  629  23.857  12.424  12.412
 8843POPC   D2A  630  24.052  12.457  12.446
 8843POPC   C3A  631  24.246  12.489  12.479
 8843POPC   C4A  632  24.441  12.521  12.513
 8843POPC   C1B  633  23.903  12.316  12.250
 8843POPC   C2B  634  24.098  12.348  12.284
 8843POPC   C3B  635  24.292  12.380  12.318
 8843POPC   C4B  636  24.487  12.413  12.351
 8844POPC   NC3  637   5.166  -2.260   5.447
 8844POPC   PO4  638   5.102  -2.439   5.383
 8844POPC   GL1  639   5.038  -2.618   5.319
 8844POPC   GL2  640   5.074  -2.660   5.402
 8844POPC   C1A  641   4.974  -2.796   5.256
 8844POPC   D2A  642   4.911  -2.975   5.192
 8844POPC   C3A  643   4.847  -3.153   5.129
 8844POPC   C4A  644   4.783  -3.332   5.065
 8844POPC   C1B  645   5.150  -2.826   5.165
 8844POPC   C2B  646   5.086  -3.005   5.101
 8844POPC   C3B  647   5.022  -3.184   5.038
 8844POPC   C4B  648   4.958  -3.362   4.974
 8845POPC   NC3  649  12.982  13.081  -3.200
 8845POPC   PO4  650  13.025  13.129  -3.389
 8845POPC   GL1  651  13.068  13.177  -3.578
 8845POPC   GL2  652  12.990  13.123  -3.610
 8845POPC   C1A  653  13.111  13.224  -3.768
 8845POPC   D2A  654  13.155  13.272  -3.957
 8845POPC   C3A  655  13.198  13.319  -4.147
 8845POPC   C4A  656  13.241  13.367  -4.336
 8845POPC   C1B  657  13.227  13.062  -3.782
 8845POPC   C2B  658  13.271  13.110  -3.972
 8845POPC   C3B  659  13.314  13.157  -4.161
 8845POPC   C4B  660  13.357  13.205  -4.350
 8846POPC   NC3  661   4.787   3.453  -1.176
 8846POPC   PO4  662   4.707   3.352  -1.329
 8846POPC   GL1  663   4.627   3.251  -1.482
 8846POPC   GL2  664   4.666   3.167  -1.447
 8846POPC   C1A  665   4.546   3.151  -1.635
 8846POPC   D2A  666   4.466   3.050  -1.788
 8846POPC   C3A  667   4.385   2.950  -1.941
 8846POPC   C4A  668   4.305   2.849  -2.094
 8846POPC   C1B  669   4.711   3.184  -1.743
 8846POPC   C2B  670   4.631   3.083  -1.896
 8846POPC   C3B  671   4.550   2.983  -2.049
 8846POPC   C4B  672   4.470   2.882  -2.202
 8847POPC   NC3  673   3.152  19.395   2.320
 8847POPC   PO4  674   3.054  19.536   2.218
 8847POPC   GL1  675   2.956  19.677   2.116
 8847POPC   GL2  676   3.026  19.744   2.142
 8847POPC   C1A  677   2.858  19.819   2.014
 8847POPC   D2A  678   2.760  19.960   1.912
 8847POPC   C3A  679   2.662  20.102   1.810
 8847POPC   C4A  680   2.564  20.243   1.708
 8847POPC   C1B  681   2.753  19.865   2.178
 8847POPC   C2B  682   2.655  20.006   2.076
 8847POPC   C3B  683   2.557  20.147   1.974
 8847POPC   C4B  684   2.459  20.289   1.872
 8848POPC   NC3  685  23.373  10.814   7.105
 8848POPC   PO4  686  23.569  10.819   7.066
 8848POPC   GL1  687  23.765  10.824   7.027
 8848POPC   GL2  688  23.766  10.725   7.015
 8848POPC   C1A  689  23.961  10.830   6.988
 8848POPC   D2A  690  24.158  10.835   6.950
 8848POPC   C3A  691  24.354  10.841   6.911
 8848POPC   C4A  692  24.550  10.846   6.872
 8848POPC   C1B  693  24.000  10.806   7.183
 8848POPC   C2B  694  24.197  10.812   7.144
 8848POPC   C3B  695  24.393  10.817   7.106
 8848POPC   C4B  696  24.589  10.823   7.067
 8849POPC   NC3  697  16.144  18.807  18.644
 8849POPC   PO4  698  16.237  18.936  18.766
 8849POPC   GL1  699  16.330  19.065  18.888
 8849POPC   GL2  700  16.418  19.024  18.864
 8849POPC   C1A  701  16.422  19.194  19.009
 8849POPC   D2A  702  16.515  19.324  19.131
 8849POPC   C3A  703  16.607  19.453  19.252
 8849POPC   C4A  704  16.700  19.582  19.374
 8849POPC   C1B  705  16.402  19.066  19.161
 8849POPC   C2B  706  16.495  19.195  19.283
 8849POPC   C3B  707  16.588  19.324  19.404
 8849POPC   C4B  708  16.680  19.453  19.526
 8850POPC   NC3  709   8.012  -3.618  11.629
 8850POPC   PO4  710   7.988  -3.815  11.651
 8850POPC   GL1  711   7.964  -4.012  11.673
 8850POPC   GL2  712   8.024  -4.011  11.752
 8850POPC   C1A  713   7.939  -4.210  11.694
 8850POPC   D2A  714   7.915  -4.407  11.716
 8850POPC   C3A  715   7.890  -4.605  11.737
 8850POPC   C4A  716   7.866  -4.802  11.759
 8850POPC   C1B  717   8.097  -4.242  11.576
 8850POPC   C2B  718   8.073  -4.440  11.597
 8850POPC   C3B  719   8.048  -4.637  11.619
 8850POPC   C4B  720   8.024  -4.834  11.641
 8851POPC   NC3  721  20.634   3.620   3.936
 8851POPC   PO4  722  20.786   3.527   3.845
 8851POPC   GL1  723  20.938   3.434   3.754
 8851POPC   GL2  724  20.982   3.522   3.738
 8851POPC   C1A  725  21.090   3.341   3.664
 8851POPC   D2A  726  21.243   3.249   3.573
 8851POPC   C3A  727  21.395   3.156   3.483
 8851POPC   C4A  728  21.547   3.063   3.392
 8851POPC   C1B  729  20.996   3.357   3.488
 8851POPC   C2B  730  21.148   3.264   3.398
 8851POPC   C3B  731  21.300   3.171   3.307
 8851POPC   C4B  732  21.452   3.078   3.217
 8852POPC   NC3  733  20.119  18.732  12.860
 8852POPC   PO4  734  20.264  18.862  12.907
 8852POPC   GL1  735  20.409  18.992  12.954
 8852POPC   GL2  736  20.379  19.052  12.880
 8852POPC   C1A  737  20.553  19.122  13.001
 8852POPC   D2A  738  20.698  19.252  13.047
 8852POPC   C3A  739  20.842  19.382  13.094
 8852POPC   C4A  740  20.987  19.512  13.141
 8852POPC   C1B  741  20.678  19.029  12.875
 8852POPC   C2B  742  20.822  19.159  12.922
 8852POPC   C3B  743  20.967  19.289  12.969
 8852POPC   C4B  744  21.111  19.419  13.015
 8853POPC   NC3  745  15.444  -1.197  15.975
 8853POPC   PO4  746  15.521  -1.361  16.059
 8853POPC   GL1  747  15.598  -1.525  16.143
 8853POPC   GL2  748  15.683  -1.512  16.093
 8853POPC   C1A  749  15.675  -1.690  16.227
 8853POPC   D2A  750  15.751  -1.854  16.312
 8853POPC   C3A  751  15.828  -2.019  16.396
 8853POPC   C4A  752  15.905  -2.183  16.480
 8853POPC   C1B  753  15.603  -1.800  16.077
 8853POPC   C2B  754  15.680  -1.965  16.161
 8853POPC   C3B  755  15.757  -2.129  16.245
 8853POPC   C4B  756  15.834  -2.293  16.329
 8854POPC   NC3  757  16.642  18.034   0.915
 8854POPC   PO4  758  16.744  18.152   0.790
 8854POPC   GL1  759  16.846  18.270   0.665
 8854POPC   GL2  760  16.930  18.222   0.687
 8854POPC   C1A  761  16.947  18.388   0.539
 8854POPC   D2A  762  17.049  18.507   0.414
 8854POPC   C3A  763  17.150  18.625   0.288
 8854POPC   C4A  764  17.252  18.743   0.163
 8854POPC   C1B  765  16.981  18.517   0.688
 8854POPC   C2B  766  17.083  18.636   0.563
 8854POPC   C3B  767  17.184  18.754   0.437
 8854POPC   C4B  768  17.286  18.872   0.312
 8855POPC   NC3  769  16.127   2.317  19.615
 8855POPC   PO4  770  16.220   2.206  19.753
 8855POPC   GL1  771  16.313   2.095  19.891
 8855POPC   GL2  772  16.351   2.038  19.819
 8855POPC   C1A  773  16.406   1.985  20.029
 8855POPC   D2A  774  16.500   1.874  20.168
 8855POPC   C3A  775  16.593   1.764  20.306
 8855POPC   C4A  776  16.686   1.653  20.444
 8855POPC   C1B  777  16.247   1.865  20.041
 8855POPC   C2B  778  16.340   1.754  20.179
 8855POPC   C3B  779  16.433   1.644  20.317
 8855POPC   C4B  780  16.526   1.533  20.456
 8856POPC   NC3  781  21.334   5.474   3.504
 8856POPC   PO4  782  21.497   5.407   3.409
 8856POPC   GL1  783  21.660   5.340   3.314
 8856POPC   GL2  784  21.634   5.392   3.233
 8856POPC   C1A  785  21.823   5.272   3.220
 8856POPC   D2A  786  21.985   5.205   3.125
 8856POPC   C3A  787  22.148   5.137   3.031
 8856POPC   C4A  788  22.311   5.070   2.936
 8856POPC   C1B  789  21.718   5.116   3.151
 8856POPC   C2B  790  21.881   5.049   3.056
 8856POPC   C3B  791  22.044   4.981   2.962
 8856POPC   C4B  792  22.206   4.914   2.867
 8857POPC   NC3  793  16.426   8.010  -2.031
 8857POPC   PO4  794  16.518   7.980  -2.206
 8857POPC   GL1  795  16.610   7.950  -2.381
 8857POPC   GL2  796  16.609   8.049  -2.398
 8857POPC   C1A  797  16.702   7.921  -2.556
 8857POPC   D2A  798  16.795   7.891  -2.731
 8857POPC   C3A  799  16.887   7.862  -2.906
 8857POPC   C4A  800  16.979   7.832  -3.081
 8857POPC   C1B  801  16.525   7.903  -2.646
 8857POPC   C2B  802  16.617   7.873  -2.821
 8857POPC   C3B  803  16.709   7.843  -2.996
 8857POPC   C4B  804  16.802   7.814  -3.171
 8858POPC   NC3  805  15.790  11.816  -2.453
 8858POPC   PO4  806  15.879  11.835  -2.631
 8858POPC   GL1  807  15.968  11.854  -2.809
 8858POPC   GL2  808  15.892  11.807  -2.852
 8858POPC   C1A  809  16.058  11.873  -2.987
 8858POPC   D2A  810  16.147  11.892  -3.164
 8858POPC   C3A  811  16.237  11.911  -3.342
 8858POPC   C4A  812  16.326  11.930  -3.520
 8858POPC   C1B  813  16.149  11.697  -2.959
 8858POPC   C2B  814  16.239  11.716  -3.137
 8858POPC   C3B  815  16.328  11.735  -3.315
 8858POPC   C4B  816  16.417  11.754  -3.493
 8859POPC   NC3  817  22.997  14.265   9.023
 8859POPC   PO4  818  23.184  14.336   9.009
 8859POPC   GL1  819  23.371  14.407   8.995
 8859POPC   GL2  820  23.365  14.401   8.895
 8859POPC   C1A  821  23.557  14.477   8.980
 8859POPC   D2A  822  23.744  14.548   8.966
 8859POPC   C3A  823  23.930  14.618   8.951
 8859POPC   C4A  824  24.117  14.689   8.937
 8859POPC   C1B  825  23.628  14.290   8.987
 8859POPC   C2B  826  23.815  14.361   8.972
 8859POPC   C3B  827  24.001  14.432   8.958
 8859POPC   C4B  828  24.188  14.502   8.943
 8860POPC   NC3  829  -3.168   5.921  12.020
 8860POPC   PO4  830  -3.357   5.862  12.051
 8860POPC   GL1  831  -3.546   5.803  12.082
 8860POPC   GL2  832  -3.531   5.809  12.181
 8860POPC   C1A  833  -3.734   5.744  12.113
 8860POPC   D2A  834  -3.923   5.686  12.144
 8860POPC   C3A  835  -4.111   5.627  12.175
 8860POPC   C4A  836  -4.300   5.568  12.206
 8860POPC   C1B  837  -3.674   5.554  12.116
 8860POPC   C2B  838  -3.863   5.495  12.147
 8860POPC   C3B  839  -4.051   5.436  12.178
 8860POPC   C4B  840  -4.240   5.377  12.209
 8861POPC   NC3  841  19.770  16.040  17.516
 8861POPC   PO4  842  19.908  16.128  17.632
 8861POPC   GL1  843  20.046  16.216  17.748
 8861POPC   GL2  844  20.116  16.156  17.709
 8861POPC   C1A  845  20.183  16.304  17.863
 8861POPC   D2A  846  20.321  16.392  17.979
 8861POPC   C3A  847  20.458  16.480  18.094
 8861POPC   C4A  848  20.596  16.568  18.210
 8861POPC   C1B  849  20.148  16.170  18.007
 8861POPC   C2B  850  20.285  16.258  18.123
 8861POPC   C3B  851  20.423  16.346  18.239
 8861POPC   C4B  852  20.560  16.434  18.354
 8862POPC   NC3  853  -3.953   9.079   8.682
 8862POPC   PO4  854  -4.151   9.070   8.658
 8862POPC   GL1  855  -4.349   9.061   8.634
 8862POPC   GL2  856  -4.359   9.150   8.677
 8862POPC   C1A  857  -4.547   9.051   8.609
 8862POPC   D2A  858  -4.746   9.042   8.585
 8862POPC   C3A  859  -4.944   9.032   8.560
 8862POPC   C4A  860  -5.142   9.023   8.536
 8862POPC   C1B  861  -4.565   8.962   8.787
 8862POPC   C2B  862  -4.763   8.953   8.763
 8862POPC   C3B  863  -4.962   8.943   8.739
 8862POPC   C4B  864  -5.160   8.934   8.714
 8863POPC   NC3  865   9.850   2.484  -1.705
 8863POPC   PO4  866   9.856   2.378  -1.875
 8863POPC   GL1  867   9.862   2.272  -2.045
 8863POPC   GL2  868   9.936   2.330  -2.078
 8863POPC   C1A  869   9.868   2.166  -2.214
 8863POPC   D2A  870   9.873   2.061  -2.384
 8863POPC   C3A  871   9.879   1.955  -2.553
 8863POPC   C4A  872   9.885   1.849  -2.723
 8863POPC   C1B  873   9.734   2.291  -2.296
 8863POPC   C2B  874   9.740   2.185  -2.466
 8863POPC   C3B  875   9.746   2.079  -2.636
 8863POPC   C4B  876   9.752   1.973  -2.805
 8864POPC   NC3  877  11.772  -3.307  13.344
 8864POPC   PO4  878  11.798  -3.499  13.392
 8864POPC   GL1  879  11.824  -3.691  13.440
 8864POPC   GL2  880  11.884  -3.703  13.361
 8864POPC   C1A  881  11.851  -3.884  13.488
 8864POPC   D2A  882  11.877  -4.076  13.536
 8864POPC   C3A  883  11.904  -4.269  13.584
 8864POPC   C4A  884  11.930  -4.461  13.632
 8864POPC   C1B  885  11.692  -3.933  13.377
 8864POPC   C2B  886  11.719  -4.126  13.425
 8864POPC   C3B  887  11.745  -4.318  13.473
 8864POPC   C4B  888  11.771  -4.511  13.521
 8865POPC   NC3  889  -1.901   9.992   2.587
 8865POPC   PO4  890  -2.070   9.989   2.480
 8865POPC   GL1  891  -2.239   9.986   2.373
 8865POPC   GL2  892  -2.241   9.886   2.379
 8865POPC   C1A  893  -2.408   9.983   2.266
 8865POPC   D2A  894  -2.577   9.979   2.160
 8865POPC   C3A  895  -2.746   9.976   2.053
 8865POPC   C4A  896  -2.915   9.973   1.946
 8865POPC   C1B  897  -2.301   9.971   2.098
 8865POPC   C2B  898  -2.470   9.968   1.991
 8865POPC   C3B  899  -2.639   9.964   1.884
 8865POPC   C4B  900  -2.808   9.961   1.777
 8866POPC   NC3  901  21.449  11.630  17.423
 8866POPC   PO4  902  21.615  11.651  17.533
 8866POPC   GL1  903  21.781  11.672  17.643
 8866POPC   GL2  904  21.805  11.576  17.625
 8866POPC   C1A  905  21.947  11.693  17.752
 8866POPC   D2A  906  22.113  11.713  17.862
 8866POPC   C3A  907  22.279  11.734  17.971
 8866POPC   C4A  908  22.445  11.755  18.081
 8866POPC   C1B  909  21.846  11.638  17.916
 8866POPC   C2B  910  22.012  11.658  18.025
 8866POPC   C3B  911  22.178  11.679  18.135
 8866POPC   C4B  912  22.344  11.700  18.245
 8867POPC   NC3  913  -1.460   4.391  15.719
 8867POPC   PO4  914  -1.623   4.306  15.797
 8867POPC   GL1  915  -1.786   4.221  15.875
 8867POPC   GL2  916  -1.744   4.131  15.865
 8867POPC   C1A  917  -1.949   4.135  15.953
 8867POPC   D2A  918  -2.113   4.050  16.031
 8867POPC   C3A  919  -2.276   3.964  16.109
 8867POPC   C4A  920  -2.439   3.879  16.187
 8867POPC   C1B  921  -2.028   4.119  15.770
 8867POPC   C2B  922  -2.192   4.033  15.848
 8867POPC   C3B  923  -2.355   3.948  15.926
 8867POPC   C4B  924  -2.518   3.862  16.004
 8868POPC   NC3  925   9.558  -2.689   4.357
 8868POPC   PO4  926   9.548  -2.871   4.275
 8868POPC   GL1  927   9.538  -3.053   4.193
 8868POPC   GL2  928   9.618  -3.081   4.246
 8868POPC   C1A  929   9.528  -3.235   4.111
 8868POPC   D2A  930   9.519  -3.418   4.030
 8868POPC   C3A  931   9.509  -3.600   3.948
 8868POPC   C4A  932   9.499  -3.782   3.866
 8868POPC   C1B  933   9.648  -3.175   3.963
 8868POPC   C2B  934   9.638  -3.357   3.881
 8868POPC   C3B  935   9.629  -3.540   3.799
 8868POPC   C4B  936   9.619  -3.722   3.718
 8869POPC   NC3  937   1.525  21.029  11.099
 8869POPC   PO4  938   1.405  21.189  11.105
 8869POPC   GL1  939   1.285  21.349  11.111
 8869POPC   GL2  940   1.365  21.408  11.123
 8869POPC   C1A  941   1.165  21.509  11.117
 8869POPC   D2A  942   1.045  21.668  11.124
 8869POPC   C3A  943   0.925  21.828  11.130
 8869POPC   C4A  944   0.805  21.988  11.136
 8869POPC   C1B  945   1.149  21.489  11.316
 8869POPC   C2B  946   1.029  21.649  11.322
 8869POPC   C3B  947   0.909  21.809  11.328
 8869POPC   C4B  948   0.789  21.969  11.334
 8870POPC   NC3  949   5.060  10.183  22.869
 8870POPC   PO4  950   5.001  10.200  23.059
 8870POPC   GL1  951   4.942  10.217  23.249
 8870POPC   GL2  952   5.001  10.140  23.274
 8870POPC   C1A  953   4.883  10.234  23.440
 8870POPC   D2A  954   4.825  10.250  23.630
 8870POPC   C3A  955   4.766  10.267  23.821
 8870POPC   C4A  956   4.707  10.284  24.011
 8870POPC   C1B  957   4.732  10.108  23.404
 8870POPC   C2B  958   4.673  10.125  23.594
 8870POPC   C3B  959   4.614  10.141  23.785
 8870POPC   C4B  960   4.556  10.158  23.975
 8871POPC   NC3  961   4.020  18.460   0.556
 8871POPC   PO4  962   3.936  18.585   0.424
 8871POPC   GL1  963   3.852  18.710   0.292
 8871POPC   GL2  964   3.935  18.706   0.236
 8871POPC   C1A  965   3.768  18.834   0.160
 8871POPC   D2A  966   3.684  18.959   0.028
 8871POPC   C3A  967   3.600  19.083  -0.104
 8871POPC   C4A  968   3.516  19.208  -0.236
 8871POPC   C1B  969   3.842  18.991   0.260
 8871POPC   C2B  970   3.758  19.115   0.128
 8871POPC   C3B  971   3.674  19.240  -0.004
 8871POPC   C4B  972   3.590  19.364  -0.136
 8872POPC   NC3  973  20.569   4.424  16.782
 8872POPC   PO4  974  20.722   4.354  16.890
 8872POPC   GL1  975  20.875   4.284  16.998
 8872POPC   GL2  976  20.940   4.328  16.935
 8872POPC   C1A  977  21.028   4.214  17.106
 8872POPC   D2A  978  21.182   4.144  17.213
 8872POPC   C3A  979  21.335   4.074  17.321
 8872POPC   C4A  980  21.488   4.004  17.429
 8872POPC   C1B  981  21.032   4.048  16.994
 8872POPC   C2B  982  21.185   3.978  17.102
 8872POPC   C3B  983  21.338   3.908  17.209
 8872POPC   C4B  984  21.491   3.838  17.317
 8873POPC   NC3  985  15.776  14.974  -1.578
 8873POPC   PO4  986  15.862  15.049  -1.742
 8873POPC   GL1  987  15.948  15.124  -1.906
 8873POPC   GL2  988  15.943  15.034  -1.950
 8873POPC   C1A  989  16.034  15.199  -2.070
 8873POPC   D2A  990  16.121  15.274  -2.235
 8873POPC   C3A  991  16.207  15.349  -2.399
 8873POPC   C4A  992  16.293  15.424  -2.563
 8873POPC   C1B  993  16.215  15.153  -1.997
 8873POPC   C2B  994  16.301  15.228  -2.161
 8873POPC   C3B  995  16.387  15.303  -2.325
 8873POPC   C4B  996  16.473  15.378  -2.490
 8874POPC   NC3  997  16.227  22.062   7.971
 8874POPC   PO4  998  16.318  22.238   7.947
 8874POPC   GL1  999  16.409  22.414   7.923
 8874POPC   GL2 1000  16.486  22.368   7.878
 8874POPC   C1A 1001  16.501  22.590   7.899
 8874POPC   D2A 1002  16.592  22.767   7.875
 8874POPC   C3A 1003  16.684  22.943   7.851
 8874POPC   C4A 1004  16.775  23.119   7.827
 8874POPC   C1B 1005  16.591  22.568   8.076
 8874POPC   C2B 1006  16.682  22.744   8.052
 8874POPC   C3B 1007  16.773  22.920   8.028
 8874POPC   C4B 1008  16.865  23.096   8.004
 8875POPC   NC3 1009  12.232  22.915   5.778
 8875POPC   PO4 1010  12.272  23.101   5.716
 8875POPC   GL1 1011  12.312  23.287   5.654
 8875POPC   GL2 1012  12.389  23.252   5.600
 8875POPC   C1A 1013  12.352  23.473   5.591
 8875POPC   D2A 1014  12.391  23.658   5.529
 8875POPC   C3A 1015  12.431  23.844   5.466
 8875POPC   C4A 1016  12.471  24.030   5.404
 8875POPC   C1B 1017  12.473  23.499   5.748
 8875POPC   C2B 1018  12.513  23.685   5.686
 8875POPC   C3B 1019  12.552  23.871   5.623
 8875POPC   C4B 1020  12.592  24.057   5.561
 8876POPC   NC3 1021  22.367  15.845   9.585
 8876POPC   PO4 1022  22.549  15.928   9.575
 8876POPC   GL1 1023  22.731  16.011   9.565
 8876POPC   GL2 1024  22.707  16.052   9.477
 8876POPC   C1A 1025  22.912  16.095   9.555
 8876POPC   D2A 1026  23.094  16.178   9.545
 8876POPC   C3A 1027  23.275  16.262   9.535
 8876POPC   C4A 1028  23.457  16.345   9.525
 8876POPC   C1B 1029  22.982  15.932   9.462
 8876POPC   C2B 1030  23.163  16.015   9.452
 8876POPC   C3B 1031  23.345  16.099   9.442
 8876POPC   C4B 1032  23.527  16.182   9.432
 8877POPC   NC3 1033   8.366  -3.622  11.950
 8877POPC   PO4 1034   8.345  -3.819  11.974
 8877POPC   GL1 1035   8.324  -4.016  11.998
 8877POPC   GL2 1036   8.352  -4.008  12.093
 8877POPC   C1A 1037   8.303  -4.214  12.022
 8877POPC   D2A 1038   8.283  -4.411  12.045
 8877POPC   C3A 1039   8.262  -4.609  12.069
 8877POPC   C4A 1040   8.241  -4.806  12.093
 8877POPC   C1B 1041   8.494  -4.240  11.968
 8877POPC   C2B 1042   8.473  -4.438  11.992
 8877POPC   C3B 1043   8.453  -4.635  12.016
 8877POPC   C4B 1044   8.432  -4.833  12.039
 8878POPC   NC3 1045   1.895  21.187   9.164
 8878POPC   PO4 1046   1.782  21.351   9.145
 8878POPC   GL1 1047   1.669  21.515   9.126
 8878POPC   GL2 1048   1.752  21.571   9.120
 8878POPC   C1A 1049   1.556  21.679   9.107
 8878POPC   D2A 1050   1.443  21.842   9.087
 8878POPC   C3A 1051   1.330  22.006   9.068
 8878POPC   C4A 1052   1.217  22.170   9.049
 8878POPC   C1B 1053   1.555  21.701   9.305
 8878POPC   C2B 1054   1.442  21.865   9.286
 8878POPC   C3B 1055   1.329  22.029   9.267
 8878POPC   C4B 1056   1.216  22.193   9.248
 8879POPC   NC3 1057   8.292  23.586  12.230
 8879POPC   PO4 1058   8.274  23.783  12.260
 8879POPC   GL1 1059   8.256  23.980  12.290
 8879POPC   GL2 1060   8.316  23.973  12.370
 8879POPC   C1A 1061   8.239  24.177  12.321
 8879POPC   D2A 1062   8.221  24.373  12.351
 8879POPC   C3A 1063   8.204  24.570  12.382
 8879POPC   C4A 1064   8.186  24.767  12.412
 8879POPC   C1B 1065   8.080  24.144  12.438
 8879POPC   C2B 1066   8.062  24.341  12.468
 8879POPC   C3B 1067   8.045  24.538  12.499
 8879POPC   C4B 1068   8.027  24.735  12.529
 8880POPC   NC3 1069   9.292   0.202   0.127
 8880POPC   PO4 1070   9.281   0.059  -0.012
 8880POPC   GL1 1071   9.270  -0.084  -0.151
 8880POPC   GL2 1072   9.321  -0.027  -0.215
 8880POPC   C1A 1073   9.259  -0.227  -0.290
 8880POPC   D2A 1074   9.247  -0.371  -0.430
 8880POPC   C3A 1075   9.236  -0.514  -0.569
 8880POPC   C4A 1076   9.225  -0.657  -0.708
 8880POPC   C1B 1077   9.087  -0.149  -0.357
 8880POPC   C2B 1078   9.076  -0.292  -0.497
 8880POPC   C3B 1079   9.065  -0.435  -0.636
 8880POPC   C4B 1080   9.054  -0.578  -0.775
 8881POPC   NC3 1081  -0.681   3.856  16.567
 8881POPC   PO4 1082  -0.830   3.765  16.664
 8881POPC   GL1 1083  -0.979   3.674  16.761
 8881POPC   GL2 1084  -0.944   3.585  16.732
 8881POPC   C1A 1085  -1.129   3.582  16.857
 8881POPC   D2A 1086  -1.278   3.491  16.954
 8881POPC   C3A 1087  -1.428   3.399  17.050
 8881POPC   C4A 1088  -1.577   3.308  17.147
 8881POPC   C1B 1089  -1.241   3.591  16.692
 8881POPC   C2B 1090  -1.390   3.500  16.789
 8881POPC   C3B 1091  -1.540   3.408  16.885
 8881POPC   C4B 1092  -1.689   3.317  16.982
 8882POPC   NC3 1093  21.655  14.603  15.630
 8882POPC   PO4 1094  21.829  14.665  15.707
 8882POPC   GL1 1095  22.003  14.727  15.784
 8882POPC   GL2 1096  21.994  14.814  15.735
 8882POPC   C1A 1097  22.176  14.790  15.862
 8882POPC   D2A 1098  22.350  14.852  15.939
 8882POPC   C3A 1099  22.523  14.915  16.017
 8882POPC   C4A 1100  22.697  14.977  16.094
 8882POPC   C1B 1101  22.274  14.710  15.707
 8882POPC   C2B 1102  22.448  14.773  15.784
 8882POPC   C3B 1103  22.621  14.835  15.861
 8882POPC   C4B 1104  22.795  14.897  15.939
 8883POPC   NC3 1105  21.292  17.794  10.185
 8883POPC   PO4 1106  21.458  17.905  10.186
 8883POPC   GL1 1107  21.624  18.016  10.187
 8883POPC   GL2 1108  21.678  17.935  10.210
 8883POPC   C1A 1109  21.791  18.127  10.188
 8883POPC   D2A 1110  21.957  18.237  10.188
 8883POPC   C3A 1111  22.124  18.348  10.189
 8883POPC   C4A 1112  22.290  18.459  10.190
 8883POPC   C1B 1113  21.764  18.165  10.382
 8883POPC   C2B 1114  21.930  18.276  10.383
 8883POPC   C3B 1115  22.097  18.387  10.384
 8883POPC   C4B 1116  22.263  18.498  10.384
 8884POPC   NC3 1117  12.728  17.796  -1.133
 8884POPC   PO4 1118  12.766  17.906  -1.296
 8884POPC   GL1 1119  12.804  18.016  -1.459
 8884POPC   GL2 1120  12.885  18.054  -1.414
 8884POPC   C1A 1121  12.843  18.126  -1.621
 8884POPC   D2A 1122  12.881  18.236  -1.784
 8884POPC   C3A 1123  12.920  18.346  -1.946
 8884POPC   C4A 1124  12.958  18.456  -2.109
 8884POPC   C1B 1125  12.731  18.274  -1.547
 8884POPC   C2B 1126  12.770  18.384  -1.710
 8884POPC   C3B 1127  12.808  18.494  -1.872
 8884POPC   C4B 1128  12.846  18.604  -2.035
 8885POPC   NC3 1129  21.640   9.596   2.727
 8885POPC   PO4 1130  21.807   9.594   2.618
 8885POPC   GL1 1131  21.974   9.592   2.509
 8885POPC   GL2 1132  21.967   9.691   2.496
 8885POPC   C1A 1133  22.142   9.590   2.399
 8885POPC   D2A 1134  22.309   9.587   2.290
 8885POPC   C3A 1135  22.477   9.585   2.180
 8885POPC   C4A 1136  22.644   9.583   2.071
 8885POPC   C1B 1137  22.033   9.561   2.234
 8885POPC   C2B 1138  22.201   9.558   2.124
 8885POPC   C3B 1139  22.368   9.556   2.015
 8885POPC   C4B 1140  22.536   9.554   1.906
 8886POPC   NC3 1141  15.300  13.849  22.113
 8886POPC   PO4 1142  15.382  13.910  22.285
 8886POPC   GL1 1143  15.464  13.971  22.457
 8886POPC   GL2 1144  15.468  14.065  22.422
 8886POPC   C1A 1145  15.547  14.032  22.629
 8886POPC   D2A 1146  15.629  14.092  22.800
 8886POPC   C3A 1147  15.712  14.153  22.972
 8886POPC   C4A 1148  15.794  14.214  23.144
 8886POPC   C1B 1149  15.729  13.997  22.554
 8886POPC   C2B 1150  15.811  14.058  22.725
 8886POPC   C3B 1151  15.894  14.119  22.897
 8886POPC   C4B 1152  15.976  14.180  23.069
 8887POPC   NC3 1153  13.713  -3.143   7.786
 8887POPC   PO4 1154  13.778  -3.329   7.753
 8887POPC   GL1 1155  13.843  -3.515   7.720
 8887POPC   GL2 1156  13.936  -3.481   7.707
 8887POPC   C1A 1157  13.907  -3.701   7.686
 8887POPC   D2A 1158  13.972  -3.888   7.653
 8887POPC   C3A 1159  14.036  -4.074   7.619
 8887POPC   C4A 1160  14.101  -4.260   7.586
 8887POPC   C1B 1161  13.872  -3.679   7.491
 8887POPC   C2B 1162  13.936  -3.865   7.457
 8887POPC   C3B 1163  14.001  -4.051   7.424
 8887POPC   C4B 1164  14.065  -4.237   7.390
 8888POPC   NC3 1165  11.479  13.395  -3.377
 8888POPC   PO4 1166  11.503  13.448  -3.569
 8888POPC   GL1 1167  11.527  13.501  -3.761
 8888POPC   GL2 1168  11.532  13.404  -3.786
 8888POPC   C1A 1169  11.550  13.553  -3.952
 8888POPC   D2A 1170  11.574  13.606  -4.144
 8888POPC   C3A 1171  11.597  13.658  -4.335
 8888POPC   C4A 1172  11.621  13.711  -4.527
 8888POPC   C1B 1173  11.748  13.558  -3.926
 8888POPC   C2B 1174  11.772  13.611  -4.118
 8888POPC   C3B 1175  11.796  13.663  -4.310
 8888POPC   C4B 1176  11.819  13.716  -4.501
 8889POPC   NC3 1177  18.197  17.763   2.138
 8889POPC   PO4 1178  18.317  17.883   2.033
 8889POPC   GL1 1179  18.437  18.003   1.928
 8889POPC   GL2 1180  18.515  17.946   1.951
 8889POPC   C1A 1181  18.557  18.124   1.823
 8889POPC   D2A 1182  18.678  18.244   1.717
 8889POPC   C3A 1183  18.798  18.365   1.612
 8889POPC   C4A 1184  18.918  18.485   1.507
 8889POPC   C1B 1185  18.590  18.234   1.986
 8889POPC   C2B 1186  18.710  18.355   1.881
 8889POPC   C3B 1187  18.830  18.475   1.776
 8889POPC   C4B 1188  18.950  18.596   1.670
 8890POPC   NC3 1189  -1.302  18.265   9.550
 8890POPC   PO4 1190  -1.461  18.387   9.550
 8890POPC   GL1 1191  -1.620  18.509   9.550
 8890POPC   GL2 1192  -1.666  18.448   9.614
 8890POPC   C1A 1193  -1.778  18.631   9.549
 8890POPC   D2A 1194  -1.937  18.752   9.549
 8890POPC   C3A 1195  -2.095  18.874   9.548
 8890POPC   C4A 1196  -2.254  18.996   9.548
 8890POPC   C1B 1197  -1.856  18.528   9.396
 8890POPC   C2B 1198  -2.015  18.650   9.396
 8890POPC   C3B 1199  -2.173  18.772   9.395
 8890POPC   C4B 1200  -2.332  18.894   9.395
 8891POPC   NC3 1201  18.216  16.203   0.765
 8891POPC   PO4 1202  18.334  16.294   0.632
 8891POPC   GL1 1203  18.452  16.385   0.499
 8891POPC   GL2 1204  18.526  16.322   0.521
 8891POPC   C1A 1205  18.570  16.476   0.366
 8891POPC   D2A 1206  18.689  16.568   0.232
 8891POPC   C3A 1207  18.807  16.659   0.099
 8891POPC   C4A 1208  18.925  16.750  -0.034
 8891POPC   C1B 1209  18.634  16.602   0.508
 8891POPC   C2B 1210  18.752  16.693   0.375
 8891POPC   C3B 1211  18.871  16.784   0.242
 8891POPC   C4B 1212  18.989  16.875   0.108
 8892POPC   NC3 1213   6.160  21.263   2.856
 8892POPC   PO4 1214   6.108  21.424   2.749
 8892POPC   GL1 1215   6.056  21.585   2.642
 8892POPC   GL2 1216   6.068  21.643   2.722
 8892POPC   C1A 1217   6.004  21.745   2.534
 8892POPC   D2A 1218   5.952  21.906   2.427
 8892POPC   C3A 1219   5.900  22.066   2.319
 8892POPC   C4A 1220   5.848  22.227   2.212
 8892POPC   C1B 1221   5.812  21.716   2.584
 8892POPC   C2B 1222   5.760  21.877   2.476
 8892POPC   C3B 1223   5.708  22.037   2.369
 8892POPC   C4B 1224   5.656  22.198   2.261
 8893POPC   NC3 1225  -0.423  10.407  19.137
 8893POPC   PO4 1226  -0.574  10.413  19.268
 8893POPC   GL1 1227  -0.725  10.419  19.399
 8893POPC   GL2 1228  -0.694  10.508  19.431
 8893POPC   C1A 1229  -0.876  10.425  19.530
 8893POPC   D2A 1230  -1.027  10.430  19.661
 8893POPC   C3A 1231  -1.178  10.436  19.792
 8893POPC   C4A 1232  -1.329  10.442  19.923
 8893POPC   C1B 1233  -0.761  10.336  19.667
 8893POPC   C2B 1234  -0.912  10.342  19.798
 8893POPC   C3B 1235  -1.063  10.347  19.929
 8893POPC   C4B 1236  -1.214  10.353  20.060
 8894POPC   NC3 1237   2.360   6.382  20.937
 8894POPC   PO4 1238   2.247   6.323  21.091
 8894POPC   GL1 1239   2.134   6.264  21.245
 8894POPC   GL2 1240   2.213   6.218  21.286
 8894POPC   C1A 1241   2.021   6.204  21.399
 8894POPC   D2A 1242   1.907   6.145  21.552
 8894POPC   C3A 1243   1.794   6.085  21.706
 8894POPC   C4A 1244   1.681   6.026  21.860
 8894POPC   C1B 1245   1.975   6.036  21.300
 8894POPC   C2B 1246   1.862   5.977  21.454
 8894POPC   C3B 1247   1.749   5.917  21.608
 8894POPC   C4B 1248   1.636   5.858  21.762
 8895POPC   NC3 1249  19.306  17.803   3.581
 8895POPC   PO4 1250  19.437  17.921   3.487
 8895POPC   GL1 1251  19.568  18.039   3.393
 8895POPC   GL2 1252  19.533  18.007   3.305
 8895POPC   C1A 1253  19.699  18.157   3.298
 8895POPC   D2A 1254  19.829  18.275   3.204
 8895POPC   C3A 1255  19.960  18.393   3.109
 8895POPC   C4A 1256  20.091  18.511   3.015
 8895POPC   C1B 1257  19.833  18.009   3.300
 8895POPC   C2B 1258  19.964  18.127   3.205
 8895POPC   C3B 1259  20.095  18.245   3.111
 8895POPC   C4B 1260  20.226  18.363   3.016
 8896POPC   NC3 1261  11.175  23.473   7.146
 8896POPC   PO4 1262  11.196  23.668   7.105
 8896POPC   GL1 1263  11.217  23.863   7.064
 8896POPC   GL2 1264  11.250  23.879   7.157
 8896POPC   C1A 1265  11.237  24.057   7.023
 8896POPC   D2A 1266  11.258  24.252   6.981
 8896POPC   C3A 1267  11.278  24.446   6.940
 8896POPC   C4A 1268  11.299  24.641   6.899
 8896POPC   C1B 1269  11.050  24.090   7.085
 8896POPC   C2B 1270  11.071  24.285   7.043
 8896POPC   C3B 1271  11.091  24.479   7.002
 8896POPC   C4B 1272  11.112  24.674   6.961
 8897POPC   NC3 1273   2.404  -1.645   8.614
 8897POPC   PO4 1274   2.294  -1.811   8.596
 8897POPC   GL1 1275   2.184  -1.977   8.578
 8897POPC   GL2 1276   2.256  -2.030   8.623
 8897POPC   C1A 1277   2.074  -2.143   8.560
 8897POPC   D2A 1278   1.965  -2.310   8.541
 8897POPC   C3A 1279   1.855  -2.476   8.523
 8897POPC   C4A 1280   1.745  -2.642   8.505
 8897POPC   C1B 1281   2.159  -2.180   8.382
 8897POPC   C2B 1282   2.049  -2.346   8.364
 8897POPC   C3B 1283   1.940  -2.512   8.346
 8897POPC   C4B 1284   1.830  -2.679   8.328
 8898POPC   NC3 1285  23.350  13.017  10.690
 8898POPC   PO4 1286  23.546  13.056  10.704
 8898POPC   GL1 1287  23.742  13.095  10.718
 8898POPC   GL2 1288  23.743  13.123  10.622
 8898POPC   C1A 1289  23.937  13.134  10.733
 8898POPC   D2A 1290  24.133  13.172  10.747
 8898POPC   C3A 1291  24.328  13.211  10.762
 8898POPC   C4A 1292  24.524  13.250  10.776
 8898POPC   C1B 1293  23.978  12.946  10.679
 8898POPC   C2B 1294  24.174  12.984  10.693
 8898POPC   C3B 1295  24.370  13.023  10.708
 8898POPC   C4B 1296  24.565  13.062  10.722
 8899POPC   NC3 1297   6.842   9.382  -3.566
 8899POPC   PO4 1298   6.801   9.373  -3.761
 8899POPC   GL1 1299   6.760   9.364  -3.956
 8899POPC   GL2 1300   6.669   9.326  -3.935
 8899POPC   C1A 1301   6.718   9.355  -4.152
 8899POPC   D2A 1302   6.677   9.346  -4.347
 8899POPC   C3A 1303   6.635   9.337  -4.543
 8899POPC   C4A 1304   6.594   9.328  -4.738
 8899POPC   C1B 1305   6.794   9.170  -4.159
 8899POPC   C2B 1306   6.753   9.161  -4.355
 8899POPC   C3B 1307   6.711   9.152  -4.550
 8899POPC   C4B 1308   6.670   9.143  -4.746
 8900POPC   NC3 1309   5.112  22.729  12.561
 8900POPC   PO4 1310   5.041  22.912  12.601
 8900POPC   GL1 1311   4.970  23.095  12.641
 8900POPC   GL2 1312   4.958  23.069  12.737
 8900POPC   C1A 1313   4.899  23.278  12.681
 8900POPC   D2A 1314   4.829  23.460  12.720
 8900POPC   C3A 1315   4.758  23.643  12.760
 8900POPC   C4A 1316   4.687  23.826  12.800
 8900POPC   C1B 1317   4.714  23.214  12.641
 8900POPC   C2B 1318   4.643  23.397  12.680
 8900POPC   C3B 1319   4.572  23.580  12.720
 8900POPC   C4B 1320   4.502  23.763  12.760
 8901POPC   NC3 1321   8.865  -0.260  19.207
 8901POPC   PO4 1322   8.857  -0.407  19.342
 8901POPC   GL1 1323   8.849  -0.554  19.477
 8901POPC   GL2 1324   8.874  -0.620  19.406
 8901POPC   C1A 1325   8.840  -0.701  19.612
 8901POPC   D2A 1326   8.832  -0.849  19.747
 8901POPC   C3A 1327   8.823  -0.996  19.882
 8901POPC   C4A 1328   8.815  -1.143  20.017
 8901POPC   C1B 1329   8.647  -0.730  19.569
 8901POPC   C2B 1330   8.639  -0.878  19.704
 8901POPC   C3B 1331   8.630  -1.025  19.839
 8901POPC   C4B 1332   8.622  -1.172  19.974
 8902POPC   NC3 1333  11.500   7.488  23.469
 8902POPC   PO4 1334  11.531   7.451  23.663
 8902POPC   GL1 1335  11.562   7.414  23.857
 8902POPC   GL2 1336  11.604   7.327  23.834
 8902POPC   C1A 1337  11.593   7.378  24.051
 8902POPC   D2A 1338  11.624   7.341  24.246
 8902POPC   C3A 1339  11.655   7.305  24.440
 8902POPC   C4A 1340  11.686   7.268  24.634
 8902POPC   C1B 1341  11.414   7.289  24.063
 8902POPC   C2B 1342  11.445   7.253  24.257
 8902POPC   C3B 1343  11.476   7.216  24.452
 8902POPC   C4B 1344  11.507   7.179  24.646
 8903POPC   NC3 1345  11.766  23.701   9.804
 8903POPC   PO4 1346  11.790  23.899   9.803
 8903POPC   GL1 1347  11.814  24.097   9.802
 8903POPC   GL2 1348  11.840  24.095   9.899
 8903POPC   C1A 1349  11.839  24.296   9.801
 8903POPC   D2A 1350  11.863  24.494   9.800
 8903POPC   C3A 1351  11.888  24.693   9.799
 8903POPC   C4A 1352  11.912  24.891   9.798
 8903POPC   C1B 1353  11.647  24.320   9.853
 8903POPC   C2B 1354  11.671  24.518   9.852
 8903POPC   C3B 1355  11.696  24.716   9.851
 8903POPC   C4B 1356  11.720  24.915   9.850
 8904POPC   NC3 1357   4.346   3.757  21.054
 8904POPC   PO4 1358   4.258   3.670  21.211
 8904POPC   GL1 1359   4.170   3.583  21.368
 8904POPC   GL2 1360   4.177   3.669  21.419
 8904POPC   C1A 1361   4.082   3.497  21.526
 8904POPC   D2A 1362   3.995   3.410  21.683
 8904POPC   C3A 1363   3.907   3.324  21.841
 8904POPC   C4A 1364   3.819   3.237  21.998
 8904POPC   C1B 1365   4.262   3.441  21.595
 8904POPC   C2B 1366   4.174   3.354  21.753
 8904POPC   C3B 1367   4.086   3.268  21.910
 8904POPC   C4B 1368   3.998   3.181  22.067
 8905POPC   NC3 1369  17.998  13.101  -0.844
 8905POPC   PO4 1370  18.114  13.147  -1.000
 8905POPC   GL1 1371  18.230  13.193  -1.156
 8905POPC   GL2 1372  18.164  13.152  -1.218
 8905POPC   C1A 1373  18.347  13.240  -1.312
 8905POPC   D2A 1374  18.463  13.286  -1.468
 8905POPC   C3A 1375  18.580  13.333  -1.624
 8905POPC   C4A 1376  18.696  13.379  -1.780
 8905POPC   C1B 1377  18.440  13.064  -1.295
 8905POPC   C2B 1378  18.556  13.110  -1.451
 8905POPC   C3B 1379  18.673  13.156  -1.607
 8905POPC   C4B 1380  18.789  13.203  -1.763
 8906POPC   NC3 1381  12.358   0.659   0.015
 8906POPC   PO4 1382  12.396   0.525  -0.128
 8906POPC   GL1 1383  12.434   0.391  -0.271
 8906POPC   GL2 1384  12.503   0.452  -0.310
 8906POPC   C1A 1385  12.472   0.256  -0.414
 8906POPC   D2A 1386  12.511   0.122  -0.558
 8906POPC   C3A 1387  12.549  -0.013  -0.701
 8906POPC   C4A 1388  12.587  -0.147  -0.844
 8906POPC   C1B 1389  12.333   0.340  -0.530
 8906POPC   C2B 1390  12.371   0.206  -0.674
 8906POPC   C3B 1391  12.409   0.071  -0.817
 8906POPC   C4B 1392  12.447  -0.063  -0.960
 8907POPC   NC3 1393  20.650  18.316   7.742
 8907POPC   PO4 1394  20.810  18.431   7.705
 8907POPC   GL1 1395  20.970  18.546   7.668
 8907POPC   GL2 1396  21.016  18.468   7.626
 8907POPC   C1A 1397  21.129  18.661   7.631
 8907POPC   D2A 1398  21.289  18.775   7.594
 8907POPC   C3A 1399  21.448  18.890   7.557
 8907POPC   C4A 1400  21.608  19.005   7.520
 8907POPC   C1B 1401  21.206  18.612   7.809
 8907POPC   C2B 1402  21.365  18.726   7.772
 8907POPC   C3B 1403  21.525  18.841   7.735
 8907POPC   C4B 1404  21.685  18.956   7.698
 8908POPC   NC3 1405   6.625   2.254  -1.133
 8908POPC   PO4 1406   6.573   2.136  -1.286
 8908POPC   GL1 1407   6.521   2.018  -1.439
 8908POPC   GL2 1408   6.492   1.947  -1.375
 8908POPC   C1A 1409   6.468   1.901  -1.592
 8908POPC   D2A 1410   6.416   1.783  -1.745
 8908POPC   C3A 1411   6.363   1.666  -1.898
 8908POPC   C4A 1412   6.311   1.548  -2.051
 8908POPC   C1B 1413   6.653   1.824  -1.596
 8908POPC   C2B 1414   6.600   1.706  -1.749
 8908POPC   C3B 1415   6.548   1.589  -1.902
 8908POPC   C4B 1416   6.496   1.471  -2.055
 8909POPC   NC3 1417   8.411  11.825  23.508
 8909POPC   PO4 1418   8.378  11.850  23.704
 8909POPC   GL1 1419   8.345  11.875  23.900
 8909POPC   GL2 1420   8.414  11.805  23.920
 8909POPC   C1A 1421   8.312  11.900  24.095
 8909POPC   D2A 1422   8.278  11.924  24.291
 8909POPC   C3A 1423   8.245  11.949  24.486
 8909POPC   C4A 1424   8.212  11.974  24.682
 8909POPC   C1B 1425   8.171  11.757  24.089
 8909POPC   C2B 1426   8.138  11.782  24.285
 8909POPC   C3B 1427   8.105  11.807  24.480
 8909POPC   C4B 1428   8.071  11.832  24.676
 8910POPC   NC3 1429  22.282   7.213  15.358
 8910POPC   PO4 1430  22.459   7.172  15.442
 8910POPC   GL1 1431  22.636   7.131  15.526
 8910POPC   GL2 1432  22.674   7.214  15.486
 8910POPC   C1A 1433  22.813   7.089  15.610
 8910POPC   D2A 1434  22.989   7.048  15.693
 8910POPC   C3A 1435  23.166   7.006  15.777
 8910POPC   C4A 1436  23.343   6.965  15.861
 8910POPC   C1B 1437  22.866   6.987  15.446
 8910POPC   C2B 1438  23.043   6.946  15.530
 8910POPC   C3B 1439  23.220   6.904  15.614
 8910POPC   C4B 1440  23.396   6.863  15.698
 8911POPC   NC3 1441  14.137  18.754  19.821
 8911POPC   PO4 1442  14.197  18.881  19.963
 8911POPC   GL1 1443  14.257  19.008  20.105
 8911POPC   GL2 1444  14.345  19.018  20.059
 8911POPC   C1A 1445  14.317  19.135  20.247
 8911POPC   D2A 1446  14.376  19.263  20.390
 8911POPC   C3A 1447  14.436  19.390  20.532
 8911POPC   C4A 1448  14.496  19.517  20.674
 8911POPC   C1B 1449  14.389  18.982  20.354
 8911POPC   C2B 1450  14.449  19.110  20.496
 8911POPC   C3B 1451  14.509  19.237  20.638
 8911POPC   C4B 1452  14.569  19.364  20.780
 8912POPC   NC3 1453  11.948  22.719   5.061
 8912POPC   PO4 1454  11.985  22.903   4.992
 8912POPC   GL1 1455  12.022  23.087   4.923
 8912POPC   GL2 1456  12.118  23.077   4.949
 8912POPC   C1A 1457  12.059  23.271   4.853
 8912POPC   D2A 1458  12.096  23.455   4.784
 8912POPC   C3A 1459  12.133  23.639   4.714
 8912POPC   C4A 1460  12.170  23.823   4.645
 8912POPC   C1B 1461  12.018  23.347   5.033
 8912POPC   C2B 1462  12.055  23.531   4.964
 8912POPC   C3B 1463  12.092  23.715   4.895
 8912POPC   C4B 1464  12.129  23.899   4.825
 8913POPC   NC3 1465   4.768   4.915  21.820
 8913POPC   PO4 1466   4.693   4.844  21.991
 8913POPC   GL1 1467   4.618   4.773  22.162
 8913POPC   GL2 1468   4.633   4.680  22.130
 8913POPC   C1A 1469   4.543   4.702  22.334
 8913POPC   D2A 1470   4.468   4.632  22.505
 8913POPC   C3A 1471   4.393   4.561  22.677
 8913POPC   C4A 1472   4.318   4.490  22.848
 8913POPC   C1B 1473   4.360   4.701  22.253
 8913POPC   C2B 1474   4.285   4.630  22.424
 8913POPC   C3B 1475   4.210   4.559  22.596
 8913POPC   C4B 1476   4.135   4.489  22.767
 8914POPC   NC3 1477  21.015  18.030  11.523
 8914POPC   PO4 1478  21.174  18.148  11.548
 8914POPC   GL1 1479  21.333  18.266  11.573
 8914POPC   GL2 1480  21.312  18.314  11.488
 8914POPC   C1A 1481  21.493  18.384  11.598
 8914POPC   D2A 1482  21.652  18.502  11.624
 8914POPC   C3A 1483  21.812  18.620  11.649
 8914POPC   C4A 1484  21.971  18.738  11.674
 8914POPC   C1B 1485  21.605  18.254  11.497
 8914POPC   C2B 1486  21.765  18.372  11.522
 8914POPC   C3B 1487  21.924  18.490  11.547
 8914POPC   C4B 1488  22.084  18.608  11.572
 8915POPC   NC3 1489   1.958  17.470   1.276
 8915POPC   PO4 1490   1.843  17.578   1.153
 8915POPC   GL1 1491   1.728  17.686   1.030
 8915POPC   GL2 1492   1.810  17.723   0.986
 8915POPC   C1A 1493   1.613  17.794   0.907
 8915POPC   D2A 1494   1.499  17.903   0.784
 8915POPC   C3A 1495   1.384  18.011   0.661
 8915POPC   C4A 1496   1.269  18.119   0.538
 8915POPC   C1B 1497   1.615  17.945   1.038
 8915POPC   C2B 1498   1.500  18.054   0.915
 8915POPC   C3B 1499   1.386  18.162   0.792
 8915POPC   C4B 1500   1.271  18.270   0.669
 8916POPC   NC3 1501  21.022   3.203   5.220
 8916POPC   PO4 1502  21.182   3.103   5.154
 8916POPC   GL1 1503  21.342   3.003   5.088
 8916POPC   GL2 1504  21.397   3.087   5.095
 8916POPC   C1A 1505  21.502   2.903   5.022
 8916POPC   D2A 1506  21.663   2.804   4.957
 8916POPC   C3A 1507  21.823   2.704   4.891
 8916POPC   C4A 1508  21.983   2.604   4.825
 8916POPC   C1B 1509  21.455   2.951   4.834
 8916POPC   C2B 1510  21.615   2.851   4.768
 8916POPC   C3B 1511  21.775   2.751   4.702
 8916POPC   C4B 1512  21.935   2.651   4.637
 8917POPC   NC3 1513  11.064   1.580  -0.991
 8917POPC   PO4 1514  11.084   1.461  -1.150
 8917POPC   GL1 1515  11.104   1.342  -1.309
 8917POPC   GL2 1516  11.203   1.358  -1.309
 8917POPC   C1A 1517  11.125   1.223  -1.469
 8917POPC   D2A 1518  11.145   1.104  -1.628
 8917POPC   C3A 1519  11.166   0.985  -1.788
 8917POPC   C4A 1520  11.186   0.866  -1.947
 8917POPC   C1B 1521  11.100   1.380  -1.590
 8917POPC   C2B 1522  11.120   1.261  -1.749
 8917POPC   C3B 1523  11.140   1.142  -1.908
 8917POPC   C4B 1524  11.161   1.023  -2.068
 8918POPC   NC3 1525  13.103  22.794   6.029
 8918POPC   PO4 1526  13.150  22.979   5.968
 8918POPC   GL1 1527  13.197  23.164   5.907
 8918POPC   GL2 1528  13.293  23.146   5.927
 8918POPC   C1A 1529  13.243  23.348   5.846
 8918POPC   D2A 1530  13.290  23.533   5.785
 8918POPC   C3A 1531  13.336  23.717   5.724
 8918POPC   C4A 1532  13.383  23.902   5.663
 8918POPC   C1B 1533  13.217  23.416   6.032
 8918POPC   C2B 1534  13.264  23.601   5.971
 8918POPC   C3B 1535  13.310  23.785   5.910
 8918POPC   C4B 1536  13.357  23.970   5.849
 8919POPC   NC3 1537  23.080   6.600  12.322
 8919POPC   PO4 1538  23.271   6.550  12.355
 8919POPC   GL1 1539  23.462   6.500  12.388
 8919POPC   GL2 1540  23.464   6.450  12.302
 8919POPC   C1A 1541  23.653   6.451  12.421
 8919POPC   D2A 1542  23.844   6.401  12.454
 8919POPC   C3A 1543  24.035   6.352  12.487
 8919POPC   C4A 1544  24.226   6.302  12.520
 8919POPC   C1B 1545  23.593   6.285  12.517
 8919POPC   C2B 1546  23.784   6.236  12.550
 8919POPC   C3B 1547  23.975   6.186  12.583
 8919POPC   C4B 1548  24.166   6.137  12.616
 8920POPC   NC3 1549  -2.657  12.105  15.575
 8920POPC   PO4 1550  -2.836  12.137  15.658
 8920POPC   GL1 1551  -3.015  12.169  15.741
 8920POPC   GL2 1552  -2.977  12.245  15.794
 8920POPC   C1A 1553  -3.194  12.201  15.825
 8920POPC   D2A 1554  -3.373  12.232  15.908
 8920POPC   C3A 1555  -3.552  12.264  15.992
 8920POPC   C4A 1556  -3.731  12.296  16.075
 8920POPC   C1B 1557  -3.147  12.075  15.973
 8920POPC   C2B 1558  -3.326  12.107  16.057
 8920POPC   C3B 1559  -3.505  12.138  16.140
 8920POPC   C4B 1560  -3.684  12.170  16.223
 8921POPC   NC3 1561  11.995   2.740  -1.653
 8921POPC   PO4 1562  12.024   2.632  -1.819
 8921POPC   GL1 1563  12.053   2.524  -1.985
 8921POPC   GL2 1564  12.022   2.601  -2.040
 8921POPC   C1A 1565  12.081   2.415  -2.150
 8921POPC   D2A 1566  12.110   2.307  -2.316
 8921POPC   C3A 1567  12.138   2.198  -2.481
 8921POPC   C4A 1568  12.167   2.090  -2.647
 8921POPC   C1B 1569  11.893   2.349  -2.139
 8921POPC   C2B 1570  11.921   2.241  -2.305
 8921POPC   C3B 1571  11.950   2.132  -2.471
 8921POPC   C4B 1572  11.979   2.024  -2.636
 8922POPC   NC3 1573  19.089  20.038   7.306
 8922POPC   PO4 1574  19.224  20.180   7.267
 8922POPC   GL1 1575  19.359  20.322   7.228
 8922POPC   GL2 1576  19.303  20.355   7.153
 8922POPC   C1A 1577  19.495  20.464   7.189
 8922POPC   D2A 1578  19.630  20.606   7.150
 8922POPC   C3A 1579  19.766  20.748   7.111
 8922POPC   C4A 1580  19.901  20.890   7.072
 8922POPC   C1B 1581  19.589  20.340   7.063
 8922POPC   C2B 1582  19.724  20.482   7.024
 8922POPC   C3B 1583  19.859  20.624   6.985
 8922POPC   C4B 1584  19.995  20.766   6.946
 8923POPC   NC3 1585  10.842  -3.150   5.437
 8923POPC   PO4 1586  10.851  -3.338   5.369
 8923POPC   GL1 1587  10.860  -3.526   5.301
 8923POPC   GL2 1588  10.882  -3.492   5.210
 8923POPC   C1A 1589  10.869  -3.714   5.233
 8923POPC   D2A 1590  10.879  -3.902   5.166
 8923POPC   C3A 1591  10.888  -4.090   5.098
 8923POPC   C4A 1592  10.897  -4.278   5.030
 8923POPC   C1B 1593  10.674  -3.708   5.190
 8923POPC   C2B 1594  10.683  -3.896   5.122
 8923POPC   C3B 1595  10.693  -4.084   5.054
 8923POPC   C4B 1596  10.702  -4.272   4.987
 8924POPC   NC3 1597   7.642   7.148  -3.417
 8924POPC   PO4 1598   7.615   7.107  -3.611
 8924POPC   GL1 1599   7.588   7.066  -3.805
 8924POPC   GL2 1600   7.519   6.997  -3.781
 8924POPC   C1A 1601   7.560   7.025  -3.999
 8924POPC   D2A 1602   7.533   6.985  -4.192
 8924POPC   C3A 1603   7.505   6.944  -4.386
 8924POPC   C4A 1604   7.478   6.903  -4.580
 8924POPC   C1B 1605   7.703   6.886  -3.990
 8924POPC   C2B 1606   7.676   6.845  -4.183
 8924POPC   C3B 1607   7.649   6.805  -4.377
 8924POPC   C4B 1608   7.621   6.764  -4.571
 8925POPC   NC3 1609  22.707  10.923   4.843
 8925POPC   PO4 1610  22.893  10.934   4.770
 8925POPC   GL1 1611  23.079  10.945   4.697
 8925POPC   GL2 1612  23.070  10.852   4.660
 8925POPC   C1A 1613  23.265  10.956   4.623
 8925POPC   D2A 1614  23.450  10.967   4.550
 8925POPC   C3A 1615  23.636  10.978   4.476
 8925POPC   C4A 1616  23.822  10.989   4.403
 8925POPC   C1B 1617  23.337  10.882   4.795
 8925POPC   C2B 1618  23.523  10.893   4.721
 8925POPC   C3B 1619  23.708  10.904   4.648
 8925POPC   C4B 1620  23.894  10.915   4.574
 8926POPC   NC3 1621  18.296  18.118   2.676
 8926POPC   PO4 1622  18.417  18.241   2.574
 8926POPC   GL1 1623  18.538  18.364   2.472
 8926POPC   GL2 1624  18.519  18.313   2.388
 8926POPC   C1A 1625  18.658  18.487   2.371
 8926POPC   D2A 1626  18.779  18.610   2.269
 8926POPC   C3A 1627  18.899  18.733   2.168
 8926POPC   C4A 1628  19.020  18.856   2.066
 8926POPC   C1B 1629  18.814  18.367   2.410
 8926POPC   C2B 1630  18.934  18.490   2.308
 8926POPC   C3B 1631  19.055  18.613   2.207
 8926POPC   C4B 1632  19.175  18.736   2.105
 8927POPC   NC3 1633  11.021  22.088   3.288
 8927POPC   PO4 1634  11.045  22.263   3.194
 8927POPC   GL1 1635  11.069  22.438   3.100
 8927POPC   GL2 1636  11.145  22.400   3.048
 8927POPC   C1A 1637  11.093  22.613   3.007
 8927POPC   D2A 1638  11.117  22.788   2.913
 8927POPC   C3A 1639  11.141  22.963   2.820
 8927POPC   C4A 1640  11.165  23.138   2.726
 8927POPC   C1B 1641  11.220  22.672   3.149
 8927POPC   C2B 1642  11.244  22.847   3.056
 8927POPC   C3B 1643  11.268  23.022   2.962
 8927POPC   C4B 1644  11.292  23.197   2.869
 8928POPC   NC3 1645  19.997  16.869  16.435
 8928POPC   PO4 1646  20.139  16.976  16.527
 8928POPC   GL1 1647  20.281  17.083  16.619
 8928POPC   GL2 1648  20.351  17.024  16.579
 8928POPC   C1A 1649  20.423  17.190  16.711
 8928POPC   D2A 1650  20.564  17.296  16.803
 8928POPC   C3A 1651  20.706  17.403  16.895
 8928POPC   C4A 1652  20.848  17.510  16.987
 8928POPC   C1B 1653  20.411  17.068  16.870
 8928POPC   C2B 1654  20.553  17.175  16.962
 8928POPC   C3B 1655  20.695  17.282  17.054
 8928POPC   C4B 1656  20.836  17.389  17.146
 8929POPC   NC3 1657  12.348  19.345  -0.007
 8929POPC   PO4 1658  12.372  19.477  -0.155
 8929POPC   GL1 1659  12.396  19.609  -0.303
 8929POPC   GL2 1660  12.474  19.649  -0.255
 8929POPC   C1A 1661  12.420  19.741  -0.451
 8929POPC   D2A 1662  12.443  19.874  -0.600
 8929POPC   C3A 1663  12.467  20.006  -0.748
 8929POPC   C4A 1664  12.491  20.138  -0.896
 8929POPC   C1B 1665  12.297  19.869  -0.358
 8929POPC   C2B 1666  12.321  20.001  -0.506
 8929POPC   C3B 1667  12.344  20.133  -0.654
 8929POPC   C4B 1668  12.368  20.265  -0.802
 8930POPC   NC3 1669  14.309  21.763  15.662
 8930POPC   PO4 1670  14.376  21.932  15.745
 8930POPC   GL1 1671  14.443  22.101  15.828
 8930POPC   GL2 1672  14.468  22.051  15.911
 8930POPC   C1A 1673  14.509  22.270  15.911
 8930POPC   D2A 1674  14.576  22.440  15.995
 8930POPC   C3A 1675  14.642  22.609  16.078
 8930POPC   C4A 1676  14.709  22.778  16.161
 8930POPC   C1B 1677  14.328  22.304  15.988
 8930POPC   C2B 1678  14.394  22.474  16.071
 8930POPC   C3B 1679  14.461  22.643  16.154
 8930POPC   C4B 1680  14.527  22.812  16.237
 8931POPC   NC3 1681   1.799  13.459  20.552
 8931POPC   PO4 1682   1.683  13.511  20.706
 8931POPC   GL1 1683   1.567  13.563  20.860
 8931POPC   GL2 1684   1.647  13.567  20.920
 8931POPC   C1A 1685   1.450  13.616  21.014
 8931POPC   D2A 1686   1.334  13.668  21.168
 8931POPC   C3A 1687   1.217  13.721  21.322
 8931POPC   C4A 1688   1.101  13.773  21.476
 8931POPC   C1B 1689   1.424  13.423  21.060
 8931POPC   C2B 1690   1.308  13.475  21.214
 8931POPC   C3B 1691   1.191  13.528  21.368
 8931POPC   C4B 1692   1.075  13.580  21.522
 8932POPC   NC3 1693   0.790   4.761  18.885
 8932POPC   PO4 1694   0.663   4.688  19.021
 8932POPC   GL1 1695   0.536   4.615  19.157
 8932POPC   GL2 1696   0.591   4.531  19.163
 8932POPC   C1A 1697   0.410   4.542  19.294
 8932POPC   D2A 1698   0.283   4.468  19.430
 8932POPC   C3A 1699   0.157   4.395  19.567
 8932POPC   C4A 1700   0.030   4.322  19.703
 8932POPC   C1B 1701   0.301   4.459  19.148
 8932POPC   C2B 1702   0.174   4.386  19.284
 8932POPC   C3B 1703   0.047   4.313  19.421
 8932POPC   C4B 1704  -0.079   4.239  19.557
 8933POPC   NC3 1705   3.241   1.237   1.629
 8933POPC   PO4 1706   3.147   1.112   1.504
 8933POPC   GL1 1707   3.053   0.987   1.379
 8933POPC   GL2 1708   3.139   0.941   1.361
 8933POPC   C1A 1709   2.959   0.863   1.254
 8933POPC   D2A 1710   2.864   0.738   1.130
 8933POPC   C3A 1711   2.770   0.614   1.005
 8933POPC   C4A 1712   2.676   0.489   0.880
 8933POPC   C1B 1713   2.994   0.988   1.103
 8933POPC   C2B 1714   2.900   0.863   0.978
 8933POPC   C3B 1715   2.806   0.739   0.853
 8933POPC   C4B 1716   2.711   0.614   0.728
 8934POPC   NC3 1717  20.499  18.278  12.903
 8934POPC   PO4 1718  20.648  18.403  12.949
 8934POPC   GL1 1719  20.797  18.528  12.995
 8934POPC   GL2 1720  20.770  18.588  12.920
 8934POPC   C1A 1721  20.947  18.653  13.040
 8934POPC   D2A 1722  21.096  18.777  13.086
 8934POPC   C3A 1723  21.246  18.902  13.131
 8934POPC   C4A 1724  21.395  19.027  13.177
 8934POPC   C1B 1725  21.068  18.554  12.915
 8934POPC   C2B 1726  21.217  18.678  12.961
 8934POPC   C3B 1727  21.366  18.803  13.006
 8934POPC   C4B 1728  21.516  18.928  13.052
 8935POPC   NC3 1729   8.793   5.144  -2.955
 8935POPC   PO4 1730   8.783   5.077  -3.143
 8935POPC   GL1 1731   8.773   5.010  -3.331
 8935POPC   GL2 1732   8.866   5.042  -3.348
 8935POPC   C1A 1733   8.763   4.943  -3.519
 8935POPC   D2A 1734   8.753   4.875  -3.708
 8935POPC   C3A 1735   8.743   4.808  -3.896
 8935POPC   C4A 1736   8.733   4.741  -4.084
 8935POPC   C1B 1737   8.691   5.120  -3.579
 8935POPC   C2B 1738   8.681   5.052  -3.767
 8935POPC   C3B 1739   8.671   4.985  -3.955
 8935POPC   C4B 1740   8.661   4.918  -4.143
 8936POPC   NC3 1741  12.096  22.501  15.452
 8936POPC   PO4 1742  12.130  22.681  15.533
 8936POPC   GL1 1743  12.164  22.861  15.614
 8936POPC   GL2 1744  12.260  22.854  15.587
 8936POPC   C1A 1745  12.198  23.041  15.694
 8936POPC   D2A 1746  12.233  23.220  15.775
 8936POPC   C3A 1747  12.267  23.400  15.855
 8936POPC   C4A 1748  12.301  23.580  15.936
 8936POPC   C1B 1749  12.241  22.954  15.869
 8936POPC   C2B 1750  12.275  23.134  15.950
 8936POPC   C3B 1751  12.309  23.314  16.031
 8936POPC   C4B 1752  12.344  23.493  16.111
 8937POPC   NC3 1753  15.980   5.635  -1.678
 8937POPC   PO4 1754  16.069   5.578  -1.848
 8937POPC   GL1 1755  16.158   5.521  -2.018
 8937POPC   GL2 1756  16.242   5.567  -1.990
 8937POPC   C1A 1757  16.246   5.463  -2.188
 8937POPC   D2A 1758  16.335   5.406  -2.357
 8937POPC   C3A 1759  16.423   5.348  -2.527
 8937POPC   C4A 1760  16.512   5.291  -2.697
 8937POPC   C1B 1761  16.183   5.631  -2.277
 8937POPC   C2B 1762  16.272   5.573  -2.447
 8937POPC   C3B 1763  16.360   5.516  -2.617
 8937POPC   C4B 1764  16.449   5.458  -2.787
 8938POPC   NC3 1765   7.637  22.831  14.656
 8938POPC   PO4 1766   7.601  23.015  14.725
 8938POPC   GL1 1767   7.565  23.199  14.794
 8938POPC   GL2 1768   7.576  23.167  14.887
 8938POPC   C1A 1769   7.529  23.384  14.862
 8938POPC   D2A 1770   7.493  23.568  14.931
 8938POPC   C3A 1771   7.457  23.753  14.999
 8938POPC   C4A 1772   7.421  23.937  15.068
 8938POPC   C1B 1773   7.334  23.342  14.871
 8938POPC   C2B 1774   7.298  23.527  14.939
 8938POPC   C3B 1775   7.262  23.711  15.008
 8938POPC   C4B 1776   7.226  23.896  15.077
 8939POPC   NC3 1777  12.951  -2.815   5.532
 8939POPC   PO4 1778  13.006  -2.997   5.471
 8939POPC   GL1 1779  13.061  -3.179   5.410
 8939POPC   GL2 1780  13.087  -3.142   5.321
 8939POPC   C1A 1781  13.115  -3.362   5.349
 8939POPC   D2A 1782  13.170  -3.544   5.288
 8939POPC   C3A 1783  13.224  -3.727   5.227
 8939POPC   C4A 1784  13.279  -3.909   5.166
 8939POPC   C1B 1785  12.930  -3.394   5.280
 8939POPC   C2B 1786  12.985  -3.576   5.219
 8939POPC   C3B 1787  13.040  -3.759   5.158
 8939POPC   C4B 1788  13.094  -3.941   5.097
 8940POPC   NC3 1789  -0.624  18.843  11.817
 8940POPC   PO4 1790  -0.778  18.967  11.848
 8940POPC   GL1 1791  -0.932  19.091  11.879
 8940POPC   GL2 1792  -0.870  19.169  11.877
 8940POPC   C1A 1793  -1.086  19.214  11.909
 8940POPC   D2A 1794  -1.241  19.338  11.940
 8940POPC   C3A 1795  -1.395  19.461  11.970
 8940POPC   C4A 1796  -1.549  19.585  12.001
 8940POPC   C1B 1797  -1.060  19.198  12.107
 8940POPC   C2B 1798  -1.215  19.321  12.137
 8940POPC   C3B 1799  -1.369  19.445  12.168
 8940POPC   C4B 1800  -1.523  19.569  12.199
 8941POPC   NC3 1801   0.994  20.535   9.155
 8941POPC   PO4 1802   0.873  20.693   9.136
 8941POPC   GL1 1803   0.752  20.851   9.117
 8941POPC   GL2 1804   0.794  20.893   9.198
 8941POPC   C1A 1805   0.632  21.010   9.098
 8941POPC   D2A 1806   0.511  21.168   9.079
 8941POPC   C3A 1807   0.391  21.327   9.060
 8941POPC   C4A 1808   0.270  21.485   9.041
 8941POPC   C1B 1809   0.496  20.920   9.214
 8941POPC   C2B 1810   0.375  21.079   9.195
 8941POPC   C3B 1811   0.255  21.237   9.176
 8941POPC   C4B 1812   0.134  21.395   9.157
 8942POPC   NC3 1813   9.511  13.467  -3.474
 8942POPC   PO4 1814   9.510  13.519  -3.667
 8942POPC   GL1 1815   9.509  13.571  -3.860
 8942POPC   GL2 1816   9.578  13.501  -3.879
 8942POPC   C1A 1817   9.507  13.622  -4.053
 8942POPC   D2A 1818   9.506  13.674  -4.247
 8942POPC   C3A 1819   9.504  13.725  -4.440
 8942POPC   C4A 1820   9.503  13.777  -4.633
 8942POPC   C1B 1821   9.651  13.757  -4.019
 8942POPC   C2B 1822   9.650  13.808  -4.212
 8942POPC   C3B 1823   9.648  13.860  -4.405
 8942POPC   C4B 1824   9.647  13.911  -4.598
 8943POPC   NC3 1825  18.964  14.064  19.381
 8943POPC   PO4 1826  19.092  14.121  19.524
 8943POPC   GL1 1827  19.220  14.178  19.667
 8943POPC   GL2 1828  19.270  14.233  19.600
 8943POPC   C1A 1829  19.348  14.236  19.810
 8943POPC   D2A 1830  19.475  14.293  19.952
 8943POPC   C3A 1831  19.603  14.351  20.095
 8943POPC   C4A 1832  19.731  14.408  20.238
 8943POPC   C1B 1833  19.464  14.078  19.769
 8943POPC   C2B 1834  19.592  14.136  19.912
 8943POPC   C3B 1835  19.720  14.193  20.054
 8943POPC   C4B 1836  19.847  14.250  20.197
 8944POPC   NC3 1837  22.885   6.667  13.322
 8944POPC   PO4 1838  23.073   6.617  13.370
 8944POPC   GL1 1839  23.261   6.567  13.418
 8944POPC   GL2 1840  23.248   6.477  13.375
 8944POPC   C1A 1841  23.448   6.516  13.466
 8944POPC   D2A 1842  23.636   6.466  13.513
 8944POPC   C3A 1843  23.823   6.415  13.561
 8944POPC   C4A 1844  24.011   6.365  13.609
 8944POPC   C1B 1845  23.384   6.441  13.640
 8944POPC   C2B 1846  23.571   6.391  13.687
 8944POPC   C3B 1847  23.759   6.341  13.735
 8944POPC   C4B 1848  23.947   6.290  13.783
 8945POPC   NC3 1849   3.624   9.955  -2.428
 8945POPC   PO4 1850   3.528   9.959  -2.604
 8945POPC   GL1 1851   3.432   9.963  -2.780
 8945POPC   GL2 1852   3.387   9.876  -2.757
 8945POPC   C1A 1853   3.336   9.967  -2.955
 8945POPC   D2A 1854   3.241   9.970  -3.131
 8945POPC   C3A 1855   3.145   9.974  -3.306
 8945POPC   C4A 1856   3.049   9.978  -3.482
 8945POPC   C1B 1857   3.487   9.866  -3.040
 8945POPC   C2B 1858   3.392   9.870  -3.215
 8945POPC   C3B 1859   3.296   9.874  -3.391
 8945POPC   C4B 1860   3.200   9.878  -3.567
 8946POPC   NC3 1861  -3.777   8.326  11.591
 8946POPC   PO4 1862  -3.973   8.298  11.619
 8946POPC   GL1 1863  -4.169   8.270  11.647
 8946POPC   GL2 1864  -4.151   8.237  11.740
 8946POPC   C1A 1865  -4.365   8.242  11.675
 8946POPC   D2A 1866  -4.561   8.215  11.704
 8946POPC   C3A 1867  -4.757   8.187  11.732
 8946POPC   C4A 1868  -4.953   8.159  11.760
 8946POPC   C1B 1869  -4.349   8.056  11.605
 8946POPC   C2B 1870  -4.545   8.028  11.633
 8946POPC   C3B 1871  -4.741   8.000  11.661
 8946POPC   C4B 1872  -4.937   7.973  11.690
 8947POPC   NC3 1873   4.585  -2.632  12.111
 8947POPC   PO4 1874   4.508  -2.814  12.140
 8947POPC   GL1 1875   4.431  -2.996  12.169
 8947POPC   GL2 1876   4.429  -2.979  12.268
 8947POPC   C1A 1877   4.354  -3.178  12.199
 8947POPC   D2A 1878   4.278  -3.361  12.228
 8947POPC   C3A 1879   4.201  -3.543  12.258
 8947POPC   C4A 1880   4.124  -3.725  12.287
 8947POPC   C1B 1881   4.539  -3.253  12.216
 8947POPC   C2B 1882   4.462  -3.436  12.245
 8947POPC   C3B 1883   4.385  -3.618  12.274
 8947POPC   C4B 1884   4.309  -3.800  12.304
 8948POPC   NC3 1885  22.136   3.871   8.178
 8948POPC   PO4 1886  22.312   3.780   8.152
 8948POPC   GL1 1887  22.488   3.689   8.126
 8948POPC   GL2 1888  22.464   3.669   8.031
 8948POPC   C1A 1889  22.665   3.599   8.101
 8948POPC   D2A 1890  22.841   3.508   8.075
 8948POPC   C3A 1891  23.018   3.418   8.050
 8948POPC   C4A 1892  23.194   3.327   8.024
 8948POPC   C1B 1893  22.584   3.425   8.158
 8948POPC   C2B 1894  22.760   3.334   8.132
 8948POPC   C3B 1895  22.937   3.244   8.107
 8948POPC   C4B 1896  23.113   3.153   8.081
 8949POPC   NC3 1897  23.086   5.799   9.833
 8949POPC   PO4 1898  23.277   5.740   9.831
 8949POPC   GL1 1899  23.468   5.681   9.829
 8949POPC   GL2 1900  23.446   5.610   9.763
 8949POPC   C1A 1901  23.659   5.623   9.827
 8949POPC   D2A 1902  23.851   5.564   9.826
 8949POPC   C3A 1903  24.042   5.506   9.824
 8949POPC   C4A 1904  24.233   5.447   9.822
 8949POPC   C1B 1905  23.622   5.496   9.978
 8949POPC   C2B 1906  23.813   5.438   9.976
 8949POPC   C3B 1907  24.005   5.379   9.974
 8949POPC   C4B 1908  24.196   5.321   9.972
 8950POPC   NC3 1909  23.600  10.261   8.784
 8950POPC   PO4 1910  23.800  10.261   8.772
 8950POPC   GL1 1911  24.000  10.261   8.760
 8950POPC   GL2 1912  23.997  10.355   8.727
 8950POPC   C1A 1913  24.199  10.261   8.747
 8950POPC   D2A 1914  24.399  10.261   8.735
 8950POPC   C3A 1915  24.598  10.261   8.722
 8950POPC   C4A 1916  24.798  10.261   8.710
 8950POPC   C1B 1917  24.187  10.195   8.559
 8950POPC   C2B 1918  24.387  10.195   8.546
 8950POPC   C3B 1919  24.587  10.195   8.534
 8950POPC   C4B 1920  24.786  10.195   8.521
 8951POPC   NC3 1921   9.305  13.001  -3.586
 8951POPC   PO4 1922   9.300  13.045  -3.781
 8951POPC   GL1 1923   9.295  13.089  -3.976
 8951POPC   GL2 1924   9.374  13.031  -3.992
 8951POPC   C1A 1925   9.290  13.134  -4.171
 8951POPC   D2A 1926   9.284  13.178  -4.366
 8951POPC   C3A 1927   9.279  13.223  -4.561
 8951POPC   C4A 1928   9.274  13.267  -4.756
 8951POPC   C1B 1929   9.410  13.290  -4.139
 8951POPC   C2B 1930   9.405  13.334  -4.334
 8951POPC   C3B 1931   9.400  13.379  -4.529
 8951POPC   C4B 1932   9.395  13.423  -4.724
 8952POPC   NC3 1933  23.166  12.271   6.658
 8952POPC   PO4 1934  23.359  12.299   6.612
 8952POPC   GL1 1935  23.552  12.327   6.566
 8952POPC   GL2 1936  23.527  12.335   6.469
 8952POPC   C1A 1937  23.744  12.354   6.519
 8952POPC   D2A 1938  23.937  12.382   6.473
 8952POPC   C3A 1939  24.129  12.409   6.426
 8952POPC   C4A 1940  24.322  12.437   6.380
 8952POPC   C1B 1941  23.767  12.157   6.496
 8952POPC   C2B 1942  23.960  12.184   6.449
 8952POPC   C3B 1943  24.152  12.212   6.403
 8952POPC   C4B 1944  24.345  12.240   6.357
 8953POPC   NC3 1945   8.131  17.157  -1.839
 8953POPC   PO4 1946   8.110  17.261  -2.008
 8953POPC   GL1 1947   8.089  17.365  -2.177
 8953POPC   GL2 1948   8.180  17.336  -2.207
 8953POPC   C1A 1949   8.068  17.469  -2.347
 8953POPC   D2A 1950   8.046  17.574  -2.516
 8953POPC   C3A 1951   8.025  17.678  -2.686
 8953POPC   C4A 1952   8.004  17.782  -2.855
 8953POPC   C1B 1953   8.148  17.630  -2.258
 8953POPC   C2B 1954   8.127  17.734  -2.428
 8953POPC   C3B 1955   8.106  17.838  -2.597
 8953POPC   C4B 1956   8.084  17.942  -2.766
 8954POPC   NC3 1957  18.616  20.002   5.931
 8954POPC   PO4 1958  18.748  20.138   5.867
 8954POPC   GL1 1959  18.880  20.274   5.803
 8954POPC   GL2 1960  18.955  20.210   5.823
 8954POPC   C1A 1961  19.013  20.410   5.740
 8954POPC   D2A 1962  19.145  20.545   5.676
 8954POPC   C3A 1963  19.278  20.681   5.613
 8954POPC   C4A 1964  19.410  20.817   5.549
 8954POPC   C1B 1965  19.026  20.483   5.925
 8954POPC   C2B 1966  19.158  20.619   5.862
 8954POPC   C3B 1967  19.291  20.755   5.798
 8954POPC   C4B 1968  19.423  20.891   5.734
 8955POPC   NC3 1969  11.328  18.539  -0.823
 8955POPC   PO4 1970  11.345  18.665  -0.978
 8955POPC   GL1 1971  11.362  18.791  -1.133
 8955POPC   GL2 1972  11.393  18.863  -1.071
 8955POPC   C1A 1973  11.379  18.916  -1.288
 8955POPC   D2A 1974  11.397  19.042  -1.442
 8955POPC   C3A 1975  11.414  19.167  -1.597
 8955POPC   C4A 1976  11.431  19.293  -1.752
 8955POPC   C1B 1977  11.190  18.975  -1.261
 8955POPC   C2B 1978  11.207  19.100  -1.416
 8955POPC   C3B 1979  11.224  19.226  -1.571
 8955POPC   C4B 1980  11.242  19.351  -1.726
 8956POPC   NC3 1981   3.572   0.762  18.166
 8956POPC   PO4 1982   3.481   0.629  18.285
 8956POPC   GL1 1983   3.390   0.496  18.404
 8956POPC   GL2 1984   3.457   0.514  18.475
 8956POPC   C1A 1985   3.299   0.364  18.523
 8956POPC   D2A 1986   3.207   0.231  18.641
 8956POPC   C3A 1987   3.116   0.099  18.760
 8956POPC   C4A 1988   3.025  -0.034  18.879
 8956POPC   C1B 1989   3.415   0.218  18.449
 8956POPC   C2B 1990   3.323   0.086  18.568
 8956POPC   C3B 1991   3.232  -0.047  18.687
 8956POPC   C4B 1992   3.141  -0.180  18.806
 8957POPC   NC3 1993   2.408   1.426  17.892
 8957POPC   PO4 1994   2.299   1.307  18.010
 8957POPC   GL1 1995   2.190   1.188  18.128
 8957POPC   GL2 1996   2.265   1.183  18.193
 8957POPC   C1A 1997   2.081   1.068  18.245
 8957POPC   D2A 1998   1.972   0.949  18.363
 8957POPC   C3A 1999   1.863   0.829  18.480
 8957POPC   C4A 2000   1.754   0.710  18.598
 8957POPC   C1B 2001   2.154   0.908  18.151
 8957POPC   C2B 2002   2.045   0.789  18.268
 8957POPC   C3B 2003   1.936   0.669  18.386
 8957POPC   C4B 2004   1.827   0.550  18.503
 8958POPC   NC3 2005  17.569  -1.451  11.041
 8958POPC   PO4 2006  17.679  -1.617  11.058
 8958POPC   GL1 2007  17.789  -1.783  11.075
 8958POPC   GL2 2008  17.800  -1.786  10.976
 8958POPC   C1A 2009  17.899  -1.949  11.092
 8958POPC   D2A 2010  18.009  -2.116  11.110
 8958POPC   C3A 2011  18.119  -2.282  11.127
 8958POPC   C4A 2012  18.229  -2.448  11.144
 8958POPC   C1B 2013  17.733  -2.060  11.078
 8958POPC   C2B 2014  17.843  -2.227  11.095
 8958POPC   C3B 2015  17.953  -2.393  11.112
 8958POPC   C4B 2016  18.063  -2.559  11.129
 8959POPC   NC3 2017  20.941  12.991  17.747
 8959POPC   PO4 2018  21.097  13.035  17.865
 8959POPC   GL1 2019  21.253  13.079  17.983
 8959POPC   GL2 2020  21.268  12.982  17.999
 8959POPC   C1A 2021  21.408  13.123  18.101
 8959POPC   D2A 2022  21.564  13.168  18.218
 8959POPC   C3A 2023  21.719  13.212  18.336
 8959POPC   C4A 2024  21.875  13.256  18.454
 8959POPC   C1B 2025  21.286  13.130  18.259
 8959POPC   C2B 2026  21.442  13.174  18.377
 8959POPC   C3B 2027  21.598  13.219  18.495
 8959POPC   C4B 2028  21.753  13.263  18.612
 8960POPC   NC3 2029  22.935  10.980  14.382
 8960POPC   PO4 2030  23.125  11.002  14.441
 8960POPC   GL1 2031  23.315  11.024  14.500
 8960POPC   GL2 2032  23.327  10.925  14.496
 8960POPC   C1A 2033  23.505  11.046  14.559
 8960POPC   D2A 2034  23.694  11.068  14.619
 8960POPC   C3A 2035  23.884  11.090  14.678
 8960POPC   C4A 2036  24.074  11.112  14.737
 8960POPC   C1B 2037  23.447  11.031  14.750
 8960POPC   C2B 2038  23.637  11.053  14.809
 8960POPC   C3B 2039  23.826  11.075  14.869
 8960POPC   C4B 2040  24.016  11.097  14.928
 8961POPC   NC3 2041  15.537   9.295  -2.632
 8961POPC   PO4 2042  15.620   9.280  -2.813
 8961POPC   GL1 2043  15.703   9.265  -2.994
 8961POPC   GL2 2044  15.616   9.290  -3.036
 8961POPC   C1A 2045  15.787   9.250  -3.175
 8961POPC   D2A 2046  15.870   9.235  -3.357
 8961POPC   C3A 2047  15.954   9.220  -3.538
 8961POPC   C4A 2048  16.037   9.205  -3.719
 8961POPC   C1B 2049  15.736   9.057  -3.183
 8961POPC   C2B 2050  15.819   9.042  -3.364
 8961POPC   C3B 2051  15.903   9.027  -3.545
 8961POPC   C4B 2052  15.986   9.012  -3.727
 8962POPC   NC3 2053  12.203  15.548  -2.496
 8962POPC   PO4 2054  12.236  15.628  -2.676
 8962POPC   GL1 2055  12.269  15.708  -2.856
 8962POPC   GL2 2056  12.366  15.721  -2.833
 8962POPC   C1A 2057  12.303  15.788  -3.036
 8962POPC   D2A 2058  12.336  15.869  -3.217
 8962POPC   C3A 2059  12.370  15.949  -3.397
 8962POPC   C4A 2060  12.403  16.029  -3.577
 8962POPC   C1B 2061  12.261  15.970  -2.963
 8962POPC   C2B 2062  12.295  16.050  -3.144
 8962POPC   C3B 2063  12.328  16.130  -3.324
 8962POPC   C4B 2064  12.361  16.210  -3.504
 8963POPC   NC3 2065  20.671  10.079  18.596
 8963POPC   PO4 2066  20.827  10.078  18.722
 8963POPC   GL1 2067  20.983  10.077  18.848
 8963POPC   GL2 2068  21.033  10.138  18.787
 8963POPC   C1A 2069  21.138  10.075  18.974
 8963POPC   D2A 2070  21.294  10.074  19.099
 8963POPC   C3A 2071  21.449  10.072  19.225
 8963POPC   C4A 2072  21.605  10.071  19.351
 8963POPC   C1B 2073  21.214   9.917  18.878
 8963POPC   C2B 2074  21.370   9.916  19.003
 8963POPC   C3B 2075  21.525   9.914  19.129
 8963POPC   C4B 2076  21.681   9.913  19.255
 8964POPC   NC3 2077  11.354  20.584  18.682
 8964POPC   PO4 2078  11.383  20.736  18.808
 8964POPC   GL1 2079  11.412  20.888  18.934
 8964POPC   GL2 2080  11.506  20.860  18.947
 8964POPC   C1A 2081  11.440  21.041  19.060
 8964POPC   D2A 2082  11.469  21.193  19.187
 8964POPC   C3A 2083  11.497  21.346  19.313
 8964POPC   C4A 2084  11.526  21.498  19.439
 8964POPC   C1B 2085  11.384  20.925  19.213
 8964POPC   C2B 2086  11.413  21.077  19.339
 8964POPC   C3B 2087  11.441  21.229  19.466
 8964POPC   C4B 2088  11.470  21.382  19.592
 8965POPC   NC3 2089  10.993  18.314  20.957
 8965POPC   PO4 2090  11.012  18.435  21.115
 8965POPC   GL1 2091  11.031  18.556  21.273
 8965POPC   GL2 2092  11.076  18.482  21.324
 8965POPC   C1A 2093  11.049  18.677  21.431
 8965POPC   D2A 2094  11.068  18.797  21.590
 8965POPC   C3A 2095  11.086  18.918  21.748
 8965POPC   C4A 2096  11.105  19.039  21.906
 8965POPC   C1B 2097  10.872  18.615  21.500
 8965POPC   C2B 2098  10.890  18.735  21.658
 8965POPC   C3B 2099  10.909  18.856  21.816
 8965POPC   C4B 2100  10.928  18.977  21.974
 8966POPC   NC3 2101   1.985  21.310  11.605
 8966POPC   PO4 2102   1.875  21.476  11.625
 8966POPC   GL1 2103   1.765  21.642  11.645
 8966POPC   GL2 2104   1.846  21.698  11.629
 8966POPC   C1A 2105   1.655  21.808  11.665
 8966POPC   D2A 2106   1.545  21.973  11.684
 8966POPC   C3A 2107   1.435  22.139  11.704
 8966POPC   C4A 2108   1.325  22.305  11.724
 8966POPC   C1B 2109   1.693  21.809  11.861
 8966POPC   C2B 2110   1.583  21.975  11.881
 8966POPC   C3B 2111   1.473  22.141  11.901
 8966POPC   C4B 2112   1.363  22.306  11.920
 8967POPC   NC3 2113   1.035  18.528   3.543
 8967POPC   PO4 2114   0.910  18.656   3.454
 8967POPC   GL1 2115   0.785  18.784   3.365
 8967POPC   GL2 2116   0.733  18.793   3.450
 8967POPC   C1A 2117   0.661  18.913   3.276
 8967POPC   D2A 2118   0.536  19.041   3.186
 8967POPC   C3A 2119   0.412  19.170   3.097
 8967POPC   C4A 2120   0.287  19.298   3.008
 8967POPC   C1B 2121   0.544  18.760   3.219
 8967POPC   C2B 2122   0.420  18.889   3.130
 8967POPC   C3B 2123   0.295  19.017   3.041
 8967POPC   C4B 2124   0.170  19.146   2.952
 8968POPC   NC3 2125  23.545  10.264  11.567
 8968POPC   PO4 2126  23.744  10.268  11.586
 8968POPC   GL1 2127  23.943  10.272  11.605
 8968POPC   GL2 2128  23.945  10.362  11.562
 8968POPC   C1A 2129  24.142  10.276  11.624
 8968POPC   D2A 2130  24.341  10.281  11.643
 8968POPC   C3A 2131  24.540  10.285  11.662
 8968POPC   C4A 2132  24.739  10.289  11.681
 8968POPC   C1B 2133  24.161  10.190  11.445
 8968POPC   C2B 2134  24.360  10.194  11.464
 8968POPC   C3B 2135  24.559  10.198  11.483
 8968POPC   C4B 2136  24.758  10.202  11.502
 8969POPC   NC3 2137  17.997  20.391  13.831
 8969POPC   PO4 2138  18.118  20.536  13.896
 8969POPC   GL1 2139  18.239  20.681  13.961
 8969POPC   GL2 2140  18.275  20.620  14.031
 8969POPC   C1A 2141  18.361  20.826  14.026
 8969POPC   D2A 2142  18.482  20.971  14.090
 8969POPC   C3A 2143  18.604  21.116  14.155
 8969POPC   C4A 2144  18.725  21.261  14.220
 8969POPC   C1B 2145  18.218  20.889  14.151
 8969POPC   C2B 2146  18.340  21.034  14.216
 8969POPC   C3B 2147  18.461  21.179  14.281
 8969POPC   C4B 2148  18.583  21.324  14.346
 8970POPC   NC3 2149   6.685   7.591  23.188
 8970POPC   PO4 2150   6.643   7.553  23.380
 8970POPC   GL1 2151   6.601   7.515  23.572
 8970POPC   GL2 2152   6.698   7.505  23.591
 8970POPC   C1A 2153   6.559   7.477  23.764
 8970POPC   D2A 2154   6.516   7.439  23.955
 8970POPC   C3A 2155   6.474   7.401  24.147
 8970POPC   C4A 2156   6.432   7.363  24.339
 8970POPC   C1B 2157   6.547   7.282  23.722
 8970POPC   C2B 2158   6.505   7.244  23.914
 8970POPC   C3B 2159   6.463   7.206  24.106
 8970POPC   C4B 2160   6.420   7.168  24.298
 8971POPC   NC3 2161  -1.135  14.735  17.005
 8971POPC   PO4 2162  -1.292  14.805  17.106
 8971POPC   GL1 2163  -1.449  14.875  17.207
 8971POPC   GL2 2164  -1.409  14.842  17.293
 8971POPC   C1A 2165  -1.607  14.945  17.309
 8971POPC   D2A 2166  -1.764  15.015  17.410
 8971POPC   C3A 2167  -1.922  15.085  17.512
 8971POPC   C4A 2168  -2.079  15.155  17.613
 8971POPC   C1B 2169  -1.700  14.770  17.285
 8971POPC   C2B 2170  -1.857  14.840  17.387
 8971POPC   C3B 2171  -2.015  14.910  17.488
 8971POPC   C4B 2172  -2.172  14.980  17.590
 8972POPC   NC3 2173   3.254   6.873  21.713
 8972POPC   PO4 2174   3.154   6.821  21.879
 8972POPC   GL1 2175   3.054   6.769  22.045
 8972POPC   GL2 2176   3.092   6.677  22.038
 8972POPC   C1A 2177   2.955   6.718  22.210
 8972POPC   D2A 2178   2.855   6.666  22.376
 8972POPC   C3A 2179   2.756   6.615  22.541
 8972POPC   C4A 2180   2.656   6.563  22.707
 8972POPC   C1B 2181   2.799   6.662  22.099
 8972POPC   C2B 2182   2.699   6.610  22.264
 8972POPC   C3B 2183   2.599   6.558  22.430
 8972POPC   C4B 2184   2.500   6.507  22.596
 8973POPC   NC3 2185   4.352  14.677  21.785
 8973POPC   PO4 2186   4.260  14.742  21.950
 8973POPC   GL1 2187   4.168  14.807  22.115
 8973POPC   GL2 2188   4.202  14.900  22.097
 8973POPC   C1A 2189   4.076  14.872  22.280
 8973POPC   D2A 2190   3.984  14.938  22.446
 8973POPC   C3A 2191   3.892  15.003  22.611
 8973POPC   C4A 2192   3.800  15.068  22.776
 8973POPC   C1B 2193   4.240  14.833  22.387
 8973POPC   C2B 2194   4.148  14.898  22.553
 8973POPC   C3B 2195   4.056  14.963  22.718
 8973POPC   C4B 2196   3.964  15.029  22.883
 8974POPC   NC3 2197  17.820  16.266   0.471
 8974POPC   PO4 2198  17.932  16.357   0.333
 8974POPC   GL1 2199  18.044  16.448   0.195
 8974POPC   GL2 2200  18.117  16.381   0.210
 8974POPC   C1A 2201  18.156  16.539   0.057
 8974POPC   D2A 2202  18.269  16.630  -0.082
 8974POPC   C3A 2203  18.381  16.721  -0.220
 8974POPC   C4A 2204  18.493  16.812  -0.358
 8974POPC   C1B 2205  18.236  16.656   0.198
 8974POPC   C2B 2206  18.348  16.747   0.060
 8974POPC   C3B 2207  18.460  16.838  -0.078
 8974POPC   C4B 2208  18.573  16.929  -0.217
 8975POPC   NC3 2209   5.686   2.442  -0.921
 8975POPC   PO4 2210   5.622   2.331  -1.075
 8975POPC   GL1 2211   5.558   2.220  -1.229
 8975POPC   GL2 2212   5.556   2.139  -1.170
 8975POPC   C1A 2213   5.493   2.109  -1.382
 8975POPC   D2A 2214   5.429   1.999  -1.536
 8975POPC   C3A 2215   5.364   1.888  -1.689
 8975POPC   C4A 2216   5.300   1.777  -1.843
 8975POPC   C1B 2217   5.683   2.068  -1.432
 8975POPC   C2B 2218   5.618   1.958  -1.586
 8975POPC   C3B 2219   5.554   1.847  -1.739
 8975POPC   C4B 2220   5.489   1.736  -1.893
 8976POPC   NC3 2221  -1.914  16.936   7.436
 8976POPC   PO4 2222  -2.086  17.028   7.392
 8976POPC   GL1 2223  -2.258  17.120   7.348
 8976POPC   GL2 2224  -2.305  17.066   7.419
 8976POPC   C1A 2225  -2.430  17.212   7.304
 8976POPC   D2A 2226  -2.603  17.303   7.261
 8976POPC   C3A 2227  -2.775  17.395   7.217
 8976POPC   C4A 2228  -2.947  17.487   7.173
 8976POPC   C1B 2229  -2.471  17.070   7.169
 8976POPC   C2B 2230  -2.644  17.162   7.125
 8976POPC   C3B 2231  -2.816  17.254   7.082
 8976POPC   C4B 2232  -2.988  17.345   7.038
 8977POPC   NC3 2233  20.816   3.696  15.755
 8977POPC   PO4 2234  20.974   3.606  15.839
 8977POPC   GL1 2235  21.132   3.516  15.923
 8977POPC   GL2 2236  21.191   3.590  15.890
 8977POPC   C1A 2237  21.290   3.426  16.007
 8977POPC   D2A 2238  21.447   3.337  16.090
 8977POPC   C3A 2239  21.605   3.247  16.174
 8977POPC   C4A 2240  21.763   3.157  16.258
 8977POPC   C1B 2241  21.322   3.326  15.837
 8977POPC   C2B 2242  21.480   3.236  15.921
 8977POPC   C3B 2243  21.638   3.146  16.005
 8977POPC   C4B 2244  21.796   3.056  16.088
 8978POPC   NC3 2245   7.497  -2.256   3.943
 8978POPC   PO4 2246   7.464  -2.433   3.855
 8978POPC   GL1 2247   7.431  -2.610   3.767
 8978POPC   GL2 2248   7.523  -2.640   3.793
 8978POPC   C1A 2249   7.398  -2.786   3.680
 8978POPC   D2A 2250   7.364  -2.963   3.592
 8978POPC   C3A 2251   7.331  -3.139   3.505
 8978POPC   C4A 2252   7.298  -3.316   3.417
 8978POPC   C1B 2253   7.469  -2.714   3.507
 8978POPC   C2B 2254   7.436  -2.891   3.420
 8978POPC   C3B 2255   7.403  -3.067   3.332
 8978POPC   C4B 2256   7.369  -3.244   3.245
 8979POPC   NC3 2257  10.471   6.606  -3.443
 8979POPC   PO4 2258  10.474   6.554  -3.636
 8979POPC   GL1 2259  10.477   6.502  -3.829
 8979POPC   GL2 2260  10.534   6.581  -3.850
 8979POPC   C1A 2261  10.480   6.450  -4.022
 8979POPC   D2A 2262  10.483   6.397  -4.215
 8979POPC   C3A 2263  10.486   6.345  -4.408
 8979POPC   C4A 2264  10.489   6.293  -4.601
 8979POPC   C1B 2265  10.316   6.559  -4.054
 8979POPC   C2B 2266  10.319   6.507  -4.247
 8979POPC   C3B 2267  10.322   6.455  -4.440
 8979POPC   C4B 2268  10.325   6.403  -4.633
 8980POPC   NC3 2269  -0.992  14.027   2.205
 8980POPC   PO4 2270  -1.151  14.091   2.102
 8980POPC   GL1 2271  -1.310  14.155   1.999
 8980POPC   GL2 2272  -1.267  14.244   1.987
 8980POPC   C1A 2273  -1.469  14.218   1.895
 8980POPC   D2A 2274  -1.628  14.282   1.792
 8980POPC   C3A 2275  -1.787  14.345   1.688
 8980POPC   C4A 2276  -1.946  14.409   1.585
 8980POPC   C1B 2277  -1.554  14.281   2.065
 8980POPC   C2B 2278  -1.713  14.345   1.961
 8980POPC   C3B 2279  -1.872  14.409   1.858
 8980POPC   C4B 2280  -2.031  14.472   1.755
 8981POPC   NC3 2281  16.316  20.403   3.528
 8981POPC   PO4 2282  16.412  20.549   3.430
 8981POPC   GL1 2283  16.508  20.695   3.332
 8981POPC   GL2 2284  16.458  20.672   3.249
 8981POPC   C1A 2285  16.603  20.841   3.235
 8981POPC   D2A 2286  16.699  20.987   3.137
 8981POPC   C3A 2287  16.794  21.133   3.040
 8981POPC   C4A 2288  16.890  21.279   2.942
 8981POPC   C1B 2289  16.748  20.712   3.184
 8981POPC   C2B 2290  16.843  20.858   3.087
 8981POPC   C3B 2291  16.939  21.004   2.989
 8981POPC   C4B 2292  17.035  21.150   2.892
 8982POPC   NC3 2293  -0.312   2.525   4.067
 8982POPC   PO4 2294  -0.459   2.415   3.987
 8982POPC   GL1 2295  -0.606   2.305   3.907
 8982POPC   GL2 2296  -0.555   2.221   3.930
 8982POPC   C1A 2297  -0.752   2.195   3.828
 8982POPC   D2A 2298  -0.899   2.084   3.748
 8982POPC   C3A 2299  -1.045   1.974   3.669
 8982POPC   C4A 2300  -1.192   1.864   3.589
 8982POPC   C1B 2301  -0.661   2.201   3.650
 8982POPC   C2B 2302  -0.807   2.091   3.570
 8982POPC   C3B 2303  -0.954   1.981   3.491
 8982POPC   C4B 2304  -1.100   1.871   3.411
 8983POPC   NC3 2305   4.740  10.851  22.708
 8983POPC   PO4 2306   4.679  10.867  22.898
 8983POPC   GL1 2307   4.618  10.883  23.088
 8983POPC   GL2 2308   4.620  10.783  23.097
 8983POPC   C1A 2309   4.556  10.899  23.277
 8983POPC   D2A 2310   4.495  10.914  23.467
 8983POPC   C3A 2311   4.433  10.930  23.656
 8983POPC   C4A 2312   4.372  10.946  23.846
 8983POPC   C1B 2313   4.366  10.888  23.216
 8983POPC   C2B 2314   4.305  10.903  23.406
 8983POPC   C3B 2315   4.243  10.919  23.596
 8983POPC   C4B 2316   4.182  10.935  23.785
 8984POPC   NC3 2317  -2.170   3.398  11.774
 8984POPC   PO4 2318  -2.345   3.306  11.802
 8984POPC   GL1 2319  -2.520   3.214  11.830
 8984POPC   GL2 2320  -2.483   3.130  11.791
 8984POPC   C1A 2321  -2.696   3.122  11.858
 8984POPC   D2A 2322  -2.871   3.031  11.887
 8984POPC   C3A 2323  -3.047   2.939  11.915
 8984POPC   C4A 2324  -3.222   2.847  11.943
 8984POPC   C1B 2325  -2.755   3.180  11.676
 8984POPC   C2B 2326  -2.931   3.088  11.705
 8984POPC   C3B 2327  -3.106   2.996  11.733
 8984POPC   C4B 2328  -3.282   2.905  11.761
 8985POPC   NC3 2329   5.780  14.624  -2.482
 8985POPC   PO4 2330   5.719  14.693  -2.660
 8985POPC   GL1 2331   5.658  14.762  -2.838
 8985POPC   GL2 2332   5.627  14.847  -2.794
 8985POPC   C1A 2333   5.598  14.832  -3.015
 8985POPC   D2A 2334   5.537  14.901  -3.193
 8985POPC   C3A 2335   5.477  14.971  -3.370
 8985POPC   C4A 2336   5.416  15.040  -3.548
 8985POPC   C1B 2337   5.418  14.749  -2.986
 8985POPC   C2B 2338   5.357  14.819  -3.164
 8985POPC   C3B 2339   5.297  14.888  -3.341
 8985POPC   C4B 2340   5.236  14.958  -3.519
 8986POPC   NC3 2341  22.953   6.508  12.850
 8986POPC   PO4 2342  23.142   6.456  12.891
 8986POPC   GL1 2343  23.331   6.404  12.932
 8986POPC   GL2 2344  23.328   6.335  12.859
 8986POPC   C1A 2345  23.519   6.352  12.973
 8986POPC   D2A 2346  23.708   6.299  13.014
 8986POPC   C3A 2347  23.896   6.247  13.055
 8986POPC   C4A 2348  24.085   6.195  13.096
 8986POPC   C1B 2349  23.453   6.216  13.104
 8986POPC   C2B 2350  23.642   6.163  13.145
 8986POPC   C3B 2351  23.830   6.111  13.186
 8986POPC   C4B 2352  24.019   6.059  13.227
 8987POPC   NC3 2353  18.080  -0.638  13.267
 8987POPC   PO4 2354  18.196  -0.793  13.317
 8987POPC   GL1 2355  18.312  -0.948  13.367
 8987POPC   GL2 2356  18.303  -0.985  13.274
 8987POPC   C1A 2357  18.429  -1.103  13.416
 8987POPC   D2A 2358  18.545  -1.257  13.466
 8987POPC   C3A 2359  18.662  -1.412  13.515
 8987POPC   C4A 2360  18.778  -1.567  13.565
 8987POPC   C1B 2361  18.267  -1.206  13.474
 8987POPC   C2B 2362  18.384  -1.360  13.524
 8987POPC   C3B 2363  18.500  -1.515  13.573
 8987POPC   C4B 2364  18.617  -1.670  13.623
 8988POPC   NC3 2365  14.895  -1.925  14.885
 8988POPC   PO4 2366  14.966  -2.099  14.954
 8988POPC   GL1 2367  15.037  -2.273  15.023
 8988POPC   GL2 2368  15.090  -2.224  15.092
 8988POPC   C1A 2369  15.107  -2.447  15.092
 8988POPC   D2A 2370  15.178  -2.620  15.162
 8988POPC   C3A 2371  15.248  -2.794  15.231
 8988POPC   C4A 2372  15.319  -2.968  15.300
 8988POPC   C1B 2373  15.261  -2.435  14.964
 8988POPC   C2B 2374  15.331  -2.609  15.034
 8988POPC   C3B 2375  15.402  -2.783  15.103
 8988POPC   C4B 2376  15.472  -2.957  15.172
 8989POPC   NC3 2377  -0.660  18.188  13.611
 8989POPC   PO4 2378  -0.813  18.306  13.662
 8989POPC   GL1 2379  -0.966  18.424  13.713
 8989POPC   GL2 2380  -0.923  18.501  13.667
 8989POPC   C1A 2381  -1.120  18.541  13.764
 8989POPC   D2A 2382  -1.273  18.659  13.816
 8989POPC   C3A 2383  -1.427  18.776  13.867
 8989POPC   C4A 2384  -1.580  18.894  13.918
 8989POPC   C1B 2385  -1.026  18.590  13.934
 8989POPC   C2B 2386  -1.179  18.708  13.985
 8989POPC   C3B 2387  -1.333  18.825  14.036
 8989POPC   C4B 2388  -1.486  18.943  14.088
 8990POPC   NC3 2389  20.507   2.426  14.617
 8990POPC   PO4 2390  20.659   2.311  14.677
 8990POPC   GL1 2391  20.811   2.196  14.737
 8990POPC   GL2 2392  20.860   2.216  14.652
 8990POPC   C1A 2393  20.964   2.082  14.798
 8990POPC   D2A 2394  21.116   1.967  14.858
 8990POPC   C3A 2395  21.269   1.853  14.919
 8990POPC   C4A 2396  21.421   1.738  14.979
 8990POPC   C1B 2397  20.877   1.922  14.713
 8990POPC   C2B 2398  21.030   1.808  14.774
 8990POPC   C3B 2399  21.182   1.693  14.834
 8990POPC   C4B 2400  21.335   1.579  14.895
 8991POPC   NC3 2401  11.994  12.978  23.264
 8991POPC   PO4 2402  12.023  13.027  23.456
 8991POPC   GL1 2403  12.052  13.076  23.648
 8991POPC   GL2 2404  12.149  13.091  23.629
 8991POPC   C1A 2405  12.081  13.125  23.840
 8991POPC   D2A 2406  12.111  13.173  24.031
 8991POPC   C3A 2407  12.140  13.222  24.223
 8991POPC   C4A 2408  12.169  13.271  24.415
 8991POPC   C1B 2409  12.119  12.933  23.883
 8991POPC   C2B 2410  12.149  12.982  24.074
 8991POPC   C3B 2411  12.178  13.031  24.266
 8991POPC   C4B 2412  12.207  13.079  24.458
 8992POPC   NC3 2413  20.158  16.215  16.875
 8992POPC   PO4 2414  20.300  16.310  16.979
 8992POPC   GL1 2415  20.442  16.405  17.083
 8992POPC   GL2 2416  20.512  16.346  17.041
 8992POPC   C1A 2417  20.585  16.499  17.187
 8992POPC   D2A 2418  20.727  16.594  17.290
 8992POPC   C3A 2419  20.870  16.688  17.394
 8992POPC   C4A 2420  21.012  16.783  17.498
 8992POPC   C1B 2421  20.563  16.368  17.336
 8992POPC   C2B 2422  20.705  16.463  17.440
 8992POPC   C3B 2423  20.848  16.557  17.544
 8992POPC   C4B 2424  20.990  16.652  17.647
 8993POPC   NC3 2425   2.727  21.432  13.038
 8993POPC   PO4 2426   2.630  21.598  13.092
 8993POPC   GL1 2427   2.533  21.764  13.146
 8993POPC   GL2 2428   2.593  21.773  13.226
 8993POPC   C1A 2429   2.436  21.931  13.201
 8993POPC   D2A 2430   2.340  22.097  13.255
 8993POPC   C3A 2431   2.243  22.264  13.310
 8993POPC   C4A 2432   2.146  22.430  13.364
 8993POPC   C1B 2433   2.308  21.821  13.307
 8993POPC   C2B 2434   2.211  21.987  13.362
 8993POPC   C3B 2435   2.114  22.154  13.416
 8993POPC   C4B 2436   2.017  22.320  13.471
 8994POPC   NC3 2437   3.058  12.030  21.833
 8994POPC   PO4 2438   2.956  12.066  22.001
 8994POPC   GL1 2439   2.854  12.102  22.169
 8994POPC   GL2 2440   2.885  12.197  22.168
 8994POPC   C1A 2441   2.752  12.138  22.337
 8994POPC   D2A 2442   2.650  12.173  22.506
 8994POPC   C3A 2443   2.548  12.209  22.674
 8994POPC   C4A 2444   2.446  12.245  22.842
 8994POPC   C1B 2445   2.912  12.086  22.446
 8994POPC   C2B 2446   2.810  12.122  22.614
 8994POPC   C3B 2447   2.708  12.158  22.782
 8994POPC   C4B 2448   2.606  12.194  22.950
 8995POPC   NC3 2449  -2.071   3.981  13.492
 8995POPC   PO4 2450  -2.244   3.894  13.543
 8995POPC   GL1 2451  -2.417   3.807  13.594
 8995POPC   GL2 2452  -2.433   3.878  13.662
 8995POPC   C1A 2453  -2.590   3.721  13.644
 8995POPC   D2A 2454  -2.764   3.634  13.695
 8995POPC   C3A 2455  -2.937   3.548  13.745
 8995POPC   C4A 2456  -3.110   3.461  13.796
 8995POPC   C1B 2457  -2.495   3.610  13.780
 8995POPC   C2B 2458  -2.668   3.523  13.831
 8995POPC   C3B 2459  -2.841   3.436  13.882
 8995POPC   C4B 2460  -3.015   3.350  13.932
 8996POPC   NC3 2461   8.788  -1.044  18.259
 8996POPC   PO4 2462   8.774  -1.203  18.380
 8996POPC   GL1 2463   8.760  -1.362  18.501
 8996POPC   GL2 2464   8.819  -1.414  18.439
 8996POPC   C1A 2465   8.745  -1.521  18.622
 8996POPC   D2A 2466   8.731  -1.679  18.742
 8996POPC   C3A 2467   8.716  -1.838  18.863
 8996POPC   C4A 2468   8.702  -1.997  18.984
 8996POPC   C1B 2469   8.585  -1.583  18.520
 8996POPC   C2B 2470   8.570  -1.742  18.641
 8996POPC   C3B 2471   8.556  -1.901  18.762
 8996POPC   C4B 2472   8.542  -2.060  18.882
 8997POPC   NC3 2473   3.214   5.753  -1.500
 8997POPC   PO4 2474   3.113   5.687  -1.659
 8997POPC   GL1 2475   3.012   5.621  -1.818
 8997POPC   GL2 2476   3.087   5.560  -1.841
 8997POPC   C1A 2477   2.910   5.555  -1.978
 8997POPC   D2A 2478   2.809   5.490  -2.137
 8997POPC   C3A 2479   2.707   5.424  -2.297
 8997POPC   C4A 2480   2.606   5.358  -2.456
 8997POPC   C1B 2481   2.993   5.699  -2.090
 8997POPC   C2B 2482   2.892   5.633  -2.249
 8997POPC   C3B 2483   2.791   5.567  -2.409
 8997POPC   C4B 2484   2.689   5.501  -2.568
 8998POPC   NC3 2485  -0.741  18.894   8.703
 8998POPC   PO4 2486  -0.889  19.028   8.689
 8998POPC   GL1 2487  -1.037  19.162   8.675
 8998POPC   GL2 2488  -1.031  19.179   8.773
 8998POPC   C1A 2489  -1.185  19.295   8.660
 8998POPC   D2A 2490  -1.334  19.429   8.646
 8998POPC   C3A 2491  -1.482  19.562   8.631
 8998POPC   C4A 2492  -1.630  19.696   8.617
 8998POPC   C1B 2493  -1.319  19.150   8.693
 8998POPC   C2B 2494  -1.467  19.284   8.679
 8998POPC   C3B 2495  -1.616  19.418   8.664
 8998POPC   C4B 2496  -1.764  19.551   8.650
 8999POPC   NC3 2497   9.609  23.742   8.468
 8999POPC   PO4 2498   9.605  23.941   8.449
 8999POPC   GL1 2499   9.601  24.140   8.430
 8999POPC   GL2 2500   9.691  24.146   8.474
 8999POPC   C1A 2501   9.597  24.339   8.412
 8999POPC   D2A 2502   9.594  24.538   8.393
 8999POPC   C3A 2503   9.590  24.737   8.375
 8999POPC   C4A 2504   9.586  24.936   8.356
 8999POPC   C1B 2505   9.510  24.354   8.591
 8999POPC   C2B 2506   9.506  24.553   8.572
 8999POPC   C3B 2507   9.502  24.752   8.554
 8999POPC   C4B 2508   9.498  24.951   8.535
 9000POPC   NC3 2509  -3.779  10.004  12.366
 9000POPC   PO4 2510  -3.975  10.001  12.404
 9000POPC   GL1 2511  -4.171   9.998  12.442
 9000POPC   GL2 2512  -4.154   9.949  12.528
 9000POPC   C1A 2513  -4.367   9.996  12.481
 9000POPC   D2A 2514  -4.564   9.993  12.519
 9000POPC   C3A 2515  -4.760   9.991  12.558
 9000POPC   C4A 2516  -4.956   9.988  12.596
 9000POPC   C1B 2517  -4.384   9.821  12.384
 9000POPC   C2B 2518  -4.580   9.819  12.423
 9000POPC   C3B 2519  -4.776   9.816  12.461
 9000POPC   C4B 2520  -4.972   9.814  12.500
 9001POPC   NC3 2521  11.168   8.163  -3.764
 9001POPC   PO4 2522  11.179   8.134  -3.961
 9001POPC   GL1 2523  11.190   8.105  -4.158
 9001POPC   GL2 2524  11.164   8.200  -4.174
 9001POPC   C1A 2525  11.201   8.075  -4.356
 9001POPC   D2A 2526  11.213   8.046  -4.553
 9001POPC   C3A 2527  11.224   8.016  -4.751
 9001POPC   C4A 2528  11.235   7.987  -4.948
 9001POPC   C1B 2529  11.009   8.021  -4.359
 9001POPC   C2B 2530  11.020   7.992  -4.556
 9001POPC   C3B 2531  11.031   7.962  -4.754
 9001POPC   C4B 2532  11.042   7.933  -4.951
 9002POPC   NC3 2533  12.956   6.440  -3.111
 9002POPC   PO4 2534  13.003   6.387  -3.298
 9002POPC   GL1 2535  13.050   6.334  -3.485
 9002POPC   GL2 2536  13.025   6.425  -3.517
 9002POPC   C1A 2537  13.097   6.281  -3.672
 9002POPC   D2A 2538  13.144   6.229  -3.859
 9002POPC   C3A 2539  13.191   6.176  -4.046
 9002POPC   C4A 2540  13.238   6.123  -4.233
 9002POPC   C1B 2541  12.909   6.219  -3.702
 9002POPC   C2B 2542  12.956   6.166  -3.889
 9002POPC   C3B 2543  13.003   6.113  -4.076
 9002POPC   C4B 2544  13.050   6.061  -4.263
 9003POPC   NC3 2545  19.687   0.324   8.425
 9003POPC   PO4 2546  19.831   0.187   8.403
 9003POPC   GL1 2547  19.975   0.050   8.381
 9003POPC   GL2 2548  20.039   0.110   8.429
 9003POPC   C1A 2549  20.119  -0.088   8.359
 9003POPC   D2A 2550  20.262  -0.225   8.338
 9003POPC   C3A 2551  20.406  -0.363   8.316
 9003POPC   C4A 2552  20.550  -0.500   8.294
 9003POPC   C1B 2553  20.171  -0.006   8.185
 9003POPC   C2B 2554  20.315  -0.143   8.163
 9003POPC   C3B 2555  20.458  -0.280   8.141
 9003POPC   C4B 2556  20.602  -0.418   8.119
 9004POPC   NC3 2557  13.737  -1.615  16.470
 9004POPC   PO4 2558  13.796  -1.782  16.562
 9004POPC   GL1 2559  13.855  -1.949  16.654
 9004POPC   GL2 2560  13.948  -1.935  16.622
 9004POPC   C1A 2561  13.913  -2.117  16.746
 9004POPC   D2A 2562  13.972  -2.284  16.839
 9004POPC   C3A 2563  14.030  -2.452  16.931
 9004POPC   C4A 2564  14.089  -2.619  17.023
 9004POPC   C1B 2565  13.872  -2.222  16.581
 9004POPC   C2B 2566  13.931  -2.389  16.673
 9004POPC   C3B 2567  13.990  -2.557  16.766
 9004POPC   C4B 2568  14.048  -2.724  16.858
 9005POPC   NC3 2569   6.084  22.926   6.430
 9005POPC   PO4 2570   6.029  23.112   6.381
 9005POPC   GL1 2571   5.974  23.298   6.332
 9005POPC   GL2 2572   5.980  23.325   6.428
 9005POPC   C1A 2573   5.919  23.484   6.282
 9005POPC   D2A 2574   5.865  23.669   6.233
 9005POPC   C3A 2575   5.810  23.855   6.183
 9005POPC   C4A 2576   5.755  24.041   6.134
 9005POPC   C1B 2577   5.727  23.434   6.307
 9005POPC   C2B 2578   5.673  23.619   6.258
 9005POPC   C3B 2579   5.618  23.805   6.208
 9005POPC   C4B 2580   5.563  23.991   6.159
 9006POPC   NC3 2581   0.250   8.716  19.829
 9006POPC   PO4 2582   0.110   8.699  19.971
 9006POPC   GL1 2583  -0.030   8.682  20.113
 9006POPC   GL2 2584   0.038   8.707  20.183
 9006POPC   C1A 2585  -0.169   8.665  20.255
 9006POPC   D2A 2586  -0.309   8.649  20.398
 9006POPC   C3A 2587  -0.448   8.632  20.540
 9006POPC   C4A 2588  -0.588   8.615  20.682
 9006POPC   C1B 2589  -0.122   8.472  20.279
 9006POPC   C2B 2590  -0.262   8.456  20.421
 9006POPC   C3B 2591  -0.401   8.439  20.563
 9006POPC   C4B 2592  -0.541   8.422  20.706
 9007POPC   NC3 2593  -2.947  10.335   4.778
 9007POPC   PO4 2594  -3.135  10.341   4.709
 9007POPC   GL1 2595  -3.323  10.347   4.640
 9007POPC   GL2 2596  -3.354  10.296   4.720
 9007POPC   C1A 2597  -3.510  10.352   4.570
 9007POPC   D2A 2598  -3.698  10.358   4.501
 9007POPC   C3A 2599  -3.885  10.363   4.431
 9007POPC   C4A 2600  -4.073  10.369   4.362
 9007POPC   C1B 2601  -3.480  10.180   4.474
 9007POPC   C2B 2602  -3.667  10.185   4.405
 9007POPC   C3B 2603  -3.855  10.191   4.335
 9007POPC   C4B 2604  -4.043  10.196   4.266
 9008POPC   NC3 2605  23.423  10.140   7.337
 9008POPC   PO4 2606  23.620  10.138   7.302
 9008POPC   GL1 2607  23.817  10.136   7.267
 9008POPC   GL2 2608  23.817  10.236   7.263
 9008POPC   C1A 2609  24.014  10.135   7.232
 9008POPC   D2A 2610  24.210  10.133   7.196
 9008POPC   C3A 2611  24.407  10.132   7.161
 9008POPC   C4A 2612  24.604  10.130   7.126
 9008POPC   C1B 2613  23.978  10.127   7.035
 9008POPC   C2B 2614  24.175  10.125   7.000
 9008POPC   C3B 2615  24.372  10.123   6.964
 9008POPC   C4B 2616  24.569  10.122   6.929
 9009POPC   NC3 2617  15.881  19.541   1.976
 9009POPC   PO4 2618  15.975  19.679   1.866
 9009POPC   GL1 2619  16.069  19.817   1.756
 9009POPC   GL2 2620  16.063  19.757   1.676
 9009POPC   C1A 2621  16.163  19.955   1.646
 9009POPC   D2A 2622  16.257  20.092   1.535
 9009POPC   C3A 2623  16.351  20.230   1.425
 9009POPC   C4A 2624  16.445  20.368   1.315
 9009POPC   C1B 2625  16.339  19.873   1.694
 9009POPC   C2B 2626  16.433  20.011   1.584
 9009POPC   C3B 2627  16.527  20.149   1.474
 9009POPC   C4B 2628  16.621  20.287   1.364
 9010POPC   NC3 2629  22.629   7.234   5.272
 9010POPC   PO4 2630  22.815   7.197   5.207
 9010POPC   GL1 2631  23.001   7.160   5.142
 9010POPC   GL2 2632  23.024   7.257   5.154
 9010POPC   C1A 2633  23.186   7.123   5.077
 9010POPC   D2A 2634  23.372   7.086   5.013
 9010POPC   C3A 2635  23.557   7.049   4.948
 9010POPC   C4A 2636  23.743   7.012   4.883
 9010POPC   C1B 2637  23.128   7.159   4.890
 9010POPC   C2B 2638  23.313   7.122   4.825
 9010POPC   C3B 2639  23.499   7.085   4.760
 9010POPC   C4B 2640  23.685   7.048   4.695
 9011POPC   NC3 2641  17.589   0.714   3.114
 9011POPC   PO4 2642  17.700   0.582   3.013
 9011POPC   GL1 2643  17.811   0.450   2.912
 9011POPC   GL2 2644  17.751   0.460   2.833
 9011POPC   C1A 2645  17.922   0.317   2.812
 9011POPC   D2A 2646  18.033   0.185   2.711
 9011POPC   C3A 2647  18.144   0.052   2.611
 9011POPC   C4A 2648  18.255  -0.080   2.510
 9011POPC   C1B 2649  17.806   0.169   2.879
 9011POPC   C2B 2650  17.917   0.036   2.779
 9011POPC   C3B 2651  18.028  -0.096   2.678
 9011POPC   C4B 2652  18.139  -0.228   2.577
 9012POPC   NC3 2653  10.204   8.815  23.760
 9012POPC   PO4 2654  10.204   8.796  23.959
 9012POPC   GL1 2655  10.204   8.777  24.158
 9012POPC   GL2 2656  10.235   8.683  24.149
 9012POPC   C1A 2657  10.203   8.759  24.357
 9012POPC   D2A 2658  10.203   8.740  24.557
 9012POPC   C3A 2659  10.202   8.722  24.756
 9012POPC   C4A 2660  10.202   8.703  24.955
 9012POPC   C1B 2661  10.013   8.697  24.351
 9012POPC   C2B 2662  10.013   8.678  24.550
 9012POPC   C3B 2663  10.012   8.660  24.750
 9012POPC   C4B 2664  10.012   8.641  24.949
 9013POPC   NC3 2665  23.492   8.495  11.606
 9013POPC   PO4 2666  23.691   8.479  11.623
 9013POPC   GL1 2667  23.890   8.463  11.640
 9013POPC   GL2 2668  23.898   8.459  11.541
 9013POPC   C1A 2669  24.088   8.447  11.658
 9013POPC   D2A 2670  24.287   8.431  11.675
 9013POPC   C3A 2671  24.485   8.415  11.693
 9013POPC   C4A 2672  24.684   8.399  11.710
 9013POPC   C1B 2673  24.072   8.248  11.664
 9013POPC   C2B 2674  24.270   8.232  11.682
 9013POPC   C3B 2675  24.469   8.216  11.699
 9013POPC   C4B 2676  24.667   8.200  11.717
 9014POPC   NC3 2677  11.397  -3.789   9.499
 9014POPC   PO4 2678  11.410  -3.989   9.498
 9014POPC   GL1 2679  11.423  -4.189   9.497
 9014POPC   GL2 2680  11.431  -4.188   9.397
 9014POPC   C1A 2681  11.437  -4.388   9.496
 9014POPC   D2A 2682  11.450  -4.588   9.495
 9014POPC   C3A 2683  11.464  -4.787   9.494
 9014POPC   C4A 2684  11.477  -4.987   9.493
 9014POPC   C1B 2685  11.238  -4.401   9.480
 9014POPC   C2B 2686  11.251  -4.601   9.479
 9014POPC   C3B 2687  11.265  -4.801   9.478
 9014POPC   C4B 2688  11.278  -5.000   9.477
 9015POPC   NC3 2689  23.347   9.920  13.050
 9015POPC   PO4 2690  23.544   9.922  13.086
 9015POPC   GL1 2691  23.741   9.924  13.122
 9015POPC   GL2 2692  23.743  10.023  13.105
 9015POPC   C1A 2693  23.938   9.927  13.158
 9015POPC   D2A 2694  24.134   9.929  13.194
 9015POPC   C3A 2695  24.331   9.932  13.230
 9015POPC   C4A 2696  24.528   9.934  13.266
 9015POPC   C1B 2697  23.973   9.892  12.964
 9015POPC   C2B 2698  24.170   9.894  13.000
 9015POPC   C3B 2699  24.367   9.897  13.036
 9015POPC   C4B 2700  24.564   9.899  13.072
 9016POPC   NC3 2701   5.391  -2.469  14.094
 9016POPC   PO4 2702   5.325  -2.649  14.153
 9016POPC   GL1 2703   5.259  -2.829  14.212
 9016POPC   GL2 2704   5.352  -2.854  14.239
 9016POPC   C1A 2705   5.193  -3.008  14.270
 9016POPC   D2A 2706   5.128  -3.188  14.329
 9016POPC   C3A 2707   5.062  -3.367  14.387
 9016POPC   C4A 2708   4.996  -3.547  14.446
 9016POPC   C1B 2709   5.229  -3.081  14.087
 9016POPC   C2B 2710   5.163  -3.260  14.146
 9016POPC   C3B 2711   5.097  -3.440  14.204
 9016POPC   C4B 2712   5.031  -3.620  14.263
 9017POPC   NC3 2713   7.785   9.309  -3.733
 9017POPC   PO4 2714   7.756   9.298  -3.931
 9017POPC   GL1 2715   7.727   9.287  -4.129
 9017POPC   GL2 2716   7.646   9.229  -4.114
 9017POPC   C1A 2717   7.697   9.277  -4.326
 9017POPC   D2A 2718   7.668   9.266  -4.524
 9017POPC   C3A 2719   7.638   9.256  -4.721
 9017POPC   C4A 2720   7.609   9.245  -4.919
 9017POPC   C1B 2721   7.813   9.114  -4.335
 9017POPC   C2B 2722   7.784   9.104  -4.532
 9017POPC   C3B 2723   7.755   9.093  -4.730
 9017POPC   C4B 2724   7.725   9.082  -4.928
 9018POPC   NC3 2725  11.620   1.264  20.452
 9018POPC   PO4 2726  11.652   1.132  20.599
 9018POPC   GL1 2727  11.684   1.000  20.746
 9018POPC   GL2 2728  11.782   1.001  20.726
 9018POPC   C1A 2729  11.715   0.868  20.892
 9018POPC   D2A 2730  11.747   0.735  21.039
 9018POPC   C3A 2731  11.778   0.603  21.185
 9018POPC   C4A 2732  11.810   0.471  21.332
 9018POPC   C1B 2733  11.691   0.718  20.762
 9018POPC   C2B 2734  11.722   0.585  20.909
 9018POPC   C3B 2735  11.754   0.453  21.055
 9018POPC   C4B 2736  11.786   0.321  21.202
 9019POPC   NC3 2737   8.408  -0.482  18.904
 9019POPC   PO4 2738   8.389  -0.634  19.033
 9019POPC   GL1 2739   8.370  -0.786  19.162
 9019POPC   GL2 2740   8.425  -0.844  19.102
 9019POPC   C1A 2741   8.351  -0.937  19.291
 9019POPC   D2A 2742   8.332  -1.089  19.420
 9019POPC   C3A 2743   8.313  -1.240  19.549
 9019POPC   C4A 2744   8.294  -1.392  19.678
 9019POPC   C1B 2745   8.185  -0.997  19.196
 9019POPC   C2B 2746   8.166  -1.149  19.325
 9019POPC   C3B 2747   8.147  -1.300  19.454
 9019POPC   C4B 2748   8.128  -1.452  19.583
 9020POPC   NC3 2749  17.751  20.907  13.081
 9020POPC   PO4 2750  17.871  21.056  13.138
 9020POPC   GL1 2751  17.991  21.205  13.195
 9020POPC   GL2 2752  18.046  21.141  13.248
 9020POPC   C1A 2753  18.111  21.355  13.253
 9020POPC   D2A 2754  18.231  21.504  13.310
 9020POPC   C3A 2755  18.351  21.654  13.368
 9020POPC   C4A 2756  18.471  21.803  13.425
 9020POPC   C1B 2757  17.996  21.386  13.413
 9020POPC   C2B 2758  18.116  21.535  13.471
 9020POPC   C3B 2759  18.236  21.685  13.528
 9020POPC   C4B 2760  18.356  21.834  13.585
 9021POPC   NC3 2761  21.509   6.862  16.641
 9021POPC   PO4 2762  21.676   6.819  16.743
 9021POPC   GL1 2763  21.843   6.776  16.845
 9021POPC   GL2 2764  21.833   6.680  16.821
 9021POPC   C1A 2765  22.009   6.733  16.947
 9021POPC   D2A 2766  22.176   6.691  17.050
 9021POPC   C3A 2767  22.342   6.648  17.152
 9021POPC   C4A 2768  22.509   6.605  17.254
 9021POPC   C1B 2769  21.900   6.703  17.112
 9021POPC   C2B 2770  22.067   6.660  17.214
 9021POPC   C3B 2771  22.233   6.617  17.317
 9021POPC   C4B 2772  22.400   6.574  17.419
 9022POPC   NC3 2773   9.546   5.396  22.949
 9022POPC   PO4 2774   9.535   5.329  23.137
 9022POPC   GL1 2775   9.524   5.262  23.325
 9022POPC   GL2 2776   9.569   5.177  23.297
 9022POPC   C1A 2777   9.513   5.194  23.513
 9022POPC   D2A 2778   9.502   5.127  23.701
 9022POPC   C3A 2779   9.491   5.059  23.889
 9022POPC   C4A 2780   9.480   4.992  24.077
 9022POPC   C1B 2781   9.334   5.113  23.474
 9022POPC   C2B 2782   9.323   5.046  23.662
 9022POPC   C3B 2783   9.312   4.979  23.850
 9022POPC   C4B 2784   9.301   4.911  24.038
 9023POPC   NC3 2785   4.280  17.532  20.131
 9023POPC   PO4 2786   4.199  17.642  20.277
 9023POPC   GL1 2787   4.118  17.752  20.423
 9023POPC   GL2 2788   4.160  17.692  20.491
 9023POPC   C1A 2789   4.037  17.862  20.569
 9023POPC   D2A 2790   3.956  17.973  20.715
 9023POPC   C3A 2791   3.875  18.083  20.861
 9023POPC   C4A 2792   3.794  18.193  21.007
 9023POPC   C1B 2793   3.875  17.746  20.567
 9023POPC   C2B 2794   3.794  17.856  20.713
 9023POPC   C3B 2795   3.713  17.966  20.859
 9023POPC   C4B 2796   3.632  18.076  21.005
 9024POPC   NC3 2797  21.848   7.352   3.442
 9024POPC   PO4 2798  22.022   7.320   3.348
 9024POPC   GL1 2799  22.196   7.288   3.254
 9024POPC   GL2 2800  22.156   7.321   3.169
 9024POPC   C1A 2801  22.370   7.256   3.161
 9024POPC   D2A 2802  22.543   7.223   3.067
 9024POPC   C3A 2803  22.717   7.191   2.974
 9024POPC   C4A 2804  22.891   7.159   2.880
 9024POPC   C1B 2805  22.311   7.070   3.116
 9024POPC   C2B 2806  22.485   7.037   3.023
 9024POPC   C3B 2807  22.659   7.005   2.929
 9024POPC   C4B 2808  22.833   6.973   2.836
 9025POPC   NC3 2809  -2.192  13.482  15.881
 9025POPC   PO4 2810  -2.365  13.530  15.968
 9025POPC   GL1 2811  -2.538  13.578  16.055
 9025POPC   GL2 2812  -2.507  13.537  16.141
 9025POPC   C1A 2813  -2.712  13.627  16.142
 9025POPC   D2A 2814  -2.885  13.675  16.230
 9025POPC   C3A 2815  -3.059  13.724  16.317
 9025POPC   C4A 2816  -3.232  13.772  16.404
 9025POPC   C1B 2817  -2.789  13.452  16.085
 9025POPC   C2B 2818  -2.963  13.500  16.173
 9025POPC   C3B 2819  -3.136  13.548  16.260
 9025POPC   C4B 2820  -3.310  13.597  16.347
 9026POPC   NC3 2821  21.587  13.146  16.677
 9026POPC   PO4 2822  21.758  13.191  16.770
 9026POPC   GL1 2823  21.929  13.236  16.863
 9026POPC   GL2 2824  21.946  13.139  16.880
 9026POPC   C1A 2825  22.100  13.281  16.956
 9026POPC   D2A 2826  22.272  13.327  17.050
 9026POPC   C3A 2827  22.443  13.372  17.143
 9026POPC   C4A 2828  22.614  13.417  17.236
 9026POPC   C1B 2829  22.002  13.295  17.130
 9026POPC   C2B 2830  22.174  13.340  17.223
 9026POPC   C3B 2831  22.345  13.385  17.317
 9026POPC   C4B 2832  22.516  13.430  17.410
 9027POPC   NC3 2833   6.307  -2.316   4.675
 9027POPC   PO4 2834   6.259  -2.495   4.600
 9027POPC   GL1 2835   6.211  -2.674   4.525
 9027POPC   GL2 2836   6.286  -2.716   4.576
 9027POPC   C1A 2837   6.163  -2.853   4.449
 9027POPC   D2A 2838   6.116  -3.032   4.374
 9027POPC   C3A 2839   6.068  -3.211   4.298
 9027POPC   C4A 2840   6.020  -3.390   4.223
 9027POPC   C1B 2841   6.287  -2.821   4.295
 9027POPC   C2B 2842   6.239  -3.000   4.220
 9027POPC   C3B 2843   6.192  -3.179   4.145
 9027POPC   C4B 2844   6.144  -3.358   4.069
 9028POPC   NC3 2845  19.668  13.028   0.633
 9028POPC   PO4 2846  19.813  13.066   0.501
 9028POPC   GL1 2847  19.958  13.104   0.369
 9028POPC   GL2 2848  19.932  13.023   0.317
 9028POPC   C1A 2849  20.103  13.142   0.237
 9028POPC   D2A 2850  20.249  13.181   0.105
 9028POPC   C3A 2851  20.394  13.219  -0.027
 9028POPC   C4A 2852  20.539  13.257  -0.159
 9028POPC   C1B 2853  20.231  13.033   0.346
 9028POPC   C2B 2854  20.376  13.071   0.214
 9028POPC   C3B 2855  20.521  13.110   0.082
 9028POPC   C4B 2856  20.667  13.148  -0.050
 9029POPC   NC3 2857   3.431   8.705  -2.287
 9029POPC   PO4 2858   3.335   8.691  -2.462
 9029POPC   GL1 2859   3.239   8.677  -2.637
 9029POPC   GL2 2860   3.194   8.593  -2.606
 9029POPC   C1A 2861   3.144   8.662  -2.812
 9029POPC   D2A 2862   3.048   8.648  -2.988
 9029POPC   C3A 2863   2.953   8.633  -3.163
 9029POPC   C4A 2864   2.857   8.619  -3.338
 9029POPC   C1B 2865   3.295   8.553  -2.886
 9029POPC   C2B 2866   3.199   8.539  -3.061
 9029POPC   C3B 2867   3.103   8.524  -3.236
 9029POPC   C4B 2868   3.008   8.510  -3.411
 9030POPC   NC3 2869   1.569  12.249  20.734
 9030POPC   PO4 2870   1.450  12.287  20.890
 9030POPC   GL1 2871   1.331  12.325  21.046
 9030POPC   GL2 2872   1.407  12.311  21.108
 9030POPC   C1A 2873   1.211  12.364  21.202
 9030POPC   D2A 2874   1.092  12.402  21.357
 9030POPC   C3A 2875   0.972  12.441  21.513
 9030POPC   C4A 2876   0.853  12.479  21.669
 9030POPC   C1B 2877   1.165  12.170  21.214
 9030POPC   C2B 2878   1.045  12.208  21.370
 9030POPC   C3B 2879   0.926  12.246  21.526
 9030POPC   C4B 2880   0.807  12.285  21.681
 9031POPC   NC3 2881  20.247   4.254  17.108
 9031POPC   PO4 2882  20.395   4.181  17.221
 9031POPC   GL1 2883  20.543   4.108  17.334
 9031POPC   GL2 2884  20.569   4.046  17.260
 9031POPC   C1A 2885  20.690   4.035  17.448
 9031POPC   D2A 2886  20.838   3.961  17.561
 9031POPC   C3A 2887  20.985   3.888  17.675
 9031POPC   C4A 2888  21.133   3.815  17.788
 9031POPC   C1B 2889  20.566   3.896  17.520
 9031POPC   C2B 2890  20.713   3.823  17.634
 9031POPC   C3B 2891  20.861   3.749  17.747
 9031POPC   C4B 2892  21.009   3.676  17.860
 9032POPC   NC3 2893  17.251  21.419   7.471
 9032POPC   PO4 2894  17.351  21.590   7.443
 9032POPC   GL1 2895  17.451  21.761   7.415
 9032POPC   GL2 2896  17.519  21.712   7.360
 9032POPC   C1A 2897  17.552  21.932   7.388
 9032POPC   D2A 2898  17.652  22.102   7.360
 9032POPC   C3A 2899  17.753  22.273   7.333
 9032POPC   C4A 2900  17.853  22.444   7.305
 9032POPC   C1B 2901  17.660  21.895   7.552
 9032POPC   C2B 2902  17.760  22.066   7.525
 9032POPC   C3B 2903  17.860  22.236   7.497
 9032POPC   C4B 2904  17.961  22.407   7.469
 9033POPC   NC3 2905  21.937   4.723   5.517
 9033POPC   PO4 2906  22.112   4.647   5.457
 9033POPC   GL1 2907  22.287   4.571   5.397
 9033POPC   GL2 2908  22.327   4.662   5.397
 9033POPC   C1A 2909  22.462   4.494   5.337
 9033POPC   D2A 2910  22.636   4.418   5.277
 9033POPC   C3A 2911  22.811   4.341   5.217
 9033POPC   C4A 2912  22.986   4.265   5.157
 9033POPC   C1B 2913  22.407   4.519   5.146
 9033POPC   C2B 2914  22.582   4.442   5.086
 9033POPC   C3B 2915  22.756   4.366   5.026
 9033POPC   C4B 2916  22.931   4.289   4.966
 9034POPC   NC3 2917  16.031  22.274   9.185
 9034POPC   PO4 2918  16.122  22.452   9.176
 9034POPC   GL1 2919  16.213  22.630   9.167
 9034POPC   GL2 2920  16.287  22.589   9.113
 9034POPC   C1A 2921  16.304  22.808   9.157
 9034POPC   D2A 2922  16.396  22.985   9.148
 9034POPC   C3A 2923  16.487  23.163   9.138
 9034POPC   C4A 2924  16.578  23.341   9.129
 9034POPC   C1B 2925  16.403  22.766   9.326
 9034POPC   C2B 2926  16.494  22.944   9.317
 9034POPC   C3B 2927  16.585  23.122   9.308
 9034POPC   C4B 2928  16.676  23.300   9.298
 9035POPC   NC3 2929  19.595   7.576   0.334
 9035POPC   PO4 2930  19.734   7.540   0.195
 9035POPC   GL1 2931  19.873   7.504   0.056
 9035POPC   GL2 2932  19.815   7.548  -0.013
 9035POPC   C1A 2933  20.012   7.468  -0.084
 9035POPC   D2A 2934  20.150   7.433  -0.223
 9035POPC   C3A 2935  20.289   7.397  -0.363
 9035POPC   C4A 2936  20.428   7.361  -0.502
 9035POPC   C1B 2937  19.926   7.292  -0.124
 9035POPC   C2B 2938  20.065   7.256  -0.263
 9035POPC   C3B 2939  20.204   7.221  -0.403
 9035POPC   C4B 2940  20.342   7.185  -0.542
 9036POPC   NC3 2941  -3.151  12.852   6.413
 9036POPC   PO4 2942  -3.339  12.894   6.361
 9036POPC   GL1 2943  -3.527  12.936   6.309
 9036POPC   GL2 2944  -3.545  12.970   6.401
 9036POPC   C1A 2945  -3.716  12.977   6.256
 9036POPC   D2A 2946  -3.904  13.019   6.204
 9036POPC   C3A 2947  -4.093  13.060   6.151
 9036POPC   C4A 2948  -4.281  13.102   6.099
 9036POPC   C1B 2949  -3.772  12.794   6.314
 9036POPC   C2B 2950  -3.961  12.836   6.261
 9036POPC   C3B 2951  -4.149  12.877   6.209
 9036POPC   C4B 2952  -4.337  12.919   6.157
 9037POPC   NC3 2953   6.933  21.932   3.557
 9037POPC   PO4 2954   6.891  22.099   3.456
 9037POPC   GL1 2955   6.849  22.266   3.355
 9037POPC   GL2 2956   6.912  22.238   3.283
 9037POPC   C1A 2957   6.807  22.434   3.254
 9037POPC   D2A 2958   6.765  22.601   3.153
 9037POPC   C3A 2959   6.723  22.769   3.052
 9037POPC   C4A 2960   6.681  22.936   2.951
 9037POPC   C1B 2961   6.957  22.528   3.348
 9037POPC   C2B 2962   6.915  22.695   3.247
 9037POPC   C3B 2963   6.873  22.863   3.146
 9037POPC   C4B 2964   6.831  23.030   3.045
 9038POPC   NC3 2965  15.970   4.881  21.264
 9038POPC   PO4 2966  16.059   4.811  21.429
 9038POPC   GL1 2967  16.148   4.741  21.594
 9038POPC   GL2 2968  16.232   4.790  21.570
 9038POPC   C1A 2969  16.237   4.671  21.759
 9038POPC   D2A 2970  16.326   4.600  21.923
 9038POPC   C3A 2971  16.415   4.530  22.088
 9038POPC   C4A 2972  16.504   4.460  22.253
 9038POPC   C1B 2973  16.301   4.511  21.656
 9038POPC   C2B 2974  16.390   4.441  21.821
 9038POPC   C3B 2975  16.479   4.371  21.986
 9038POPC   C4B 2976  16.568   4.301  22.150
 9039POPC   NC3 2977   6.451  11.068  23.177
 9039POPC   PO4 2978   6.403  11.085  23.370
 9039POPC   GL1 2979   6.355  11.102  23.563
 9039POPC   GL2 2980   6.359  11.002  23.573
 9039POPC   C1A 2981   6.307  11.119  23.757
 9039POPC   D2A 2982   6.260  11.135  23.950
 9039POPC   C3A 2983   6.212  11.152  24.144
 9039POPC   C4A 2984   6.164  11.169  24.337
 9039POPC   C1B 2985   6.113  11.107  23.710
 9039POPC   C2B 2986   6.066  11.123  23.903
 9039POPC   C3B 2987   6.018  11.140  24.097
 9039POPC   C4B 2988   5.970  11.157  24.290
 9040POPC   NC3 2989   8.414   7.140  23.387
 9040POPC   PO4 2990   8.390   7.094  23.580
 9040POPC   GL1 2991   8.366   7.048  23.773
 9040POPC   GL2 2992   8.465   7.035  23.782
 9040POPC   C1A 2993   8.342   7.002  23.966
 9040POPC   D2A 2994   8.319   6.956  24.160
 9040POPC   C3A 2995   8.295   6.910  24.353
 9040POPC   C4A 2996   8.271   6.864  24.546
 9040POPC   C1B 2997   8.321   6.809  23.918
 9040POPC   C2B 2998   8.297   6.763  24.111
 9040POPC   C3B 2999   8.273   6.717  24.304
 9040POPC   C4B 3000   8.250   6.671  24.497
 9041POPC   NC3 3001  13.279  -1.999  16.019
 9041POPC   PO4 3002  13.333  -2.172  16.103
 9041POPC   GL1 3003  13.387  -2.345  16.187
 9041POPC   GL2 3004  13.480  -2.334  16.150
 9041POPC   C1A 3005  13.442  -2.519  16.270
 9041POPC   D2A 3006  13.496  -2.692  16.354
 9041POPC   C3A 3007  13.551  -2.866  16.437
 9041POPC   C4A 3008  13.605  -3.039  16.521
 9041POPC   C1B 3009  13.388  -2.616  16.104
 9041POPC   C2B 3010  13.442  -2.789  16.188
 9041POPC   C3B 3011  13.496  -2.963  16.271
 9041POPC   C4B 3012  13.551  -3.136  16.355
 9042POPC   NC3 3013   9.036  22.774   4.536
 9042POPC   PO4 3014   9.026  22.958   4.459
 9042POPC   GL1 3015   9.016  23.142   4.382
 9042POPC   GL2 3016   9.109  23.161   4.414
 9042POPC   C1A 3017   9.006  23.326   4.305
 9042POPC   D2A 3018   8.995  23.511   4.227
 9042POPC   C3A 3019   8.985  23.695   4.150
 9042POPC   C4A 3020   8.975  23.879   4.073
 9042POPC   C1B 3021   8.933  23.395   4.478
 9042POPC   C2B 3022   8.923  23.579   4.401
 9042POPC   C3B 3023   8.912  23.763   4.323
 9042POPC   C4B 3024   8.902  23.948   4.246
 9043POPC   NC3 3025  23.001  14.118   8.473
 9043POPC   PO4 3026  23.188  14.186   8.453
 9043POPC   GL1 3027  23.375  14.254   8.433
 9043POPC   GL2 3028  23.367  14.247   8.333
 9043POPC   C1A 3029  23.562  14.322   8.412
 9043POPC   D2A 3030  23.749  14.390   8.392
 9043POPC   C3A 3031  23.936  14.458   8.371
 9043POPC   C4A 3032  24.123  14.526   8.351
 9043POPC   C1B 3033  23.631  14.134   8.420
 9043POPC   C2B 3034  23.818  14.202   8.400
 9043POPC   C3B 3035  24.005  14.270   8.380
 9043POPC   C4B 3036  24.192  14.338   8.359
 9044POPC   NC3 3037  13.262  23.202  12.307
 9044POPC   PO4 3038  13.308  23.393  12.345
 9044POPC   GL1 3039  13.354  23.584  12.383
 9044POPC   GL2 3040  13.403  23.555  12.466
 9044POPC   C1A 3041  13.400  23.775  12.422
 9044POPC   D2A 3042  13.445  23.965  12.460
 9044POPC   C3A 3043  13.491  24.156  12.499
 9044POPC   C4A 3044  13.537  24.347  12.537
 9044POPC   C1B 3045  13.232  23.793  12.529
 9044POPC   C2B 3046  13.278  23.984  12.568
 9044POPC   C3B 3047  13.324  24.175  12.606
 9044POPC   C4B 3048  13.369  24.366  12.644
 9045POPC   NC3 3049  22.009  14.317   4.770
 9045POPC   PO4 3050  22.183  14.380   4.695
 9045POPC   GL1 3051  22.357  14.443   4.620
 9045POPC   GL2 3052  22.309  14.513   4.567
 9045POPC   C1A 3053  22.531  14.506   4.545
 9045POPC   D2A 3054  22.706  14.570   4.469
 9045POPC   C3A 3055  22.880  14.633   4.394
 9045POPC   C4A 3056  23.054  14.696   4.319
 9045POPC   C1B 3057  22.513  14.377   4.393
 9045POPC   C2B 3058  22.687  14.441   4.318
 9045POPC   C3B 3059  22.861  14.504   4.243
 9045POPC   C4B 3060  23.035  14.567   4.167
 9046POPC   NC3 3061   2.724  12.284  -1.641
 9046POPC   PO4 3062   2.617  12.314  -1.808
 9046POPC   GL1 3063   2.510  12.344  -1.975
 9046POPC   GL2 3064   2.478  12.431  -1.938
 9046POPC   C1A 3065   2.404  12.373  -2.141
 9046POPC   D2A 3066   2.297  12.403  -2.308
 9046POPC   C3A 3067   2.191  12.432  -2.474
 9046POPC   C4A 3068   2.084  12.462  -2.641
 9046POPC   C1B 3069   2.248  12.280  -2.058
 9046POPC   C2B 3070   2.141  12.309  -2.224
 9046POPC   C3B 3071   2.035  12.339  -2.391
 9046POPC   C4B 3072   1.928  12.369  -2.558
 9047POPC   NC3 3073  -3.713   8.482  12.133
 9047POPC   PO4 3074  -3.909   8.457  12.166
 9047POPC   GL1 3075  -4.105   8.432  12.199
 9047POPC   GL2 3076  -4.087   8.425  12.298
 9047POPC   C1A 3077  -4.300   8.407  12.233
 9047POPC   D2A 3078  -4.496   8.381  12.266
 9047POPC   C3A 3079  -4.691   8.356  12.300
 9047POPC   C4A 3080  -4.887   8.331  12.333
 9047POPC   C1B 3081  -4.278   8.209  12.214
 9047POPC   C2B 3082  -4.473   8.184  12.248
 9047POPC   C3B 3083  -4.669   8.158  12.281
 9047POPC   C4B 3084  -4.865   8.133  12.314
 9048POPC   NC3 3085   4.278   9.401  -2.746
 9048POPC   PO4 3086   4.197   9.394  -2.929
 9048POPC   GL1 3087   4.116   9.387  -3.112
 9048POPC   GL2 3088   4.079   9.296  -3.092
 9048POPC   C1A 3089   4.034   9.380  -3.294
 9048POPC   D2A 3090   3.953   9.374  -3.477
 9048POPC   C3A 3091   3.871   9.367  -3.659
 9048POPC   C4A 3092   3.790   9.360  -3.842
 9048POPC   C1B 3093   4.201   9.297  -3.366
 9048POPC   C2B 3094   4.120   9.290  -3.548
 9048POPC   C3B 3095   4.039   9.284  -3.731
 9048POPC   C4B 3096   3.957   9.277  -3.913
 9049POPC   NC3 3097  15.419  19.194  18.731
 9049POPC   PO4 3098  15.497  19.330  18.855
 9049POPC   GL1 3099  15.575  19.466  18.979
 9049POPC   GL2 3100  15.664  19.421  18.973
 9049POPC   C1A 3101  15.654  19.602  19.102
 9049POPC   D2A 3102  15.732  19.739  19.226
 9049POPC   C3A 3103  15.811  19.875  19.349
 9049POPC   C4A 3104  15.889  20.011  19.473
 9049POPC   C1B 3105  15.606  19.488  19.259
 9049POPC   C2B 3106  15.684  19.624  19.383
 9049POPC   C3B 3107  15.762  19.760  19.506
 9049POPC   C4B 3108  15.841  19.896  19.630
 9050POPC   NC3 3109   8.733  23.250  13.871
 9050POPC   PO4 3110   8.716  23.441  13.927
 9050POPC   GL1 3111   8.699  23.632  13.983
 9050POPC   GL2 3112   8.766  23.617  14.055
 9050POPC   C1A 3113   8.682  23.823  14.039
 9050POPC   D2A 3114   8.666  24.015  14.095
 9050POPC   C3A 3115   8.649  24.206  14.151
 9050POPC   C4A 3116   8.632  24.397  14.207
 9050POPC   C1B 3117   8.535  23.774  14.165
 9050POPC   C2B 3118   8.518  23.965  14.221
 9050POPC   C3B 3119   8.502  24.156  14.277
 9050POPC   C4B 3120   8.485  24.347  14.333
 9051POPC   NC3 3121  10.432  22.376   3.722
 9051POPC   PO4 3122  10.446  22.554   3.632
 9051POPC   GL1 3123  10.460  22.732   3.542
 9051POPC   GL2 3124  10.505  22.689   3.464
 9051POPC   C1A 3125  10.474  22.910   3.452
 9051POPC   D2A 3126  10.487  23.089   3.363
 9051POPC   C3A 3127  10.501  23.267   3.273
 9051POPC   C4A 3128  10.515  23.445   3.183
 9051POPC   C1B 3129  10.652  22.940   3.538
 9051POPC   C2B 3130  10.666  23.118   3.448
 9051POPC   C3B 3131  10.679  23.296   3.359
 9051POPC   C4B 3132  10.693  23.474   3.269
 9052POPC   NC3 3133   9.135  19.505  -0.043
 9052POPC   PO4 3134   9.125  19.643  -0.187
 9052POPC   GL1 3135   9.115  19.781  -0.331
 9052POPC   GL2 3136   9.199  19.823  -0.297
 9052POPC   C1A 3137   9.105  19.919  -0.475
 9052POPC   D2A 3138   9.094  20.058  -0.620
 9052POPC   C3A 3139   9.084  20.196  -0.764
 9052POPC   C4A 3140   9.074  20.334  -0.908
 9052POPC   C1B 3141   8.998  20.038  -0.355
 9052POPC   C2B 3142   8.988  20.176  -0.499
 9052POPC   C3B 3143   8.977  20.314  -0.643
 9052POPC   C4B 3144   8.967  20.452  -0.787
 9053POPC   NC3 3145  -1.466   5.272  16.529
 9053POPC   PO4 3146  -1.626   5.197  16.622
 9053POPC   GL1 3147  -1.786   5.122  16.715
 9053POPC   GL2 3148  -1.750   5.029  16.703
 9053POPC   C1A 3149  -1.946   5.047  16.809
 9053POPC   D2A 3150  -2.106   4.971  16.902
 9053POPC   C3A 3151  -2.266   4.896  16.996
 9053POPC   C4A 3152  -2.426   4.821  17.089
 9053POPC   C1B 3153  -2.042   5.033  16.634
 9053POPC   C2B 3154  -2.202   4.957  16.727
 9053POPC   C3B 3155  -2.362   4.882  16.820
 9053POPC   C4B 3156  -2.522   4.807  16.914
 9054POPC   NC3 3157   5.575  19.413  19.081
 9054POPC   PO4 3158   5.518  19.550  19.215
 9054POPC   GL1 3159   5.461  19.687  19.349
 9054POPC   GL2 3160   5.530  19.751  19.313
 9054POPC   C1A 3161   5.404  19.825  19.483
 9054POPC   D2A 3162   5.347  19.962  19.616
 9054POPC   C3A 3163   5.290  20.100  19.750
 9054POPC   C4A 3164   5.233  20.237  19.884
 9054POPC   C1B 3165   5.538  19.753  19.613
 9054POPC   C2B 3166   5.481  19.891  19.747
 9054POPC   C3B 3167   5.424  20.028  19.880
 9054POPC   C4B 3168   5.367  20.166  20.014
 9055POPC   NC3 3169  21.922   6.904  15.932
 9055POPC   PO4 3170  22.095   6.861  16.023
 9055POPC   GL1 3171  22.268   6.818  16.114
 9055POPC   GL2 3172  22.298   6.913  16.102
 9055POPC   C1A 3173  22.441   6.775  16.205
 9055POPC   D2A 3174  22.614   6.732  16.295
 9055POPC   C3A 3175  22.787   6.689  16.386
 9055POPC   C4A 3176  22.960   6.646  16.477
 9055POPC   C1B 3177  22.522   6.728  16.028
 9055POPC   C2B 3178  22.695   6.685  16.119
 9055POPC   C3B 3179  22.868   6.642  16.210
 9055POPC   C4B 3180  23.041   6.599  16.300
 9056POPC   NC3 3181  -0.292   6.783  18.800
 9056POPC   PO4 3182  -0.434   6.734  18.933
 9056POPC   GL1 3183  -0.576   6.685  19.066
 9056POPC   GL2 3184  -0.534   6.747  19.133
 9056POPC   C1A 3185  -0.717   6.636  19.198
 9056POPC   D2A 3186  -0.859   6.587  19.331
 9056POPC   C3A 3187  -1.000   6.538  19.463
 9056POPC   C4A 3188  -1.142   6.489  19.596
 9056POPC   C1B 3189  -0.602   6.487  19.266
 9056POPC   C2B 3190  -0.744   6.438  19.398
 9056POPC   C3B 3191  -0.886   6.389  19.531
 9056POPC   C4B 3192  -1.027   6.340  19.664
 9057POPC   NC3 3193  11.002  -3.739  11.194
 9057POPC   PO4 3194  11.014  -3.938  11.213
 9057POPC   GL1 3195  11.026  -4.137  11.232
 9057POPC   GL2 3196  11.116  -4.135  11.187
 9057POPC   C1A 3197  11.039  -4.336  11.250
 9057POPC   D2A 3198  11.051  -4.534  11.269
 9057POPC   C3A 3199  11.064  -4.733  11.287
 9057POPC   C4A 3200  11.076  -4.932  11.306
 9057POPC   C1B 3201  10.951  -4.358  11.072
 9057POPC   C2B 3202  10.963  -4.557  11.091
 9057POPC   C3B 3203  10.975  -4.755  11.109
 9057POPC   C4B 3204  10.988  -4.954  11.128
 9058POPC   NC3 3205   5.932   8.861  23.168
 9058POPC   PO4 3206   5.880   8.852  23.361
 9058POPC   GL1 3207   5.828   8.843  23.554
 9058POPC   GL2 3208   5.924   8.854  23.580
 9058POPC   C1A 3209   5.777   8.834  23.747
 9058POPC   D2A 3210   5.725   8.825  23.940
 9058POPC   C3A 3211   5.674   8.816  24.133
 9058POPC   C4A 3212   5.622   8.807  24.326
 9058POPC   C1B 3213   5.801   8.635  23.744
 9058POPC   C2B 3214   5.749   8.626  23.937
 9058POPC   C3B 3215   5.698   8.617  24.130
 9058POPC   C4B 3216   5.646   8.608  24.323
 9059POPC   NC3 3217  -2.596   4.723  12.768
 9059POPC   PO4 3218  -2.777   4.648  12.807
 9059POPC   GL1 3219  -2.958   4.573  12.846
 9059POPC   GL2 3220  -2.961   4.625  12.932
 9059POPC   C1A 3221  -3.139   4.498  12.886
 9059POPC   D2A 3222  -3.321   4.424  12.925
 9059POPC   C3A 3223  -3.502   4.349  12.965
 9059POPC   C4A 3224  -3.683   4.274  13.004
 9059POPC   C1B 3225  -3.055   4.345  12.982
 9059POPC   C2B 3226  -3.236   4.270  13.021
 9059POPC   C3B 3227  -3.417   4.195  13.061
 9059POPC   C4B 3228  -3.599   4.120  13.100
 9060POPC   NC3 3229  14.131   4.812  -2.212
 9060POPC   PO4 3230  14.195   4.749  -2.390
 9060POPC   GL1 3231  14.259   4.686  -2.568
 9060POPC   GL2 3232  14.219   4.766  -2.612
 9060POPC   C1A 3233  14.324   4.622  -2.747
 9060POPC   D2A 3234  14.388   4.559  -2.925
 9060POPC   C3A 3235  14.453   4.495  -3.104
 9060POPC   C4A 3236  14.517   4.432  -3.282
 9060POPC   C1B 3237  14.153   4.522  -2.773
 9060POPC   C2B 3238  14.217   4.459  -2.952
 9060POPC   C3B 3239  14.281   4.395  -3.130
 9060POPC   C4B 3240  14.346   4.332  -3.308
 9061POPC   NC3 3241   3.531  19.842   2.592
 9061POPC   PO4 3242   3.436  19.987   2.493
 9061POPC   GL1 3243   3.341  20.132   2.394
 9061POPC   GL2 3244   3.391  20.201   2.446
 9061POPC   C1A 3245   3.246  20.277   2.295
 9061POPC   D2A 3246   3.150  20.423   2.195
 9061POPC   C3A 3247   3.055  20.568   2.096
 9061POPC   C4A 3248   2.960  20.713   1.997
 9061POPC   C1B 3249   3.102  20.278   2.433
 9061POPC   C2B 3250   3.006  20.423   2.334
 9061POPC   C3B 3251   2.911  20.568   2.235
 9061POPC   C4B 3252   2.816  20.713   2.136
 9062POPC   NC3 3253   5.136  15.371  21.879
 9062POPC   PO4 3254   5.062  15.449  22.048
 9062POPC   GL1 3255   4.988  15.527  22.217
 9062POPC   GL2 3256   5.027  15.451  22.269
 9062POPC   C1A 3257   4.914  15.604  22.386
 9062POPC   D2A 3258   4.839  15.682  22.554
 9062POPC   C3A 3259   4.765  15.759  22.723
 9062POPC   C4A 3260   4.691  15.837  22.892
 9062POPC   C1B 3261   4.745  15.499  22.360
 9062POPC   C2B 3262   4.671  15.577  22.529
 9062POPC   C3B 3263   4.597  15.655  22.697
 9062POPC   C4B 3264   4.523  15.732  22.866
 9063POPC   NC3 3265   6.881  22.961   5.879
 9063POPC   PO4 3266   6.843  23.148   5.820
 9063POPC   GL1 3267   6.805  23.335   5.761
 9063POPC   GL2 3268   6.860  23.321   5.679
 9063POPC   C1A 3269   6.768  23.523   5.703
 9063POPC   D2A 3270   6.730  23.710   5.644
 9063POPC   C3A 3271   6.693  23.898   5.586
 9063POPC   C4A 3272   6.655  24.085   5.527
 9063POPC   C1B 3273   6.931  23.586   5.800
 9063POPC   C2B 3274   6.893  23.773   5.742
 9063POPC   C3B 3275   6.856  23.961   5.683
 9063POPC   C4B 3276   6.818  24.148   5.624
 9064POPC   NC3 3277  -3.056  14.747  11.595
 9064POPC   PO4 3278  -3.242  14.817  11.619
 9064POPC   GL1 3279  -3.428  14.887  11.643
 9064POPC   GL2 3280  -3.451  14.807  11.699
 9064POPC   C1A 3281  -3.614  14.957  11.666
 9064POPC   D2A 3282  -3.800  15.026  11.690
 9064POPC   C3A 3283  -3.986  15.096  11.713
 9064POPC   C4A 3284  -4.172  15.166  11.737
 9064POPC   C1B 3285  -3.672  14.857  11.503
 9064POPC   C2B 3286  -3.858  14.927  11.526
 9064POPC   C3B 3287  -4.044  14.997  11.550
 9064POPC   C4B 3288  -4.230  15.066  11.574
 9065POPC   NC3 3289  -0.502  13.155  18.594
 9065POPC   PO4 3290  -0.650  13.196  18.723
 9065POPC   GL1 3291  -0.798  13.237  18.852
 9065POPC   GL2 3292  -0.777  13.153  18.902
 9065POPC   C1A 3293  -0.946  13.277  18.980
 9065POPC   D2A 3294  -1.093  13.318  19.109
 9065POPC   C3A 3295  -1.241  13.358  19.237
 9065POPC   C4A 3296  -1.389  13.399  19.366
 9065POPC   C1B 3297  -1.074  13.175  18.865
 9065POPC   C2B 3298  -1.221  13.216  18.994
 9065POPC   C3B 3299  -1.369  13.256  19.122
 9065POPC   C4B 3300  -1.517  13.297  19.251
 9066POPC   NC3 3301   1.738  17.282   1.321
 9066POPC   PO4 3302   1.620  17.387   1.198
 9066POPC   GL1 3303   1.502  17.492   1.075
 9066POPC   GL2 3304   1.583  17.528   1.028
 9066POPC   C1A 3305   1.384  17.597   0.953
 9066POPC   D2A 3306   1.266  17.702   0.830
 9066POPC   C3A 3307   1.148  17.807   0.708
 9066POPC   C4A 3308   1.030  17.912   0.585
 9066POPC   C1B 3309   1.389  17.751   1.080
 9066POPC   C2B 3310   1.271  17.856   0.957
 9066POPC   C3B 3311   1.153  17.961   0.835
 9066POPC   C4B 3312   1.035  18.066   0.712
 9067POPC   NC3 3313  -1.771   6.922  16.952
 9067POPC   PO4 3314  -1.937   6.884  17.057
 9067POPC   GL1 3315  -2.103   6.846  17.162
 9067POPC   GL2 3316  -2.103   6.941  17.195
 9067POPC   C1A 3317  -2.269   6.809  17.267
 9067POPC   D2A 3318  -2.435   6.771  17.372
 9067POPC   C3A 3319  -2.601   6.734  17.477
 9067POPC   C4A 3320  -2.767   6.696  17.582
 9067POPC   C1B 3321  -2.157   6.754  17.424
 9067POPC   C2B 3322  -2.323   6.716  17.529
 9067POPC   C3B 3323  -2.489   6.678  17.634
 9067POPC   C4B 3324  -2.655   6.641  17.739
 9068POPC   NC3 3325   0.496   0.063  12.408
 9068POPC   PO4 3326   0.362  -0.082  12.442
 9068POPC   GL1 3327   0.228  -0.227  12.476
 9068POPC   GL2 3328   0.289  -0.267  12.544
 9068POPC   C1A 3329   0.094  -0.371  12.509
 9068POPC   D2A 3330  -0.040  -0.516  12.543
 9068POPC   C3A 3331  -0.174  -0.660  12.576
 9068POPC   C4A 3332  -0.308  -0.805  12.610
 9068POPC   C1B 3333   0.180  -0.484  12.368
 9068POPC   C2B 3334   0.046  -0.628  12.401
 9068POPC   C3B 3335  -0.088  -0.773  12.435
 9068POPC   C4B 3336  -0.222  -0.917  12.469
 9069POPC   NC3 3337  21.463  16.427  13.946
 9069POPC   PO4 3338  21.629  16.525  14.000
 9069POPC   GL1 3339  21.795  16.623  14.054
 9069POPC   GL2 3340  21.780  16.689  13.981
 9069POPC   C1A 3341  21.961  16.721  14.109
 9069POPC   D2A 3342  22.126  16.819  14.163
 9069POPC   C3A 3343  22.292  16.917  14.218
 9069POPC   C4A 3344  22.458  17.015  14.272
 9069POPC   C1B 3345  22.068  16.608  13.984
 9069POPC   C2B 3346  22.234  16.706  14.039
 9069POPC   C3B 3347  22.400  16.804  14.093
 9069POPC   C4B 3348  22.566  16.902  14.147
 9070POPC   NC3 3349  14.553  21.549   3.938
 9070POPC   PO4 3350  14.618  21.718   3.854
 9070POPC   GL1 3351  14.683  21.887   3.770
 9070POPC   GL2 3352  14.756  21.893   3.838
 9070POPC   C1A 3353  14.749  22.057   3.686
 9070POPC   D2A 3354  14.814  22.226   3.602
 9070POPC   C3A 3355  14.880  22.396   3.518
 9070POPC   C4A 3356  14.945  22.565   3.434
 9070POPC   C1B 3357  14.629  22.163   3.806
 9070POPC   C2B 3358  14.694  22.332   3.722
 9070POPC   C3B 3359  14.759  22.501   3.638
 9070POPC   C4B 3360  14.825  22.671   3.554
 9071POPC   NC3 3361  15.062  22.465  13.045
 9071POPC   PO4 3362  15.133  22.647  13.089
 9071POPC   GL1 3363  15.204  22.829  13.133
 9071POPC   GL2 3364  15.297  22.795  13.125
 9071POPC   C1A 3365  15.274  23.011  13.176
 9071POPC   D2A 3366  15.345  23.193  13.220
 9071POPC   C3A 3367  15.415  23.375  13.263
 9071POPC   C4A 3368  15.486  23.557  13.307
 9071POPC   C1B 3369  15.273  22.965  13.371
 9071POPC   C2B 3370  15.344  23.147  13.414
 9071POPC   C3B 3371  15.415  23.329  13.458
 9071POPC   C4B 3372  15.485  23.511  13.502
 9072POPC   NC3 3373  -1.698   9.725   2.293
 9072POPC   PO4 3374  -1.862   9.719   2.179
 9072POPC   GL1 3375  -2.026   9.713   2.065
 9072POPC   GL2 3376  -2.027   9.613   2.073
 9072POPC   C1A 3377  -2.191   9.706   1.952
 9072POPC   D2A 3378  -2.355   9.700   1.838
 9072POPC   C3A 3379  -2.520   9.693   1.725
 9072POPC   C4A 3380  -2.684   9.687   1.611
 9072POPC   C1B 3381  -2.077   9.693   1.788
 9072POPC   C2B 3382  -2.241   9.687   1.674
 9072POPC   C3B 3383  -2.406   9.681   1.561
 9072POPC   C4B 3384  -2.570   9.674   1.447
 9073POPC   NC3 3385  22.454  15.150   7.628
 9073POPC   PO4 3386  22.634  15.231   7.598
 9073POPC   GL1 3387  22.814  15.312   7.568
 9073POPC   GL2 3388  22.851  15.221   7.546
 9073POPC   C1A 3389  22.995  15.392   7.538
 9073POPC   D2A 3390  23.175  15.473   7.507
 9073POPC   C3A 3391  23.356  15.553   7.477
 9073POPC   C4A 3392  23.536  15.634   7.447
 9073POPC   C1B 3393  23.040  15.363   7.730
 9073POPC   C2B 3394  23.220  15.444   7.700
 9073POPC   C3B 3395  23.401  15.524   7.670
 9073POPC   C4B 3396  23.581  15.605   7.640
 9074POPC   NC3 3397   8.364  23.103   5.593
 9074POPC   PO4 3398   8.344  23.293   5.533
 9074POPC   GL1 3399   8.324  23.483   5.473
 9074POPC   GL2 3400   8.379  23.462   5.391
 9074POPC   C1A 3401   8.305  23.672   5.412
 9074POPC   D2A 3402   8.285  23.862   5.352
 9074POPC   C3A 3403   8.266  24.051   5.291
 9074POPC   C4A 3404   8.246  24.241   5.231
 9074POPC   C1B 3405   8.471  23.721   5.512
 9074POPC   C2B 3406   8.451  23.911   5.452
 9074POPC   C3B 3407   8.432  24.100   5.391
 9074POPC   C4B 3408   8.412  24.290   5.331
 9075POPC   NC3 3409  23.491  10.652  11.963
 9075POPC   PO4 3410  23.689  10.660  11.987
 9075POPC   GL1 3411  23.887  10.668  12.011
 9075POPC   GL2 3412  23.897  10.701  11.917
 9075POPC   C1A 3413  24.086  10.676  12.034
 9075POPC   D2A 3414  24.284  10.685  12.058
 9075POPC   C3A 3415  24.483  10.693  12.081
 9075POPC   C4A 3416  24.681  10.701  12.105
 9075POPC   C1B 3417  24.101  10.488  11.970
 9075POPC   C2B 3418  24.300  10.496  11.993
 9075POPC   C3B 3419  24.498  10.504  12.017
 9075POPC   C4B 3420  24.696  10.512  12.040
 9076POPC   NC3 3421   0.601  12.356  -0.048
 9076POPC   PO4 3422   0.472  12.385  -0.198
 9076POPC   GL1 3423   0.343  12.414  -0.348
 9076POPC   GL2 3424   0.298  12.486  -0.296
 9076POPC   C1A 3425   0.214  12.442  -0.498
 9076POPC   D2A 3426   0.084  12.471  -0.648
 9076POPC   C3A 3427  -0.045  12.499  -0.798
 9076POPC   C4A 3428  -0.174  12.528  -0.948
 9076POPC   C1B 3429   0.090  12.307  -0.417
 9076POPC   C2B 3430  -0.039  12.336  -0.567
 9076POPC   C3B 3431  -0.168  12.364  -0.717
 9076POPC   C4B 3432  -0.297  12.393  -0.867
 9077POPC   NC3 3433   6.424   2.948  -1.565
 9077POPC   PO4 3434   6.370   2.842  -1.726
 9077POPC   GL1 3435   6.316   2.736  -1.887
 9077POPC   GL2 3436   6.392   2.673  -1.871
 9077POPC   C1A 3437   6.262   2.630  -2.048
 9077POPC   D2A 3438   6.209   2.524  -2.208
 9077POPC   C3A 3439   6.155   2.418  -2.369
 9077POPC   C4A 3440   6.101   2.312  -2.530
 9077POPC   C1B 3441   6.381   2.743  -2.162
 9077POPC   C2B 3442   6.327   2.637  -2.323
 9077POPC   C3B 3443   6.273   2.531  -2.484
 9077POPC   C4B 3444   6.220   2.425  -2.644
 9078POPC   NC3 3445  23.624  10.330   9.317
 9078POPC   PO4 3446  23.824  10.332   9.312
 9078POPC   GL1 3447  24.024  10.334   9.307
 9078POPC   GL2 3448  24.022  10.412   9.244
 9078POPC   C1A 3449  24.224  10.336   9.301
 9078POPC   D2A 3450  24.424  10.338   9.296
 9078POPC   C3A 3451  24.624  10.340   9.290
 9078POPC   C4A 3452  24.824  10.342   9.285
 9078POPC   C1B 3453  24.221  10.211   9.145
 9078POPC   C2B 3454  24.421  10.213   9.140
 9078POPC   C3B 3455  24.621  10.215   9.134
 9078POPC   C4B 3456  24.821  10.217   9.129
 9079POPC   NC3 3457  22.358   5.819  14.233
 9079POPC   PO4 3458  22.539   5.761  14.294
 9079POPC   GL1 3459  22.720   5.703  14.355
 9079POPC   GL2 3460  22.759   5.788  14.320
 9079POPC   C1A 3461  22.902   5.645  14.417
 9079POPC   D2A 3462  23.083   5.587  14.478
 9079POPC   C3A 3463  23.265   5.529  14.540
 9079POPC   C4A 3464  23.446   5.471  14.601
 9079POPC   C1B 3465  22.934   5.557  14.240
 9079POPC   C2B 3466  23.115   5.499  14.301
 9079POPC   C3B 3467  23.296   5.441  14.363
 9079POPC   C4B 3468  23.478   5.383  14.424
 9080POPC   NC3 3469   9.262  20.691   1.251
 9080POPC   PO4 3470   9.249  20.846   1.125
 9080POPC   GL1 3471   9.236  21.001   0.999
 9080POPC   GL2 3472   9.335  21.017   1.009
 9080POPC   C1A 3473   9.224  21.156   0.874
 9080POPC   D2A 3474   9.211  21.312   0.748
 9080POPC   C3A 3475   9.199  21.467   0.623
 9080POPC   C4A 3476   9.186  21.622   0.497
 9080POPC   C1B 3477   9.190  21.279   1.028
 9080POPC   C2B 3478   9.177  21.434   0.903
 9080POPC   C3B 3479   9.165  21.589   0.777
 9080POPC   C4B 3480   9.152  21.744   0.651
 9081POPC   NC3 3481  11.938  -1.432   2.352
 9081POPC   PO4 3482  11.968  -1.596   2.242
 9081POPC   GL1 3483  11.998  -1.760   2.132
 9081POPC   GL2 3484  12.025  -1.810   2.214
 9081POPC   C1A 3485  12.027  -1.924   2.022
 9081POPC   D2A 3486  12.057  -2.089   1.911
 9081POPC   C3A 3487  12.086  -2.253   1.801
 9081POPC   C4A 3488  12.116  -2.417   1.691
 9081POPC   C1B 3489  12.217  -1.870   1.991
 9081POPC   C2B 3490  12.247  -2.034   1.881
 9081POPC   C3B 3491  12.276  -2.198   1.771
 9081POPC   C4B 3492  12.306  -2.362   1.661
 9082POPC   NC3 3493  10.141  -3.747   8.083
 9082POPC   PO4 3494  10.138  -3.946   8.062
 9082POPC   GL1 3495  10.135  -4.145   8.041
 9082POPC   GL2 3496  10.231  -4.144   8.014
 9082POPC   C1A 3497  10.132  -4.344   8.021
 9082POPC   D2A 3498  10.128  -4.543   8.000
 9082POPC   C3A 3499  10.125  -4.742   7.980
 9082POPC   C4A 3500  10.122  -4.941   7.959
 9082POPC   C1B 3501  10.076  -4.323   7.830
 9082POPC   C2B 3502  10.073  -4.522   7.809
 9082POPC   C3B 3503  10.070  -4.721   7.789
 9082POPC   C4B 3504  10.067  -4.920   7.768
 9083POPC   NC3 3505   9.488   1.804  21.117
 9083POPC   PO4 3506   9.484   1.688  21.280
 9083POPC   GL1 3507   9.480   1.572  21.443
 9083POPC   GL2 3508   9.574   1.600  21.465
 9083POPC   C1A 3509   9.476   1.457  21.606
 9083POPC   D2A 3510   9.473   1.341  21.770
 9083POPC   C3A 3511   9.469   1.226  21.933
 9083POPC   C4A 3512   9.465   1.110  22.096
 9083POPC   C1B 3513   9.547   1.303  21.499
 9083POPC   C2B 3514   9.543   1.188  21.662
 9083POPC   C3B 3515   9.539   1.072  21.826
 9083POPC   C4B 3516   9.535   0.956  21.989
 9084POPC   NC3 3517  -2.813   6.685   5.306
 9084POPC   PO4 3518  -2.996   6.641   5.237
 9084POPC   GL1 3519  -3.179   6.597   5.168
 9084POPC   GL2 3520  -3.218   6.624   5.256
 9084POPC   C1A 3521  -3.362   6.554   5.100
 9084POPC   D2A 3522  -3.544   6.510   5.031
 9084POPC   C3A 3523  -3.727   6.467   4.963
 9084POPC   C4A 3524  -3.910   6.423   4.894
 9084POPC   C1B 3525  -3.342   6.366   5.167
 9084POPC   C2B 3526  -3.525   6.323   5.098
 9084POPC   C3B 3527  -3.708   6.279   5.029
 9084POPC   C4B 3528  -3.890   6.235   4.961
 9085POPC   NC3 3529  18.038  10.605  -1.220
 9085POPC   PO4 3530  18.152  10.613  -1.384
 9085POPC   GL1 3531  18.266  10.621  -1.548
 9085POPC   GL2 3532  18.238  10.716  -1.563
 9085POPC   C1A 3533  18.380  10.630  -1.712
 9085POPC   D2A 3534  18.494  10.638  -1.877
 9085POPC   C3A 3535  18.608  10.647  -2.041
 9085POPC   C4A 3536  18.722  10.655  -2.205
 9085POPC   C1B 3537  18.226  10.566  -1.823
 9085POPC   C2B 3538  18.340  10.575  -1.987
 9085POPC   C3B 3539  18.454  10.583  -2.151
 9085POPC   C4B 3540  18.568  10.592  -2.315
 9086POPC   NC3 3541   1.717   5.648  20.130
 9086POPC   PO4 3542   1.599   5.581  20.276
 9086POPC   GL1 3543   1.481   5.514  20.422
 9086POPC   GL2 3544   1.561   5.496  20.479
 9086POPC   C1A 3545   1.363   5.446  20.569
 9086POPC   D2A 3546   1.244   5.379  20.715
 9086POPC   C3A 3547   1.126   5.311  20.862
 9086POPC   C4A 3548   1.008   5.244  21.008
 9086POPC   C1B 3549   1.375   5.261  20.493
 9086POPC   C2B 3550   1.256   5.194  20.640
 9086POPC   C3B 3551   1.138   5.127  20.786
 9086POPC   C4B 3552   1.020   5.059  20.933
 9087POPC   NC3 3553  22.308  10.130   3.885
 9087POPC   PO4 3554  22.487  10.133   3.795
 9087POPC   GL1 3555  22.666  10.136   3.705
 9087POPC   GL2 3556  22.658  10.038   3.687
 9087POPC   C1A 3557  22.844  10.139   3.615
 9087POPC   D2A 3558  23.023  10.142   3.525
 9087POPC   C3A 3559  23.201  10.145   3.435
 9087POPC   C4A 3560  23.380  10.148   3.345
 9087POPC   C1B 3561  22.933  10.101   3.790
 9087POPC   C2B 3562  23.112  10.104   3.700
 9087POPC   C3B 3563  23.290  10.107   3.610
 9087POPC   C4B 3564  23.469  10.110   3.520
 9088POPC   NC3 3565  10.219  12.815  23.484
 9088POPC   PO4 3566  10.225  12.859  23.679
 9088POPC   GL1 3567  10.231  12.903  23.874
 9088POPC   GL2 3568  10.288  12.822  23.891
 9088POPC   C1A 3569  10.238  12.948  24.069
 9088POPC   D2A 3570  10.244  12.992  24.264
 9088POPC   C3A 3571  10.251  13.037  24.459
 9088POPC   C4A 3572  10.257  13.081  24.654
 9088POPC   C1B 3573  10.072  12.840  24.099
 9088POPC   C2B 3574  10.079  12.884  24.294
 9088POPC   C3B 3575  10.085  12.928  24.489
 9088POPC   C4B 3576  10.092  12.973  24.684
 9089POPC   NC3 3577   3.671  15.186  -1.305
 9089POPC   PO4 3578   3.580  15.260  -1.467
 9089POPC   GL1 3579   3.489  15.334  -1.629
 9089POPC   GL2 3580   3.453  15.410  -1.575
 9089POPC   C1A 3581   3.398  15.408  -1.791
 9089POPC   D2A 3582   3.307  15.481  -1.954
 9089POPC   C3A 3583   3.216  15.555  -2.116
 9089POPC   C4A 3584   3.125  15.629  -2.278
 9089POPC   C1B 3585   3.235  15.300  -1.749
 9089POPC   C2B 3586   3.144  15.374  -1.911
 9089POPC   C3B 3587   3.053  15.448  -2.073
 9089POPC   C4B 3588   2.962  15.521  -2.235
 9090POPC   NC3 3589   4.929  -2.589  13.049
 9090POPC   PO4 3590   4.858  -2.771  13.091
 9090POPC   GL1 3591   4.787  -2.953  13.133
 9090POPC   GL2 3592   4.877  -2.993  13.115
 9090POPC   C1A 3593   4.715  -3.135  13.175
 9090POPC   D2A 3594   4.644  -3.317  13.217
 9090POPC   C3A 3595   4.572  -3.499  13.259
 9090POPC   C4A 3596   4.501  -3.681  13.301
 9090POPC   C1B 3597   4.665  -3.160  12.983
 9090POPC   C2B 3598   4.594  -3.342  13.025
 9090POPC   C3B 3599   4.522  -3.524  13.067
 9090POPC   C4B 3600   4.451  -3.706  13.109
 9091POPC   NC3 3601  -2.046  14.259  15.686
 9091POPC   PO4 3602  -2.217  14.321  15.770
 9091POPC   GL1 3603  -2.388  14.383  15.854
 9091POPC   GL2 3604  -2.336  14.416  15.934
 9091POPC   C1A 3605  -2.558  14.445  15.938
 9091POPC   D2A 3606  -2.729  14.506  16.023
 9091POPC   C3A 3607  -2.899  14.568  16.107
 9091POPC   C4A 3608  -3.070  14.630  16.191
 9091POPC   C1B 3609  -2.579  14.266  16.026
 9091POPC   C2B 3610  -2.750  14.328  16.110
 9091POPC   C3B 3611  -2.921  14.390  16.195
 9091POPC   C4B 3612  -3.091  14.452  16.279
 9092POPC   NC3 3613   7.959  17.613  21.358
 9092POPC   PO4 3614   7.930  17.728  21.519
 9092POPC   GL1 3615   7.901  17.843  21.680
 9092POPC   GL2 3616   7.996  17.874  21.675
 9092POPC   C1A 3617   7.872  17.958  21.841
 9092POPC   D2A 3618   7.842  18.073  22.002
 9092POPC   C3A 3619   7.813  18.188  22.163
 9092POPC   C4A 3620   7.784  18.303  22.324
 9092POPC   C1B 3621   7.926  17.806  21.959
 9092POPC   C2B 3622   7.897  17.921  22.120
 9092POPC   C3B 3623   7.868  18.036  22.281
 9092POPC   C4B 3624   7.839  18.151  22.442
 9093POPC   NC3 3625   2.029  11.651  -1.277
 9093POPC   PO4 3626   1.915  11.674  -1.440
 9093POPC   GL1 3627   1.801  11.697  -1.603
 9093POPC   GL2 3628   1.752  11.772  -1.558
 9093POPC   C1A 3629   1.687  11.720  -1.765
 9093POPC   D2A 3630   1.572  11.742  -1.928
 9093POPC   C3A 3631   1.458  11.765  -2.090
 9093POPC   C4A 3632   1.344  11.788  -2.253
 9093POPC   C1B 3633   1.555  11.589  -1.691
 9093POPC   C2B 3634   1.441  11.611  -1.854
 9093POPC   C3B 3635   1.326  11.634  -2.016
 9093POPC   C4B 3636   1.212  11.657  -2.179
 9094POPC   NC3 3637  10.924  19.456  -0.073
 9094POPC   PO4 3638  10.935  19.591  -0.220
 9094POPC   GL1 3639  10.946  19.726  -0.367
 9094POPC   GL2 3640  11.041  19.745  -0.342
 9094POPC   C1A 3641  10.957  19.861  -0.514
 9094POPC   D2A 3642  10.968  19.997  -0.660
 9094POPC   C3A 3643  10.979  20.132  -0.807
 9094POPC   C4A 3644  10.990  20.267  -0.954
 9094POPC   C1B 3645  10.896  20.004  -0.387
 9094POPC   C2B 3646  10.907  20.139  -0.534
 9094POPC   C3B 3647  10.918  20.274  -0.681
 9094POPC   C4B 3648  10.929  20.409  -0.827
 9095POPC   NC3 3649  18.556  18.098  16.999
 9095POPC   PO4 3650  18.682  18.222  17.093
 9095POPC   GL1 3651  18.808  18.346  17.187
 9095POPC   GL2 3652  18.885  18.299  17.146
 9095POPC   C1A 3653  18.933  18.470  17.282
 9095POPC   D2A 3654  19.059  18.593  17.376
 9095POPC   C3A 3655  19.184  18.717  17.471
 9095POPC   C4A 3656  19.310  18.841  17.565
 9095POPC   C1B 3657  18.940  18.344  17.437
 9095POPC   C2B 3658  19.066  18.468  17.531
 9095POPC   C3B 3659  19.192  18.591  17.626
 9095POPC   C4B 3660  19.317  18.715  17.720
 9096POPC   NC3 3661  15.329  11.190  -2.728
 9096POPC   PO4 3662  15.413  11.201  -2.909
 9096POPC   GL1 3663  15.497  11.212  -3.090
 9096POPC   GL2 3664  15.442  11.135  -3.120
 9096POPC   C1A 3665  15.581  11.223  -3.271
 9096POPC   D2A 3666  15.666  11.235  -3.452
 9096POPC   C3A 3667  15.750  11.246  -3.633
 9096POPC   C4A 3668  15.834  11.257  -3.814
 9096POPC   C1B 3669  15.725  11.098  -3.212
 9096POPC   C2B 3670  15.810  11.109  -3.393
 9096POPC   C3B 3671  15.894  11.120  -3.574
 9096POPC   C4B 3672  15.978  11.132  -3.755
 9097POPC   NC3 3673  -2.030   8.556  16.917
 9097POPC   PO4 3674  -2.202   8.541  17.018
 9097POPC   GL1 3675  -2.374   8.526  17.119
 9097POPC   GL2 3676  -2.376   8.625  17.131
 9097POPC   C1A 3677  -2.546   8.511  17.220
 9097POPC   D2A 3678  -2.719   8.496  17.320
 9097POPC   C3A 3679  -2.891   8.481  17.421
 9097POPC   C4A 3680  -3.063   8.466  17.522
 9097POPC   C1B 3681  -2.445   8.493  17.391
 9097POPC   C2B 3682  -2.617   8.478  17.492
 9097POPC   C3B 3683  -2.789   8.463  17.592
 9097POPC   C4B 3684  -2.961   8.448  17.693
 9098POPC   NC3 3685  21.752  16.425  12.935
 9098POPC   PO4 3686  21.923  16.520  12.977
 9098POPC   GL1 3687  22.094  16.615  13.019
 9098POPC   GL2 3688  22.078  16.678  12.943
 9098POPC   C1A 3689  22.265  16.709  13.061
 9098POPC   D2A 3690  22.437  16.804  13.102
 9098POPC   C3A 3691  22.608  16.898  13.144
 9098POPC   C4A 3692  22.779  16.993  13.186
 9098POPC   C1B 3693  22.364  16.586  12.937
 9098POPC   C2B 3694  22.535  16.681  12.979
 9098POPC   C3B 3695  22.706  16.775  13.021
 9098POPC   C4B 3696  22.877  16.870  13.063
 9099POPC   NC3 3697  23.427  12.786   9.985
 9099POPC   PO4 3698  23.624  12.820   9.990
 9099POPC   GL1 3699  23.821  12.854   9.995
 9099POPC   GL2 3700  23.824  12.850   9.895
 9099POPC   C1A 3701  24.018  12.888  10.000
 9099POPC   D2A 3702  24.215  12.922  10.004
 9099POPC   C3A 3703  24.412  12.956  10.009
 9099POPC   C4A 3704  24.609  12.990  10.014
 9099POPC   C1B 3705  24.052  12.691  10.009
 9099POPC   C2B 3706  24.249  12.725  10.013
 9099POPC   C3B 3707  24.446  12.759  10.018
 9099POPC   C4B 3708  24.643  12.793  10.023
 9100POPC   NC3 3709  14.588  21.141   3.221
 9100POPC   PO4 3710  14.659  21.302   3.126
 9100POPC   GL1 3711  14.730  21.463   3.031
 9100POPC   GL2 3712  14.791  21.481   3.107
 9100POPC   C1A 3713  14.800  21.624   2.935
 9100POPC   D2A 3714  14.871  21.785   2.840
 9100POPC   C3A 3715  14.941  21.946   2.744
 9100POPC   C4A 3716  15.012  22.107   2.649
 9100POPC   C1B 3717  14.660  21.737   3.022
 9100POPC   C2B 3718  14.730  21.898   2.926
 9100POPC   C3B 3719  14.801  22.059   2.831
 9100POPC   C4B 3720  14.871  22.220   2.736
 9101POPC   NC3 3721  10.015  22.281   3.499
 9101POPC   PO4 3722  10.020  22.457   3.404
 9101POPC   GL1 3723  10.025  22.633   3.309
 9101POPC   GL2 3724  10.098  22.599   3.250
 9101POPC   C1A 3725  10.029  22.809   3.214
 9101POPC   D2A 3726  10.034  22.984   3.118
 9101POPC   C3A 3727  10.038  23.160   3.023
 9101POPC   C4A 3728  10.043  23.336   2.928
 9101POPC   C1B 3729  10.166  22.875   3.343
 9101POPC   C2B 3730  10.171  23.051   3.248
 9101POPC   C3B 3731  10.175  23.227   3.153
 9101POPC   C4B 3732  10.180  23.403   3.058
 9102POPC   NC3 3733  14.671   4.898  -2.034
 9102POPC   PO4 3734  14.743   4.835  -2.209
 9102POPC   GL1 3735  14.815   4.772  -2.384
 9102POPC   GL2 3736  14.859   4.861  -2.399
 9102POPC   C1A 3737  14.888   4.709  -2.560
 9102POPC   D2A 3738  14.960   4.645  -2.735
 9102POPC   C3A 3739  15.033   4.582  -2.911
 9102POPC   C4A 3740  15.105   4.519  -3.086
 9102POPC   C1B 3741  14.723   4.774  -2.652
 9102POPC   C2B 3742  14.795   4.711  -2.827
 9102POPC   C3B 3743  14.868   4.648  -3.002
 9102POPC   C4B 3744  14.940   4.585  -3.178
 9103POPC   NC3 3745   2.888  20.541   4.515
 9103POPC   PO4 3746   2.785  20.695   4.439
 9103POPC   GL1 3747   2.682  20.849   4.363
 9103POPC   GL2 3748   2.765  20.904   4.363
 9103POPC   C1A 3749   2.579  21.002   4.287
 9103POPC   D2A 3750   2.475  21.156   4.211
 9103POPC   C3A 3751   2.372  21.309   4.135
 9103POPC   C4A 3752   2.269  21.463   4.059
 9103POPC   C1B 3753   2.536  21.065   4.472
 9103POPC   C2B 3754   2.433  21.219   4.396
 9103POPC   C3B 3755   2.330  21.372   4.320
 9103POPC   C4B 3756   2.227  21.526   4.244
 9104POPC   NC3 3757   3.892  18.453  19.143
 9104POPC   PO4 3758   3.808  18.575  19.277
 9104POPC   GL1 3759   3.724  18.697  19.411
 9104POPC   GL2 3760   3.767  18.645  19.485
 9104POPC   C1A 3761   3.640  18.819  19.546
 9104POPC   D2A 3762   3.555  18.941  19.680
 9104POPC   C3A 3763   3.471  19.063  19.815
 9104POPC   C4A 3764   3.387  19.185  19.949
 9104POPC   C1B 3765   3.480  18.699  19.554
 9104POPC   C2B 3766   3.395  18.821  19.688
 9104POPC   C3B 3767   3.311  18.943  19.823
 9104POPC   C4B 3768   3.227  19.065  19.957
 9105POPC   NC3 3769   2.579  12.663  21.357
 9105POPC   PO4 3770   2.468  12.707  21.518
 9105POPC   GL1 3771   2.357  12.751  21.679
 9105POPC   GL2 3772   2.430  12.717  21.738
 9105POPC   C1A 3773   2.246  12.795  21.839
 9105POPC   D2A 3774   2.136  12.839  22.000
 9105POPC   C3A 3775   2.025  12.883  22.160
 9105POPC   C4A 3776   1.914  12.927  22.321
 9105POPC   C1B 3777   2.165  12.612  21.833
 9105POPC   C2B 3778   2.054  12.656  21.994
 9105POPC   C3B 3779   1.943  12.700  22.154
 9105POPC   C4B 3780   1.833  12.744  22.315
 9106POPC   NC3 3781   7.342  -1.467   2.588
 9106POPC   PO4 3782   7.309  -1.634   2.482
 9106POPC   GL1 3783   7.276  -1.801   2.376
 9106POPC   GL2 3784   7.371  -1.799   2.345
 9106POPC   C1A 3785   7.244  -1.967   2.270
 9106POPC   D2A 3786   7.211  -2.134   2.165
 9106POPC   C3A 3787   7.179  -2.300   2.059
 9106POPC   C4A 3788   7.146  -2.467   1.953
 9106POPC   C1B 3789   7.189  -1.857   2.113
 9106POPC   C2B 3790   7.157  -2.023   2.007
 9106POPC   C3B 3791   7.124  -2.190   1.901
 9106POPC   C4B 3792   7.092  -2.356   1.795
 9107POPC   NC3 3793   4.829  22.842  11.240
 9107POPC   PO4 3794   4.754  23.026  11.261
 9107POPC   GL1 3795   4.679  23.210  11.282
 9107POPC   GL2 3796   4.760  23.248  11.237
 9107POPC   C1A 3797   4.605  23.395  11.304
 9107POPC   D2A 3798   4.530  23.579  11.325
 9107POPC   C3A 3799   4.456  23.764  11.347
 9107POPC   C4A 3800   4.381  23.948  11.368
 9107POPC   C1B 3801   4.697  23.412  11.480
 9107POPC   C2B 3802   4.623  23.596  11.502
 9107POPC   C3B 3803   4.548  23.780  11.523
 9107POPC   C4B 3804   4.473  23.965  11.545
 9108POPC   NC3 3805  -0.300   1.856  14.702
 9108POPC   PO4 3806  -0.449   1.742  14.771
 9108POPC   GL1 3807  -0.598   1.628  14.840
 9108POPC   GL2 3808  -0.615   1.694  14.913
 9108POPC   C1A 3809  -0.747   1.514  14.908
 9108POPC   D2A 3810  -0.897   1.399  14.977
 9108POPC   C3A 3811  -1.046   1.285  15.045
 9108POPC   C4A 3812  -1.195   1.171  15.114
 9108POPC   C1B 3813  -0.618   1.416  15.026
 9108POPC   C2B 3814  -0.768   1.302  15.095
 9108POPC   C3B 3815  -0.917   1.188  15.163
 9108POPC   C4B 3816  -1.066   1.074  15.232
 9109POPC   NC3 3817  11.565  12.597  -3.565
 9109POPC   PO4 3818  11.589  12.639  -3.759
 9109POPC   GL1 3819  11.613  12.681  -3.953
 9109POPC   GL2 3820  11.583  12.589  -3.977
 9109POPC   C1A 3821  11.638  12.724  -4.147
 9109POPC   D2A 3822  11.662  12.766  -4.341
 9109POPC   C3A 3823  11.687  12.809  -4.535
 9109POPC   C4A 3824  11.711  12.851  -4.729
 9109POPC   C1B 3825  11.827  12.660  -4.137
 9109POPC   C2B 3826  11.851  12.702  -4.331
 9109POPC   C3B 3827  11.876  12.744  -4.525
 9109POPC   C4B 3828  11.900  12.787  -4.719
 9110POPC   NC3 3829  13.741  19.620   0.657
 9110POPC   PO4 3830  13.798  19.758   0.524
 9110POPC   GL1 3831  13.855  19.896   0.391
 9110POPC   GL2 3832  13.900  19.826   0.337
 9110POPC   C1A 3833  13.912  20.035   0.259
 9110POPC   D2A 3834  13.968  20.173   0.126
 9110POPC   C3A 3835  14.025  20.312  -0.006
 9110POPC   C4A 3836  14.082  20.450  -0.139
 9110POPC   C1B 3837  14.081  20.064   0.362
 9110POPC   C2B 3838  14.137  20.202   0.229
 9110POPC   C3B 3839  14.194  20.341   0.096
 9110POPC   C4B 3840  14.251  20.479  -0.036
 9111POPC   NC3 3841  15.060   2.945  20.701
 9111POPC   PO4 3842  15.137   2.841  20.854
 9111POPC   GL1 3843  15.214   2.737  21.007
 9111POPC   GL2 3844  15.258   2.675  20.942
 9111POPC   C1A 3845  15.291   2.634  21.160
 9111POPC   D2A 3846  15.367   2.530  21.312
 9111POPC   C3A 3847  15.444   2.427  21.465
 9111POPC   C4A 3848  15.521   2.323  21.618
 9111POPC   C1B 3849  15.128   2.517  21.162
 9111POPC   C2B 3850  15.205   2.413  21.315
 9111POPC   C3B 3851  15.282   2.310  21.467
 9111POPC   C4B 3852  15.359   2.206  21.620
 9112POPC   NC3 3853  -3.256  14.441  10.650
 9112POPC   PO4 3854  -3.445  14.506  10.661
 9112POPC   GL1 3855  -3.634  14.571  10.672
 9112POPC   GL2 3856  -3.659  14.489  10.725
 9112POPC   C1A 3857  -3.823  14.636  10.684
 9112POPC   D2A 3858  -4.011  14.700  10.695
 9112POPC   C3A 3859  -4.200  14.765  10.707
 9112POPC   C4A 3860  -4.389  14.830  10.718
 9112POPC   C1B 3861  -3.866  14.539  10.514
 9112POPC   C2B 3862  -4.055  14.604  10.525
 9112POPC   C3B 3863  -4.244  14.669  10.537
 9112POPC   C4B 3864  -4.432  14.734  10.548
 9113POPC   NC3 3865   7.834   1.795  -1.105
 9113POPC   PO4 3866   7.803   1.673  -1.260
 9113POPC   GL1 3867   7.772   1.551  -1.415
 9113POPC   GL2 3868   7.843   1.489  -1.380
 9113POPC   C1A 3869   7.741   1.428  -1.570
 9113POPC   D2A 3870   7.711   1.306  -1.726
 9113POPC   C3A 3871   7.680   1.183  -1.881
 9113POPC   C4A 3872   7.649   1.061  -2.036
 9113POPC   C1B 3873   7.880   1.527  -1.676
 9113POPC   C2B 3874   7.849   1.405  -1.831
 9113POPC   C3B 3875   7.818   1.282  -1.986
 9113POPC   C4B 3876   7.787   1.160  -2.141
 9114POPC   NC3 3877   1.946  10.323  -1.343
 9114POPC   PO4 3878   1.830  10.331  -1.506
 9114POPC   GL1 3879   1.714  10.339  -1.669
 9114POPC   GL2 3880   1.650  10.399  -1.620
 9114POPC   C1A 3881   1.598  10.347  -1.831
 9114POPC   D2A 3882   1.481  10.355  -1.994
 9114POPC   C3A 3883   1.365  10.363  -2.156
 9114POPC   C4A 3884   1.249  10.371  -2.319
 9114POPC   C1B 3885   1.497  10.187  -1.767
 9114POPC   C2B 3886   1.380  10.195  -1.929
 9114POPC   C3B 3887   1.264  10.203  -2.092
 9114POPC   C4B 3888   1.148  10.211  -2.255
 9115POPC   NC3 3889  16.430  13.474  21.572
 9115POPC   PO4 3890  16.541  13.527  21.729
 9115POPC   GL1 3891  16.652  13.580  21.886
 9115POPC   GL2 3892  16.666  13.671  21.846
 9115POPC   C1A 3893  16.764  13.633  22.044
 9115POPC   D2A 3894  16.875  13.686  22.201
 9115POPC   C3A 3895  16.987  13.739  22.359
 9115POPC   C4A 3896  17.098  13.792  22.516
 9115POPC   C1B 3897  16.928  13.567  21.950
 9115POPC   C2B 3898  17.039  13.620  22.108
 9115POPC   C3B 3899  17.150  13.673  22.265
 9115POPC   C4B 3900  17.262  13.726  22.422
 9116POPC   NC3 3901   5.017   1.472   0.198
 9116POPC   PO4 3902   4.936   1.351   0.060
 9116POPC   GL1 3903   4.855   1.230  -0.078
 9116POPC   GL2 3904   4.820   1.171  -0.005
 9116POPC   C1A 3905   4.774   1.110  -0.215
 9116POPC   D2A 3906   4.694   0.989  -0.353
 9116POPC   C3A 3907   4.613   0.869  -0.490
 9116POPC   C4A 3908   4.532   0.748  -0.628
 9116POPC   C1B 3909   4.944   1.003  -0.221
 9116POPC   C2B 3910   4.863   0.883  -0.359
 9116POPC   C3B 3911   4.782   0.762  -0.496
 9116POPC   C4B 3912   4.701   0.642  -0.634
 9117POPC   NC3 3913  18.585  -0.112   6.160
 9117POPC   PO4 3914  18.710  -0.258   6.106
 9117POPC   GL1 3915  18.835  -0.404   6.052
 9117POPC   GL2 3916  18.865  -0.350   5.973
 9117POPC   C1A 3917  18.961  -0.550   5.998
 9117POPC   D2A 3918  19.086  -0.697   5.943
 9117POPC   C3A 3919  19.212  -0.843   5.889
 9117POPC   C4A 3920  19.337  -0.989   5.835
 9117POPC   C1B 3921  18.816  -0.633   5.887
 9117POPC   C2B 3922  18.942  -0.779   5.832
 9117POPC   C3B 3923  19.067  -0.925   5.778
 9117POPC   C4B 3924  19.193  -1.072   5.724
 9118POPC   NC3 3925   0.979   2.743   2.162
 9118POPC   PO4 3926   0.859   2.639   2.041
 9118POPC   GL1 3927   0.739   2.535   1.920
 9118POPC   GL2 3928   0.683   2.508   1.998
 9118POPC   C1A 3929   0.619   2.431   1.798
 9118POPC   D2A 3930   0.498   2.326   1.677
 9118POPC   C3A 3931   0.378   2.222   1.555
 9118POPC   C4A 3932   0.258   2.118   1.434
 9118POPC   C1B 3933   0.732   2.268   1.825
 9118POPC   C2B 3934   0.612   2.164   1.703
 9118POPC   C3B 3935   0.492   2.060   1.582
 9118POPC   C4B 3936   0.372   1.956   1.460
 9119POPC   NC3 3937  11.617   6.296  -3.289
 9119POPC   PO4 3938  11.636   6.239  -3.480
 9119POPC   GL1 3939  11.655   6.182  -3.671
 9119POPC   GL2 3940  11.668   6.277  -3.698
 9119POPC   C1A 3941  11.674   6.124  -3.861
 9119POPC   D2A 3942  11.693   6.067  -4.052
 9119POPC   C3A 3943  11.712   6.009  -4.242
 9119POPC   C4A 3944  11.731   5.952  -4.433
 9119POPC   C1B 3945  11.477   6.145  -3.887
 9119POPC   C2B 3946  11.496   6.087  -4.078
 9119POPC   C3B 3947  11.515   6.030  -4.268
 9119POPC   C4B 3948  11.534   5.973  -4.459
 9120POPC   NC3 3949   0.461  16.626   2.165
 9120POPC   PO4 3950   0.323  16.722   2.056
 9120POPC   GL1 3951   0.185  16.818   1.947
 9120POPC   GL2 3952   0.237  16.902   1.956
 9120POPC   C1A 3953   0.047  16.913   1.838
 9120POPC   D2A 3954  -0.091  17.009   1.730
 9120POPC   C3A 3955  -0.229  17.104   1.621
 9120POPC   C4A 3956  -0.367  17.200   1.512
 9120POPC   C1B 3957  -0.053  16.959   2.005
 9120POPC   C2B 3958  -0.191  17.054   1.897
 9120POPC   C3B 3959  -0.329  17.150   1.788
 9120POPC   C4B 3960  -0.467  17.246   1.679
 9121POPC   NC3 3961  -1.690   6.186   3.162
 9121POPC   PO4 3962  -1.858   6.141   3.064
 9121POPC   GL1 3963  -2.026   6.096   2.966
 9121POPC   GL2 3964  -2.080   6.119   3.047
 9121POPC   C1A 3965  -2.194   6.051   2.868
 9121POPC   D2A 3966  -2.363   6.005   2.769
 9121POPC   C3A 3967  -2.531   5.960   2.671
 9121POPC   C4A 3968  -2.699   5.915   2.573
 9121POPC   C1B 3969  -2.181   5.861   2.931
 9121POPC   C2B 3970  -2.349   5.816   2.833
 9121POPC   C3B 3971  -2.517   5.771   2.735
 9121POPC   C4B 3972  -2.685   5.726   2.636
 9122POPC   NC3 3973  -0.806  14.934   2.556
 9122POPC   PO4 3974  -0.964  15.011   2.461
 9122POPC   GL1 3975  -1.122  15.088   2.366
 9122POPC   GL2 3976  -1.083  15.180   2.375
 9122POPC   C1A 3977  -1.281  15.165   2.272
 9122POPC   D2A 3978  -1.439  15.243   2.177
 9122POPC   C3A 3979  -1.598  15.320   2.083
 9122POPC   C4A 3980  -1.756  15.397   1.988
 9122POPC   C1B 3981  -1.374  15.188   2.447
 9122POPC   C2B 3982  -1.533  15.266   2.352
 9122POPC   C3B 3983  -1.691  15.343   2.258
 9122POPC   C4B 3984  -1.850  15.420   2.163
 9123POPC   NC3 3985  10.955  16.365  -2.289
 9123POPC   PO4 3986  10.974  16.455  -2.466
 9123POPC   GL1 3987  10.993  16.545  -2.643
 9123POPC   GL2 3988  10.995  16.456  -2.689
 9123POPC   C1A 3989  11.012  16.636  -2.821
 9123POPC   D2A 3990  11.031  16.726  -2.998
 9123POPC   C3A 3991  11.050  16.817  -3.176
 9123POPC   C4A 3992  11.069  16.907  -3.353
 9123POPC   C1B 3993  11.211  16.631  -2.802
 9123POPC   C2B 3994  11.230  16.721  -2.979
 9123POPC   C3B 3995  11.249  16.811  -3.157
 9123POPC   C4B 3996  11.268  16.902  -3.334
 9124POPC   NC3 3997   4.702  15.922  21.393
 9124POPC   PO4 3998   4.620  16.009  21.553
 9124POPC   GL1 3999   4.538  16.096  21.713
 9124POPC   GL2 4000   4.587  16.033  21.773
 9124POPC   C1A 4001   4.455  16.183  21.873
 9124POPC   D2A 4002   4.373  16.269  22.034
 9124POPC   C3A 4003   4.290  16.356  22.194
 9124POPC   C4A 4004   4.208  16.443  22.354
 9124POPC   C1B 4005   4.302  16.054  21.864
 9124POPC   C2B 4006   4.220  16.141  22.024
 9124POPC   C3B 4007   4.137  16.228  22.185
 9124POPC   C4B 4008   4.055  16.315  22.345
 9125POPC   NC3 4009  10.898  23.187  14.010
 9125POPC   PO4 4010  10.916  23.379  14.064
 9125POPC   GL1 4011  10.934  23.571  14.118
 9125POPC   GL2 4012  11.033  23.564  14.108
 9125POPC   C1A 4013  10.952  23.762  14.172
 9125POPC   D2A 4014  10.971  23.954  14.227
 9125POPC   C3A 4015  10.989  24.145  14.281
 9125POPC   C4A 4016  11.007  24.337  14.335
 9125POPC   C1B 4017  10.969  23.706  14.364
 9125POPC   C2B 4018  10.987  23.898  14.418
 9125POPC   C3B 4019  11.005  24.090  14.472
 9125POPC   C4B 4020  11.024  24.281  14.526
 9126POPC   NC3 4021   8.331   9.572  -3.815
 9126POPC   PO4 4022   8.309   9.565  -4.014
 9126POPC   GL1 4023   8.287   9.558  -4.213
 9126POPC   GL2 4024   8.197   9.514  -4.201
 9126POPC   C1A 4025   8.265   9.551  -4.411
 9126POPC   D2A 4026   8.242   9.543  -4.610
 9126POPC   C3A 4027   8.220   9.536  -4.808
 9126POPC   C4A 4028   8.198   9.529  -5.007
 9126POPC   C1B 4029   8.352   9.371  -4.414
 9126POPC   C2B 4030   8.329   9.363  -4.613
 9126POPC   C3B 4031   8.307   9.356  -4.811
 9126POPC   C4B 4032   8.285   9.349  -5.010
 9127POPC   NC3 4033  -0.771   1.294  11.948
 9127POPC   PO4 4034  -0.924   1.169  11.977
 9127POPC   GL1 4035  -1.077   1.044  12.006
 9127POPC   GL2 4036  -1.034   1.011  12.090
 9127POPC   C1A 4037  -1.230   0.919  12.036
 9127POPC   D2A 4038  -1.384   0.793  12.065
 9127POPC   C3A 4039  -1.537   0.668  12.095
 9127POPC   C4A 4040  -1.690   0.543  12.124
 9127POPC   C1B 4041  -1.135   0.777  11.931
 9127POPC   C2B 4042  -1.288   0.652  11.961
 9127POPC   C3B 4043  -1.441   0.527  11.990
 9127POPC   C4B 4044  -1.594   0.402  12.020
 9128POPC   NC3 4045  20.952   1.758   8.982
 9128POPC   PO4 4046  21.114   1.641   8.965
 9128POPC   GL1 4047  21.276   1.524   8.948
 9128POPC   GL2 4048  21.231   1.473   8.875
 9128POPC   C1A 4049  21.437   1.407   8.932
 9128POPC   D2A 4050  21.599   1.291   8.915
 9128POPC   C3A 4051  21.760   1.174   8.899
 9128POPC   C4A 4052  21.922   1.057   8.882
 9128POPC   C1B 4053  21.360   1.281   9.067
 9128POPC   C2B 4054  21.522   1.165   9.050
 9128POPC   C3B 4055  21.683   1.048   9.033
 9128POPC   C4B 4056  21.845   0.931   9.017
 9129POPC   NC3 4057  18.918  -0.522   9.817
 9129POPC   PO4 4058  19.050  -0.673   9.817
 9129POPC   GL1 4059  19.182  -0.824   9.817
 9129POPC   GL2 4060  19.146  -0.855   9.729
 9129POPC   C1A 4061  19.313  -0.974   9.817
 9129POPC   D2A 4062  19.445  -1.125   9.817
 9129POPC   C3A 4063  19.576  -1.275   9.817
 9129POPC   C4A 4064  19.708  -1.426   9.817
 9129POPC   C1B 4065  19.181  -1.090   9.912
 9129POPC   C2B 4066  19.312  -1.241   9.912
 9129POPC   C3B 4067  19.444  -1.391   9.912
 9129POPC   C4B 4068  19.575  -1.542   9.912
 9130POPC   NC3 4069  18.322  -0.976   9.007
 9130POPC   PO4 4070  18.442  -1.135   8.994
 9130POPC   GL1 4071  18.562  -1.294   8.981
 9130POPC   GL2 4072  18.520  -1.319   8.894
 9130POPC   C1A 4073  18.683  -1.453   8.968
 9130POPC   D2A 4074  18.803  -1.613   8.954
 9130POPC   C3A 4075  18.924  -1.772   8.941
 9130POPC   C4A 4076  19.044  -1.931   8.928
 9130POPC   C1B 4077  18.548  -1.564   9.066
 9130POPC   C2B 4078  18.668  -1.723   9.053
 9130POPC   C3B 4079  18.789  -1.882   9.039
 9130POPC   C4B 4080  18.909  -2.041   9.026
 9131POPC   NC3 4081   1.356  18.907  16.293
 9131POPC   PO4 4082   1.231  19.034  16.384
 9131POPC   GL1 4083   1.106  19.161  16.475
 9131POPC   GL2 4084   1.176  19.182  16.543
 9131POPC   C1A 4085   0.980  19.287  16.566
 9131POPC   D2A 4086   0.855  19.414  16.656
 9131POPC   C3A 4087   0.729  19.540  16.747
 9131POPC   C4A 4088   0.604  19.667  16.838
 9131POPC   C1B 4089   0.913  19.138  16.681
 9131POPC   C2B 4090   0.788  19.265  16.772
 9131POPC   C3B 4091   0.663  19.391  16.863
 9131POPC   C4B 4092   0.537  19.518  16.953
 9132POPC   NC3 4093  14.080  13.453  22.699
 9132POPC   PO4 4094  14.132  13.509  22.884
 9132POPC   GL1 4095  14.184  13.565  23.069
 9132POPC   GL2 4096  14.223  13.650  23.032
 9132POPC   C1A 4097  14.237  13.622  23.253
 9132POPC   D2A 4098  14.289  13.678  23.438
 9132POPC   C3A 4099  14.342  13.735  23.622
 9132POPC   C4A 4100  14.394  13.791  23.807
 9132POPC   C1B 4101  14.413  13.530  23.231
 9132POPC   C2B 4102  14.466  13.587  23.416
 9132POPC   C3B 4103  14.518  13.643  23.600
 9132POPC   C4B 4104  14.570  13.700  23.785
 9133POPC   NC3 4105  19.837   9.381  19.525
 9133POPC   PO4 4106  19.982   9.372  19.663
 9133POPC   GL1 4107  20.127   9.363  19.801
 9133POPC   GL2 4108  20.180   9.431  19.749
 9133POPC   C1A 4109  20.272   9.355  19.939
 9133POPC   D2A 4110  20.416   9.346  20.076
 9133POPC   C3A 4111  20.561   9.338  20.214
 9133POPC   C4A 4112  20.706   9.329  20.352
 9133POPC   C1B 4113  20.360   9.207  19.837
 9133POPC   C2B 4114  20.505   9.198  19.975
 9133POPC   C3B 4115  20.649   9.190  20.112
 9133POPC   C4B 4116  20.794   9.181  20.250
 9134POPC   NC3 4117  10.152  -3.816   9.067
 9134POPC   PO4 4118  10.151  -4.016   9.058
 9134POPC   GL1 4119  10.150  -4.216   9.049
 9134POPC   GL2 4120  10.186  -4.212   8.956
 9134POPC   C1A 4121  10.149  -4.416   9.040
 9134POPC   D2A 4122  10.147  -4.615   9.032
 9134POPC   C3A 4123  10.146  -4.815   9.023
 9134POPC   C4A 4124  10.145  -5.015   9.014
 9134POPC   C1B 4125   9.962  -4.411   8.968
 9134POPC   C2B 4126   9.961  -4.611   8.960
 9134POPC   C3B 4127   9.960  -4.811   8.951
 9134POPC   C4B 4128   9.958  -5.011   8.942
 9135POPC   NC3 4129   9.700   6.301  -3.355
 9135POPC   PO4 4130   9.696   6.246  -3.547
 9135POPC   GL1 4131   9.692   6.191  -3.739
 9135POPC   GL2 4132   9.783   6.230  -3.752
 9135POPC   C1A 4133   9.688   6.136  -3.931
 9135POPC   D2A 4134   9.683   6.081  -4.124
 9135POPC   C3A 4135   9.679   6.026  -4.316
 9135POPC   C4A 4136   9.675   5.971  -4.508
 9135POPC   C1B 4137   9.606   6.312  -3.980
 9135POPC   C2B 4138   9.602   6.257  -4.172
 9135POPC   C3B 4139   9.598   6.202  -4.364
 9135POPC   C4B 4140   9.593   6.147  -4.557
 9136POPC   NC3 4141   8.122  23.418   6.897
 9136POPC   PO4 4142   8.100  23.613   6.857
 9136POPC   GL1 4143   8.078  23.808   6.817
 9136POPC   GL2 4144   8.150  23.802   6.748
 9136POPC   C1A 4145   8.055  24.002   6.776
 9136POPC   D2A 4146   8.033  24.197   6.736
 9136POPC   C3A 4147   8.010  24.391   6.695
 9136POPC   C4A 4148   7.988  24.586   6.655
 9136POPC   C1B 4149   8.191  24.047   6.916
 9136POPC   C2B 4150   8.169  24.241   6.875
 9136POPC   C3B 4151   8.147  24.436   6.835
 9136POPC   C4B 4152   8.124  24.631   6.794
 9137POPC   NC3 4153  -0.330   0.977   7.380
 9137POPC   PO4 4154  -0.479   0.850   7.340
 9137POPC   GL1 4155  -0.628   0.723   7.300
 9137POPC   GL2 4156  -0.643   0.710   7.398
 9137POPC   C1A 4157  -0.778   0.596   7.261
 9137POPC   D2A 4158  -0.927   0.469   7.221
 9137POPC   C3A 4159  -1.077   0.342   7.182
 9137POPC   C4A 4160  -1.226   0.215   7.142
 9137POPC   C1B 4161  -0.648   0.444   7.261
 9137POPC   C2B 4162  -0.798   0.317   7.221
 9137POPC   C3B 4163  -0.947   0.190   7.181
 9137POPC   C4B 4164  -1.096   0.063   7.142
 9138POPC   NC3 4165  17.734  18.897  16.944
 9138POPC   PO4 4166  17.849  19.032  17.036
 9138POPC   GL1 4167  17.964  19.167  17.128
 9138POPC   GL2 4168  17.950  19.231  17.052
 9138POPC   C1A 4169  18.080  19.302  17.219
 9138POPC   D2A 4170  18.195  19.438  17.311
 9138POPC   C3A 4171  18.311  19.573  17.402
 9138POPC   C4A 4172  18.426  19.708  17.494
 9138POPC   C1B 4173  18.241  19.228  17.127
 9138POPC   C2B 4174  18.356  19.363  17.218
 9138POPC   C3B 4175  18.472  19.498  17.310
 9138POPC   C4B 4176  18.587  19.633  17.402
 9139POPC   NC3 4177  16.779  -2.005   9.896
 9139POPC   PO4 4178  16.877  -2.179   9.897
 9139POPC   GL1 4179  16.975  -2.353   9.898
 9139POPC   GL2 4180  17.061  -2.305   9.880
 9139POPC   C1A 4181  17.074  -2.527   9.899
 9139POPC   D2A 4182  17.172  -2.701   9.901
 9139POPC   C3A 4183  17.271  -2.875   9.902
 9139POPC   C4A 4184  17.369  -3.049   9.903
 9139POPC   C1B 4185  17.043  -2.546   9.703
 9139POPC   C2B 4186  17.141  -2.720   9.704
 9139POPC   C3B 4187  17.240  -2.894   9.705
 9139POPC   C4B 4188  17.338  -3.068   9.706
 9140POPC   NC3 4189   9.810  -1.741  17.335
 9140POPC   PO4 4190   9.808  -1.909  17.444
 9140POPC   GL1 4191   9.806  -2.077  17.553
 9140POPC   GL2 4192   9.871  -2.119  17.489
 9140POPC   C1A 4193   9.804  -2.245  17.662
 9140POPC   D2A 4194   9.803  -2.412  17.771
 9140POPC   C3A 4195   9.801  -2.580  17.880
 9140POPC   C4A 4196   9.799  -2.748  17.989
 9140POPC   C1B 4197   9.651  -2.314  17.553
 9140POPC   C2B 4198   9.649  -2.481  17.662
 9140POPC   C3B 4199   9.648  -2.649  17.771
 9140POPC   C4B 4200   9.646  -2.817  17.880
 9141POPC   NC3 4201   3.674   0.380   2.197
 9141POPC   PO4 4202   3.582   0.248   2.078
 9141POPC   GL1 4203   3.490   0.116   1.959
 9141POPC   GL2 4204   3.452   0.070   2.039
 9141POPC   C1A 4205   3.398  -0.015   1.839
 9141POPC   D2A 4206   3.306  -0.147   1.720
 9141POPC   C3A 4207   3.214  -0.278   1.600
 9141POPC   C4A 4208   3.122  -0.410   1.481
 9141POPC   C1B 4209   3.558  -0.134   1.847
 9141POPC   C2B 4210   3.466  -0.266   1.728
 9141POPC   C3B 4211   3.374  -0.398   1.608
 9141POPC   C4B 4212   3.282  -0.529   1.489
 9142POPC   NC3 4213  -1.465   2.824  13.379
 9142POPC   PO4 4214  -1.630   2.723  13.431
 9142POPC   GL1 4215  -1.795   2.622  13.483
 9142POPC   GL2 4216  -1.808   2.683  13.561
 9142POPC   C1A 4217  -1.960   2.521  13.535
 9142POPC   D2A 4218  -2.124   2.420  13.586
 9142POPC   C3A 4219  -2.289   2.319  13.638
 9142POPC   C4A 4220  -2.454   2.218  13.690
 9142POPC   C1B 4221  -1.849   2.399  13.649
 9142POPC   C2B 4222  -2.014   2.298  13.701
 9142POPC   C3B 4223  -2.179   2.197  13.752
 9142POPC   C4B 4224  -2.344   2.096  13.804
 9143POPC   NC3 4225  14.473  18.688  19.732
 9143POPC   PO4 4226  14.538  18.814  19.873
 9143POPC   GL1 4227  14.603  18.940  20.014
 9143POPC   GL2 4228  14.690  18.949  19.966
 9143POPC   C1A 4229  14.668  19.065  20.156
 9143POPC   D2A 4230  14.733  19.191  20.297
 9143POPC   C3A 4231  14.798  19.316  20.439
 9143POPC   C4A 4232  14.863  19.442  20.580
 9143POPC   C1B 4233  14.741  18.911  20.259
 9143POPC   C2B 4234  14.806  19.036  20.401
 9143POPC   C3B 4235  14.871  19.162  20.542
 9143POPC   C4B 4236  14.936  19.287  20.684
 9144POPC   NC3 4237  13.790  21.446  16.612
 9144POPC   PO4 4238  13.848  21.611  16.709
 9144POPC   GL1 4239  13.906  21.776  16.806
 9144POPC   GL2 4240  13.965  21.721  16.864
 9144POPC   C1A 4241  13.963  21.941  16.903
 9144POPC   D2A 4242  14.021  22.106  17.000
 9144POPC   C3A 4243  14.078  22.271  17.097
 9144POPC   C4A 4244  14.136  22.436  17.194
 9144POPC   C1B 4245  13.814  21.917  17.033
 9144POPC   C2B 4246  13.871  22.082  17.130
 9144POPC   C3B 4247  13.929  22.247  17.227
 9144POPC   C4B 4248  13.986  22.412  17.324
 9145POPC   NC3 4249   0.203  10.585  19.823
 9145POPC   PO4 4250   0.059  10.589  19.961
 9145POPC   GL1 4251  -0.085  10.593  20.099
 9145POPC   GL2 4252  -0.041  10.518  20.148
 9145POPC   C1A 4253  -0.230  10.598  20.237
 9145POPC   D2A 4254  -0.374  10.602  20.376
 9145POPC   C3A 4255  -0.519  10.607  20.514
 9145POPC   C4A 4256  -0.663  10.611  20.652
 9145POPC   C1B 4257  -0.336  10.466  20.131
 9145POPC   C2B 4258  -0.481  10.471  20.269
 9145POPC   C3B 4259  -0.625  10.475  20.407
 9145POPC   C4B 4260  -0.769  10.480  20.545
 9146POPC   NC3 4261  18.307   0.347   4.604
 9146POPC   PO4 4262  18.428   0.208   4.527
 9146POPC   GL1 4263  18.549   0.069   4.450
 9146POPC   GL2 4264  18.616   0.139   4.427
 9146POPC   C1A 4265  18.670  -0.071   4.374
 9146POPC   D2A 4266  18.792  -0.210   4.297
 9146POPC   C3A 4267  18.913  -0.350   4.221
 9146POPC   C4A 4268  19.034  -0.489   4.144
 9146POPC   C1B 4269  18.583  -0.049   4.195
 9146POPC   C2B 4270  18.704  -0.188   4.119
 9146POPC   C3B 4271  18.825  -0.328   4.042
 9146POPC   C4B 4272  18.946  -0.467   3.966
 9147POPC   NC3 4273  10.887  20.807  18.506
 9147POPC   PO4 4274  10.910  20.962  18.631
 9147POPC   GL1 4275  10.933  21.117  18.756
 9147POPC   GL2 4276  10.934  21.179  18.678
 9147POPC   C1A 4277  10.956  21.271  18.881
 9147POPC   D2A 4278  10.978  21.426  19.005
 9147POPC   C3A 4279  11.001  21.580  19.130
 9147POPC   C4A 4280  11.024  21.735  19.255
 9147POPC   C1B 4281  11.154  21.253  18.868
 9147POPC   C2B 4282  11.177  21.407  18.992
 9147POPC   C3B 4283  11.200  21.562  19.117
 9147POPC   C4B 4284  11.223  21.716  19.242
 9148POPC   NC3 4285   6.194  17.646  -1.084
 9148POPC   PO4 4286   6.143  17.756  -1.243
 9148POPC   GL1 4287   6.092  17.866  -1.402
 9148POPC   GL2 4288   6.181  17.846  -1.444
 9148POPC   C1A 4289   6.041  17.976  -1.561
 9148POPC   D2A 4290   5.991  18.087  -1.720
 9148POPC   C3A 4291   5.940  18.197  -1.879
 9148POPC   C4A 4292   5.889  18.307  -2.038
 9148POPC   C1B 4293   6.120  18.138  -1.474
 9148POPC   C2B 4294   6.070  18.248  -1.633
 9148POPC   C3B 4295   6.019  18.359  -1.792
 9148POPC   C4B 4296   5.968  18.469  -1.951
 9149POPC   NC3 4297  21.172  13.143  17.364
 9149POPC   PO4 4298  21.333  13.189  17.473
 9149POPC   GL1 4299  21.494  13.235  17.582
 9149POPC   GL2 4300  21.512  13.138  17.597
 9149POPC   C1A 4301  21.656  13.281  17.690
 9149POPC   D2A 4302  21.817  13.327  17.799
 9149POPC   C3A 4303  21.979  13.373  17.907
 9149POPC   C4A 4304  22.140  13.419  18.016
 9149POPC   C1B 4305  21.543  13.288  17.855
 9149POPC   C2B 4306  21.704  13.334  17.964
 9149POPC   C3B 4307  21.866  13.380  18.072
 9149POPC   C4B 4308  22.027  13.426  18.181
 9150POPC   NC3 4309  16.604   1.344  18.366
 9150POPC   PO4 4310  16.704   1.219  18.486
 9150POPC   GL1 4311  16.804   1.094  18.606
 9150POPC   GL2 4312  16.806   1.026  18.533
 9150POPC   C1A 4313  16.903   0.969  18.727
 9150POPC   D2A 4314  17.003   0.845  18.847
 9150POPC   C3A 4315  17.102   0.720  18.968
 9150POPC   C4A 4316  17.202   0.595  19.088
 9150POPC   C1B 4317  16.730   0.894  18.791
 9150POPC   C2B 4318  16.829   0.769  18.912
 9150POPC   C3B 4319  16.929   0.644  19.032
 9150POPC   C4B 4320  17.029   0.519  19.153
 9151POPC   NC3 4321  19.694  18.689  14.067
 9151POPC   PO4 4322  19.831  18.820  14.130
 9151POPC   GL1 4323  19.968  18.951  14.193
 9151POPC   GL2 4324  20.034  18.877  14.205
 9151POPC   C1A 4325  20.106  19.082  14.255
 9151POPC   D2A 4326  20.243  19.214  14.318
 9151POPC   C3A 4327  20.381  19.345  14.380
 9151POPC   C4A 4328  20.518  19.476  14.443
 9151POPC   C1B 4329  20.043  19.059  14.444
 9151POPC   C2B 4330  20.180  19.190  14.506
 9151POPC   C3B 4331  20.318  19.321  14.569
 9151POPC   C4B 4332  20.455  19.452  14.631
 9152POPC   NC3 4333  11.243   4.029  -2.497
 9152POPC   PO4 4334  11.261   3.945  -2.677
 9152POPC   GL1 4335  11.279   3.861  -2.857
 9152POPC   GL2 4336  11.372   3.898  -2.865
 9152POPC   C1A 4337  11.297   3.776  -3.038
 9152POPC   D2A 4338  11.316   3.692  -3.218
 9152POPC   C3A 4339  11.334   3.607  -3.399
 9152POPC   C4A 4340  11.352   3.523  -3.579
 9152POPC   C1B 4341  11.224   3.942  -3.123
 9152POPC   C2B 4342  11.242   3.857  -3.303
 9152POPC   C3B 4343  11.260   3.773  -3.483
 9152POPC   C4B 4344  11.278   3.688  -3.664
 9153POPC   NC3 4345  -3.652   7.893  11.968
 9153POPC   PO4 4346  -3.847   7.860  11.999
 9153POPC   GL1 4347  -4.042   7.827  12.030
 9153POPC   GL2 4348  -4.022   7.798  12.124
 9153POPC   C1A 4349  -4.237   7.794  12.062
 9153POPC   D2A 4350  -4.431   7.760  12.093
 9153POPC   C3A 4351  -4.626   7.727  12.125
 9153POPC   C4A 4352  -4.821   7.694  12.156
 9153POPC   C1B 4353  -4.215   7.605  11.999
 9153POPC   C2B 4354  -4.409   7.572  12.030
 9153POPC   C3B 4355  -4.604   7.539  12.062
 9153POPC   C4B 4356  -4.799   7.505  12.093
 9154POPC   NC3 4357   4.023  21.527   5.123
 9154POPC   PO4 4358   3.929  21.690   5.055
 9154POPC   GL1 4359   3.835  21.853   4.987
 9154POPC   GL2 4360   3.923  21.897   4.971
 9154POPC   C1A 4361   3.741  22.015   4.918
 9154POPC   D2A 4362   3.646  22.178   4.850
 9154POPC   C3A 4363   3.552  22.340   4.781
 9154POPC   C4A 4364   3.458  22.503   4.713
 9154POPC   C1B 4365   3.735  22.090   5.104
 9154POPC   C2B 4366   3.641  22.253   5.035
 9154POPC   C3B 4367   3.547  22.415   4.967
 9154POPC   C4B 4368   3.453  22.578   4.898
 9155POPC   NC3 4369  22.794  10.950   5.074
 9155POPC   PO4 4370  22.981  10.961   5.004
 9155POPC   GL1 4371  23.168  10.972   4.934
 9155POPC   GL2 4372  23.160  10.879   4.897
 9155POPC   C1A 4373  23.355  10.982   4.864
 9155POPC   D2A 4374  23.543  10.993   4.795
 9155POPC   C3A 4375  23.730  11.003   4.725
 9155POPC   C4A 4376  23.917  11.014   4.655
 9155POPC   C1B 4377  23.424  10.907   5.037
 9155POPC   C2B 4378  23.611  10.918   4.967
 9155POPC   C3B 4379  23.798  10.929   4.897
 9155POPC   C4B 4380  23.986  10.939   4.827
 9156POPC   NC3 4381   8.021  15.840  -2.505
 9156POPC   PO4 4382   7.995  15.924  -2.685
 9156POPC   GL1 4383   7.969  16.008  -2.865
 9156POPC   GL2 4384   7.975  16.099  -2.824
 9156POPC   C1A 4385   7.942  16.091  -3.045
 9156POPC   D2A 4386   7.916  16.175  -3.224
 9156POPC   C3A 4387   7.889  16.258  -3.404
 9156POPC   C4A 4388   7.863  16.342  -3.584
 9156POPC   C1B 4389   7.744  16.092  -3.015
 9156POPC   C2B 4390   7.718  16.176  -3.195
 9156POPC   C3B 4391   7.692  16.259  -3.375
 9156POPC   C4B 4392   7.665  16.343  -3.555
 9157POPC   NC3 4393  12.056  -3.718  10.132
 9157POPC   PO4 4394  12.081  -3.916  10.139
 9157POPC   GL1 4395  12.106  -4.114  10.146
 9157POPC   GL2 4396  12.106  -4.118  10.046
 9157POPC   C1A 4397  12.131  -4.312  10.153
 9157POPC   D2A 4398  12.157  -4.511  10.160
 9157POPC   C3A 4399  12.182  -4.709  10.167
 9157POPC   C4A 4400  12.207  -4.907  10.174
 9157POPC   C1B 4401  11.933  -4.338  10.154
 9157POPC   C2B 4402  11.958  -4.536  10.161
 9157POPC   C3B 4403  11.983  -4.734  10.168
 9157POPC   C4B 4404  12.009  -4.932  10.175
 9158POPC   NC3 4405   9.578  13.497  23.315
 9158POPC   PO4 4406   9.575  13.550  23.508
 9158POPC   GL1 4407   9.572  13.603  23.701
 9158POPC   GL2 4408   9.635  13.529  23.722
 9158POPC   C1A 4409   9.569  13.656  23.894
 9158POPC   D2A 4410   9.566  13.710  24.086
 9158POPC   C3A 4411   9.563  13.763  24.279
 9158POPC   C4A 4412   9.560  13.816  24.472
 9158POPC   C1B 4413   9.414  13.534  23.925
 9158POPC   C2B 4414   9.411  13.587  24.118
 9158POPC   C3B 4415   9.408  13.640  24.311
 9158POPC   C4B 4416   9.405  13.693  24.503
 9159POPC   NC3 4417   4.883  21.285   3.692
 9159POPC   PO4 4418   4.807  21.446   3.600
 9159POPC   GL1 4419   4.731  21.607   3.508
 9159POPC   GL2 4420   4.777  21.666   3.574
 9159POPC   C1A 4421   4.655  21.767   3.417
 9159POPC   D2A 4422   4.578  21.928   3.325
 9159POPC   C3A 4423   4.502  22.088   3.234
 9159POPC   C4A 4424   4.426  22.249   3.142
 9159POPC   C1B 4425   4.495  21.760   3.537
 9159POPC   C2B 4426   4.418  21.920   3.445
 9159POPC   C3B 4427   4.342  22.081   3.353
 9159POPC   C4B 4428   4.266  22.241   3.262
 9160POPC   NC3 4429   7.003  22.830   5.419
 9160POPC   PO4 4430   6.967  23.015   5.352
 9160POPC   GL1 4431   6.931  23.200   5.285
 9160POPC   GL2 4432   7.023  23.204   5.246
 9160POPC   C1A 4433   6.895  23.385   5.219
 9160POPC   D2A 4434   6.860  23.571   5.152
 9160POPC   C3A 4435   6.824  23.756   5.086
 9160POPC   C4A 4436   6.788  23.941   5.019
 9160POPC   C1B 4437   6.966  23.461   5.390
 9160POPC   C2B 4438   6.930  23.646   5.324
 9160POPC   C3B 4439   6.894  23.831   5.257
 9160POPC   C4B 4440   6.858  24.016   5.191
 9161POPC   NC3 4441  19.025   9.056  -0.419
 9161POPC   PO4 4442  19.159   9.044  -0.567
 9161POPC   GL1 4443  19.293   9.032  -0.715
 9161POPC   GL2 4444  19.246   9.106  -0.764
 9161POPC   C1A 4445  19.426   9.020  -0.864
 9161POPC   D2A 4446  19.560   9.009  -1.012
 9161POPC   C3A 4447  19.693   8.997  -1.161
 9161POPC   C4A 4448  19.827   8.985  -1.309
 9161POPC   C1B 4449  19.311   8.886  -0.957
 9161POPC   C2B 4450  19.444   8.874  -1.105
 9161POPC   C3B 4451  19.578   8.863  -1.254
 9161POPC   C4B 4452  19.712   8.851  -1.402
 9162POPC   NC3 4453  21.115   4.090   4.320
 9162POPC   PO4 4454  21.276   4.004   4.238
 9162POPC   GL1 4455  21.437   3.918   4.156
 9162POPC   GL2 4456  21.470   4.007   4.127
 9162POPC   C1A 4457  21.597   3.831   4.074
 9162POPC   D2A 4458  21.758   3.745   3.991
 9162POPC   C3A 4459  21.918   3.658   3.909
 9162POPC   C4A 4460  22.079   3.572   3.827
 9162POPC   C1B 4461  21.498   3.812   3.901
 9162POPC   C2B 4462  21.659   3.726   3.819
 9162POPC   C3B 4463  21.820   3.640   3.736
 9162POPC   C4B 4464  21.980   3.553   3.654
 9163POPC   NC3 4465   7.558  -1.629   2.783
 9163POPC   PO4 4466   7.528  -1.798   2.680
 9163POPC   GL1 4467   7.498  -1.967   2.577
 9163POPC   GL2 4468   7.594  -1.993   2.591
 9163POPC   C1A 4469   7.468  -2.136   2.474
 9163POPC   D2A 4470   7.439  -2.304   2.370
 9163POPC   C3A 4471   7.409  -2.473   2.267
 9163POPC   C4A 4472   7.379  -2.642   2.164
 9163POPC   C1B 4473   7.520  -2.041   2.305
 9163POPC   C2B 4474   7.490  -2.210   2.202
 9163POPC   C3B 4475   7.460  -2.379   2.098
 9163POPC   C4B 4476   7.430  -2.548   1.995
 9164POPC   NC3 4477   0.059  19.738   9.063
 9164POPC   PO4 4478  -0.076  19.885   9.050
 9164POPC   GL1 4479  -0.211  20.032   9.037
 9164POPC   GL2 4480  -0.170  20.077   9.115
 9164POPC   C1A 4481  -0.347  20.178   9.024
 9164POPC   D2A 4482  -0.482  20.325   9.010
 9164POPC   C3A 4483  -0.618  20.471   8.997
 9164POPC   C4A 4484  -0.753  20.618   8.984
 9164POPC   C1B 4485  -0.468  20.077   9.147
 9164POPC   C2B 4486  -0.603  20.224   9.134
 9164POPC   C3B 4487  -0.739  20.371   9.120
 9164POPC   C4B 4488  -0.874  20.517   9.107
 9165POPC   NC3 4489   2.766   4.137  20.193
 9165POPC   PO4 4490   2.656   4.057  20.340
 9165POPC   GL1 4491   2.546   3.977  20.487
 9165POPC   GL2 4492   2.624   3.983  20.549
 9165POPC   C1A 4493   2.436   3.897  20.633
 9165POPC   D2A 4494   2.325   3.818  20.780
 9165POPC   C3A 4495   2.215   3.738  20.926
 9165POPC   C4A 4496   2.105   3.658  21.073
 9165POPC   C1B 4497   2.494   3.714  20.578
 9165POPC   C2B 4498   2.384   3.635  20.724
 9165POPC   C3B 4499   2.274   3.555  20.871
 9165POPC   C4B 4500   2.164   3.475  21.017
 9166POPC   NC3 4501   4.690  10.969  -2.889
 9166POPC   PO4 4502   4.613  10.984  -3.073
 9166POPC   GL1 4503   4.536  10.999  -3.257
 9166POPC   GL2 4504   4.568  11.093  -3.263
 9166POPC   C1A 4505   4.459  11.013  -3.441
 9166POPC   D2A 4506   4.382  11.028  -3.625
 9166POPC   C3A 4507   4.305  11.042  -3.809
 9166POPC   C4A 4508   4.228  11.057  -3.993
 9166POPC   C1B 4509   4.286  11.077  -3.363
 9166POPC   C2B 4510   4.209  11.092  -3.547
 9166POPC   C3B 4511   4.132  11.107  -3.731
 9166POPC   C4B 4512   4.055  11.121  -3.915
 9167POPC   NC3 4513  16.276  -1.564  14.094
 9167POPC   PO4 4514  16.370  -1.731  14.150
 9167POPC   GL1 4515  16.464  -1.898  14.206
 9167POPC   GL2 4516  16.470  -1.927  14.111
 9167POPC   C1A 4517  16.558  -2.066  14.263
 9167POPC   D2A 4518  16.651  -2.233  14.319
 9167POPC   C3A 4519  16.745  -2.401  14.376
 9167POPC   C4A 4520  16.839  -2.568  14.432
 9167POPC   C1B 4521  16.381  -2.159  14.279
 9167POPC   C2B 4522  16.475  -2.326  14.335
 9167POPC   C3B 4523  16.569  -2.494  14.392
 9167POPC   C4B 4524  16.663  -2.661  14.448
 9168POPC   NC3 4525  14.190   6.982  -2.833
 9168POPC   PO4 4526  14.261   6.940  -3.015
 9168POPC   GL1 4527  14.332   6.898  -3.197
 9168POPC   GL2 4528  14.243   6.921  -3.237
 9168POPC   C1A 4529  14.403   6.856  -3.379
 9168POPC   D2A 4530  14.474   6.813  -3.562
 9168POPC   C3A 4531  14.545   6.771  -3.744
 9168POPC   C4A 4532  14.616   6.729  -3.926
 9168POPC   C1B 4533  14.344   6.666  -3.358
 9168POPC   C2B 4534  14.415   6.624  -3.541
 9168POPC   C3B 4535  14.486   6.581  -3.723
 9168POPC   C4B 4536  14.557   6.539  -3.905
 9169POPC   NC3 4537  14.983  14.548  21.989
 9169POPC   PO4 4538  15.057  14.618  22.161
 9169POPC   GL1 4539  15.131  14.688  22.333
 9169POPC   GL2 4540  15.169  14.767  22.285
 9169POPC   C1A 4541  15.204  14.758  22.505
 9169POPC   D2A 4542  15.278  14.828  22.678
 9169POPC   C3A 4543  15.351  14.898  22.850
 9169POPC   C4A 4544  15.425  14.968  23.022
 9169POPC   C1B 4545  15.374  14.656  22.474
 9169POPC   C2B 4546  15.447  14.726  22.646
 9169POPC   C3B 4547  15.521  14.796  22.819
 9169POPC   C4B 4548  15.594  14.866  22.991
 9170POPC   NC3 4549  11.837   2.660  21.540
 9170POPC   PO4 4550  11.865   2.545  21.701
 9170POPC   GL1 4551  11.893   2.430  21.862
 9170POPC   GL2 4552  11.982   2.474  21.877
 9170POPC   C1A 4553  11.921   2.316  22.024
 9170POPC   D2A 4554  11.950   2.201  22.185
 9170POPC   C3A 4555  11.978   2.087  22.347
 9170POPC   C4A 4556  12.006   1.972  22.508
 9170POPC   C1B 4557  12.008   2.177  21.910
 9170POPC   C2B 4558  12.037   2.062  22.071
 9170POPC   C3B 4559  12.065   1.947  22.232
 9170POPC   C4B 4560  12.093   1.833  22.394
 9171POPC   NC3 4561  10.500   9.225  23.783
 9171POPC   PO4 4562  10.510   9.213  23.982
 9171POPC   GL1 4563  10.520   9.201  24.181
 9171POPC   GL2 4564  10.522   9.101  24.175
 9171POPC   C1A 4565  10.529   9.189  24.381
 9171POPC   D2A 4566  10.539   9.178  24.580
 9171POPC   C3A 4567  10.548   9.166  24.780
 9171POPC   C4A 4568  10.558   9.154  24.979
 9171POPC   C1B 4569  10.329   9.184  24.390
 9171POPC   C2B 4570  10.339   9.172  24.589
 9171POPC   C3B 4571  10.349   9.161  24.789
 9171POPC   C4B 4572  10.358   9.149  24.988
 9172POPC   NC3 4573  18.401  -0.481   6.799
 9172POPC   PO4 4574  18.524  -0.632   6.753
 9172POPC   GL1 4575  18.647  -0.783   6.707
 9172POPC   GL2 4576  18.664  -0.742   6.618
 9172POPC   C1A 4577  18.769  -0.934   6.661
 9172POPC   D2A 4578  18.892  -1.086   6.616
 9172POPC   C3A 4579  19.014  -1.237   6.570
 9172POPC   C4A 4580  19.137  -1.388   6.524
 9172POPC   C1B 4581  18.615  -1.036   6.585
 9172POPC   C2B 4582  18.738  -1.188   6.540
 9172POPC   C3B 4583  18.860  -1.339   6.494
 9172POPC   C4B 4584  18.983  -1.490   6.448
 9173POPC   NC3 4585  18.657   3.794  18.595
 9173POPC   PO4 4586  18.784   3.708  18.723
 9173POPC   GL1 4587  18.911   3.622  18.851
 9173POPC   GL2 4588  18.980   3.617  18.780
 9173POPC   C1A 4589  19.038   3.536  18.980
 9173POPC   D2A 4590  19.165   3.450  19.108
 9173POPC   C3A 4591  19.292   3.364  19.237
 9173POPC   C4A 4592  19.419   3.278  19.365
 9173POPC   C1B 4593  18.970   3.356  18.926
 9173POPC   C2B 4594  19.097   3.270  19.054
 9173POPC   C3B 4595  19.224   3.184  19.183
 9173POPC   C4B 4596  19.351   3.098  19.311
 9174POPC   NC3 4597   0.048  16.587   2.688
 9174POPC   PO4 4598  -0.097  16.681   2.587
 9174POPC   GL1 4599  -0.242  16.775   2.486
 9174POPC   GL2 4600  -0.257  16.836   2.564
 9174POPC   C1A 4601  -0.386  16.869   2.385
 9174POPC   D2A 4602  -0.531  16.964   2.284
 9174POPC   C3A 4603  -0.675  17.058   2.183
 9174POPC   C4A 4604  -0.820  17.152   2.082
 9174POPC   C1B 4605  -0.521  16.741   2.459
 9174POPC   C2B 4606  -0.666  16.835   2.358
 9174POPC   C3B 4607  -0.810  16.930   2.257
 9174POPC   C4B 4608  -0.955  17.024   2.156
 9175POPC   NC3 4609   9.598  20.002   0.433
 9175POPC   PO4 4610   9.593  20.147   0.295
 9175POPC   GL1 4611   9.588  20.292   0.157
 9175POPC   GL2 4612   9.649  20.348   0.213
 9175POPC   C1A 4613   9.582  20.437   0.019
 9175POPC   D2A 4614   9.577  20.581  -0.118
 9175POPC   C3A 4615   9.571  20.726  -0.256
 9175POPC   C4A 4616   9.566  20.871  -0.394
 9175POPC   C1B 4617   9.424  20.518   0.111
 9175POPC   C2B 4618   9.418  20.663  -0.027
 9175POPC   C3B 4619   9.413  20.807  -0.165
 9175POPC   C4B 4620   9.408  20.952  -0.303
 9176POPC   NC3 4621  16.618  20.001  16.572
 9176POPC   PO4 4622  16.720  20.147  16.663
 9176POPC   GL1 4623  16.822  20.293  16.754
 9176POPC   GL2 4624  16.861  20.226  16.818
 9176POPC   C1A 4625  16.925  20.438  16.845
 9176POPC   D2A 4626  17.027  20.584  16.936
 9176POPC   C3A 4627  17.130  20.729  17.027
 9176POPC   C4A 4628  17.232  20.875  17.118
 9176POPC   C1B 4629  16.771  20.468  16.969
 9176POPC   C2B 4630  16.874  20.614  17.060
 9176POPC   C3B 4631  16.976  20.760  17.151
 9176POPC   C4B 4632  17.078  20.905  17.242
 9177POPC   NC3 4633  17.977  21.183  10.577
 9177POPC   PO4 4634  18.086  21.351  10.579
 9177POPC   GL1 4635  18.195  21.519  10.581
 9177POPC   GL2 4636  18.248  21.485  10.503
 9177POPC   C1A 4637  18.303  21.687  10.582
 9177POPC   D2A 4638  18.412  21.854  10.584
 9177POPC   C3A 4639  18.520  22.022  10.585
 9177POPC   C4A 4640  18.629  22.190  10.587
 9177POPC   C1B 4641  18.432  21.602  10.709
 9177POPC   C2B 4642  18.541  21.770  10.711
 9177POPC   C3B 4643  18.650  21.937  10.712
 9177POPC   C4B 4644  18.758  22.105  10.714
 9178POPC   NC3 4645  19.381   5.624   0.906
 9178POPC   PO4 4646  19.515   5.554   0.775
 9178POPC   GL1 4647  19.649   5.484   0.644
 9178POPC   GL2 4648  19.575   5.445   0.589
 9178POPC   C1A 4649  19.783   5.414   0.513
 9178POPC   D2A 4650  19.918   5.345   0.383
 9178POPC   C3A 4651  20.052   5.275   0.252
 9178POPC   C4A 4652  20.186   5.205   0.121
 9178POPC   C1B 4653  19.796   5.244   0.617
 9178POPC   C2B 4654  19.930   5.174   0.486
 9178POPC   C3B 4655  20.064   5.104   0.356
 9178POPC   C4B 4656  20.198   5.034   0.225
 9179POPC   NC3 4657  -1.835  16.263  13.972
 9179POPC   PO4 4658  -2.001  16.359  14.030
 9179POPC   GL1 4659  -2.167  16.455  14.088
 9179POPC   GL2 4660  -2.172  16.396  14.169
 9179POPC   C1A 4661  -2.332  16.551  14.146
 9179POPC   D2A 4662  -2.498  16.647  14.205
 9179POPC   C3A 4663  -2.663  16.743  14.263
 9179POPC   C4A 4664  -2.829  16.839  14.321
 9179POPC   C1B 4665  -2.444  16.420  14.044
 9179POPC   C2B 4666  -2.609  16.516  14.102
 9179POPC   C3B 4667  -2.775  16.612  14.160
 9179POPC   C4B 4668  -2.941  16.708  14.219
 9180POPC   NC3 4669  16.864  11.465  21.804
 9180POPC   PO4 4670  16.976  11.498  21.966
 9180POPC   GL1 4671  17.088  11.531  22.128
 9180POPC   GL2 4672  17.145  11.452  22.105
 9180POPC   C1A 4673  17.200  11.563  22.291
 9180POPC   D2A 4674  17.312  11.596  22.453
 9180POPC   C3A 4675  17.424  11.628  22.616
 9180POPC   C4A 4676  17.536  11.661  22.778
 9180POPC   C1B 4677  17.079  11.445  22.398
 9180POPC   C2B 4678  17.191  11.477  22.560
 9180POPC   C3B 4679  17.303  11.510  22.723
 9180POPC   C4B 4680  17.415  11.543  22.885
 9181POPC   NC3 4681   4.947   4.259  -1.734
 9181POPC   PO4 4682   4.873   4.173  -1.898
 9181POPC   GL1 4683   4.799   4.087  -2.062
 9181POPC   GL2 4684   4.877   4.025  -2.065
 9181POPC   C1A 4685   4.724   4.001  -2.227
 9181POPC   D2A 4686   4.650   3.914  -2.391
 9181POPC   C3A 4687   4.575   3.828  -2.556
 9181POPC   C4A 4688   4.501   3.742  -2.720
 9181POPC   C1B 4689   4.824   4.132  -2.341
 9181POPC   C2B 4690   4.749   4.045  -2.505
 9181POPC   C3B 4691   4.675   3.959  -2.669
 9181POPC   C4B 4692   4.600   3.873  -2.834
 9182POPC   NC3 4693  14.835   3.851  21.363
 9182POPC   PO4 4694  14.911   3.764  21.526
 9182POPC   GL1 4695  14.987   3.677  21.689
 9182POPC   GL2 4696  15.064   3.643  21.635
 9182POPC   C1A 4697  15.063   3.590  21.853
 9182POPC   D2A 4698  15.138   3.503  22.016
 9182POPC   C3A 4699  15.214   3.416  22.180
 9182POPC   C4A 4700  15.290   3.329  22.343
 9182POPC   C1B 4701  14.960   3.424  21.812
 9182POPC   C2B 4702  15.035   3.337  21.975
 9182POPC   C3B 4703  15.111   3.250  22.139
 9182POPC   C4B 4704  15.187   3.163  22.302
 9183POPC   NC3 4705  15.801  -2.150  12.930
 9183POPC   PO4 4706  15.888  -2.325  12.972
 9183POPC   GL1 4707  15.975  -2.500  13.014
 9183POPC   GL2 4708  16.020  -2.459  13.093
 9183POPC   C1A 4709  16.062  -2.675  13.056
 9183POPC   D2A 4710  16.149  -2.850  13.099
 9183POPC   C3A 4711  16.236  -3.025  13.141
 9183POPC   C4A 4712  16.323  -3.200  13.183
 9183POPC   C1B 4713  16.218  -2.625  12.942
 9183POPC   C2B 4714  16.305  -2.800  12.984
 9183POPC   C3B 4715  16.392  -2.975  13.026
 9183POPC   C4B 4716  16.479  -3.150  13.068
 9184POPC   NC3 4717  -0.560  13.433  18.436
 9184POPC   PO4 4718  -0.708  13.478  18.563
 9184POPC   GL1 4719  -0.856  13.523  18.690
 9184POPC   GL2 4720  -0.804  13.481  18.765
 9184POPC   C1A 4721  -1.004  13.567  18.817
 9184POPC   D2A 4722  -1.152  13.612  18.944
 9184POPC   C3A 4723  -1.300  13.656  19.071
 9184POPC   C4A 4724  -1.448  13.701  19.198
 9184POPC   C1B 4725  -1.090  13.391  18.778
 9184POPC   C2B 4726  -1.238  13.436  18.905
 9184POPC   C3B 4727  -1.386  13.480  19.032
 9184POPC   C4B 4728  -1.534  13.525  19.159
 9185POPC   NC3 4729  10.138  -3.834  10.011
 9185POPC   PO4 4730  10.139  -4.034  10.014
 9185POPC   GL1 4731  10.140  -4.234  10.017
 9185POPC   GL2 4732  10.216  -4.235   9.953
 9185POPC   C1A 4733  10.140  -4.434  10.020
 9185POPC   D2A 4734  10.141  -4.634  10.023
 9185POPC   C3A 4735  10.141  -4.834  10.026
 9185POPC   C4A 4736  10.142  -5.034  10.029
 9185POPC   C1B 4737  10.011  -4.437   9.867
 9185POPC   C2B 4738  10.012  -4.637   9.870
 9185POPC   C3B 4739  10.013  -4.837   9.873
 9185POPC   C4B 4740  10.013  -5.037   9.876
 9186POPC   NC3 4741  17.387  21.257  12.893
 9186POPC   PO4 4742  17.500  21.413  12.946
 9186POPC   GL1 4743  17.613  21.569  12.999
 9186POPC   GL2 4744  17.693  21.525  12.959
 9186POPC   C1A 4745  17.727  21.725  13.052
 9186POPC   D2A 4746  17.840  21.881  13.105
 9186POPC   C3A 4747  17.954  22.037  13.158
 9186POPC   C4A 4748  18.067  22.193  13.211
 9186POPC   C1B 4749  17.766  21.637  13.227
 9186POPC   C2B 4750  17.879  21.793  13.280
 9186POPC   C3B 4751  17.993  21.949  13.333
 9186POPC   C4B 4752  18.106  22.105  13.386
 9187POPC   NC3 4753   4.401  -1.655   4.664
 9187POPC   PO4 4754   4.325  -1.825   4.591
 9187POPC   GL1 4755   4.249  -1.995   4.518
 9187POPC   GL2 4756   4.310  -1.988   4.439
 9187POPC   C1A 4757   4.172  -2.164   4.444
 9187POPC   D2A 4758   4.096  -2.334   4.371
 9187POPC   C3A 4759   4.019  -2.503   4.297
 9187POPC   C4A 4760   3.943  -2.673   4.224
 9187POPC   C1B 4761   4.034  -2.059   4.345
 9187POPC   C2B 4762   3.958  -2.229   4.271
 9187POPC   C3B 4763   3.881  -2.398   4.198
 9187POPC   C4B 4764   3.805  -2.568   4.125
 9188POPC   NC3 4765   9.647  10.120  23.803
 9188POPC   PO4 4766   9.635  10.123  24.003
 9188POPC   GL1 4767   9.623  10.126  24.203
 9188POPC   GL2 4768   9.633  10.225  24.202
 9188POPC   C1A 4769   9.611  10.129  24.402
 9188POPC   D2A 4770   9.599  10.131  24.602
 9188POPC   C3A 4771   9.587  10.134  24.801
 9188POPC   C4A 4772   9.575  10.137  25.001
 9188POPC   C1B 4773   9.810  10.109  24.414
 9188POPC   C2B 4774   9.798  10.111  24.614
 9188POPC   C3B 4775   9.786  10.114  24.814
 9188POPC   C4B 4776   9.774  10.117  25.013
 9189POPC   NC3 4777   4.379  22.533   7.875
 9189POPC   PO4 4778   4.285  22.707   7.844
 9189POPC   GL1 4779   4.191  22.881   7.813
 9189POPC   GL2 4780   4.242  22.893   7.728
 9189POPC   C1A 4781   4.098  23.055   7.782
 9189POPC   D2A 4782   4.004  23.229   7.750
 9189POPC   C3A 4783   3.911  23.403   7.719
 9189POPC   C4A 4784   3.817  23.577   7.688
 9189POPC   C1B 4785   4.242  23.151   7.882
 9189POPC   C2B 4786   4.148  23.325   7.851
 9189POPC   C3B 4787   4.055  23.499   7.820
 9189POPC   C4B 4788   3.961  23.673   7.788
 9190POPC   NC3 4789  16.632  -1.362   5.879
 9190POPC   PO4 4790  16.725  -1.529   5.819
 9190POPC   GL1 4791  16.818  -1.696   5.759
 9190POPC   GL2 4792  16.906  -1.656   5.784
 9190POPC   C1A 4793  16.910  -1.863   5.699
 9190POPC   D2A 4794  17.003  -2.029   5.638
 9190POPC   C3A 4795  17.095  -2.196   5.578
 9190POPC   C4A 4796  17.188  -2.363   5.518
 9190POPC   C1B 4797  16.927  -1.787   5.514
 9190POPC   C2B 4798  17.020  -1.953   5.454
 9190POPC   C3B 4799  17.113  -2.120   5.394
 9190POPC   C4B 4800  17.205  -2.287   5.334
 9191POPC   NC3 4801   1.425  13.392  -0.477
 9191POPC   PO4 4802   1.306  13.436  -0.631
 9191POPC   GL1 4803   1.187  13.480  -0.785
 9191POPC   GL2 4804   1.111  13.494  -0.722
 9191POPC   C1A 4805   1.068  13.524  -0.940
 9191POPC   D2A 4806   0.949  13.569  -1.094
 9191POPC   C3A 4807   0.830  13.613  -1.249
 9191POPC   C4A 4808   0.711  13.657  -1.403
 9191POPC   C1B 4809   1.018  13.331  -0.957
 9191POPC   C2B 4810   0.899  13.376  -1.111
 9191POPC   C3B 4811   0.780  13.420  -1.266
 9191POPC   C4B 4812   0.661  13.464  -1.420
 9192POPC   NC3 4813  11.419  21.496  17.453
 9192POPC   PO4 4814  11.450  21.660  17.564
 9192POPC   GL1 4815  11.481  21.824  17.675
 9192POPC   GL2 4816  11.580  21.809  17.669
 9192POPC   C1A 4817  11.512  21.987  17.786
 9192POPC   D2A 4818  11.542  22.151  17.897
 9192POPC   C3A 4819  11.573  22.314  18.008
 9192POPC   C4A 4820  11.604  22.478  18.119
 9192POPC   C1B 4821  11.504  21.876  17.952
 9192POPC   C2B 4822  11.535  22.039  18.063
 9192POPC   C3B 4823  11.566  22.203  18.174
 9192POPC   C4B 4824  11.597  22.367  18.285
 9193POPC   NC3 4825  14.259   8.522  -3.085
 9193POPC   PO4 4826  14.332   8.497  -3.270
 9193POPC   GL1 4827  14.405   8.472  -3.455
 9193POPC   GL2 4828  14.312   8.456  -3.489
 9193POPC   C1A 4829  14.478   8.448  -3.639
 9193POPC   D2A 4830  14.550   8.423  -3.824
 9193POPC   C3A 4831  14.623   8.399  -4.008
 9193POPC   C4A 4832  14.696   8.374  -4.193
 9193POPC   C1B 4833  14.500   8.252  -3.605
 9193POPC   C2B 4834  14.572   8.227  -3.789
 9193POPC   C3B 4835  14.645   8.203  -3.974
 9193POPC   C4B 4836  14.718   8.178  -4.158
 9194POPC   NC3 4837  14.942   4.453  -1.748
 9194POPC   PO4 4838  15.020   4.385  -1.919
 9194POPC   GL1 4839  15.098   4.317  -2.090
 9194POPC   GL2 4840  15.146   4.404  -2.103
 9194POPC   C1A 4841  15.177   4.249  -2.261
 9194POPC   D2A 4842  15.255   4.182  -2.432
 9194POPC   C3A 4843  15.334   4.114  -2.603
 9194POPC   C4A 4844  15.412   4.046  -2.774
 9194POPC   C1B 4845  15.019   4.321  -2.362
 9194POPC   C2B 4846  15.098   4.253  -2.533
 9194POPC   C3B 4847  15.176   4.185  -2.704
 9194POPC   C4B 4848  15.255   4.118  -2.875
 9195POPC   NC3 4849   0.727  17.927  16.678
 9195POPC   PO4 4850   0.594  18.041  16.775
 9195POPC   GL1 4851   0.461  18.155  16.872
 9195POPC   GL2 4852   0.535  18.191  16.929
 9195POPC   C1A 4853   0.329  18.268  16.970
 9195POPC   D2A 4854   0.196  18.382  17.067
 9195POPC   C3A 4855   0.064  18.495  17.165
 9195POPC   C4A 4856  -0.069  18.609  17.262
 9195POPC   C1B 4857   0.300  18.121  17.102
 9195POPC   C2B 4858   0.167  18.235  17.199
 9195POPC   C3B 4859   0.035  18.348  17.297
 9195POPC   C4B 4860  -0.098  18.462  17.394
 9196POPC   NC3 4861  -0.631  13.011   1.280
 9196POPC   PO4 4862  -0.777  13.051   1.150
 9196POPC   GL1 4863  -0.923  13.091   1.020
 9196POPC   GL2 4864  -0.980  13.021   1.062
 9196POPC   C1A 4865  -1.070  13.130   0.889
 9196POPC   D2A 4866  -1.216  13.170   0.759
 9196POPC   C3A 4867  -1.363  13.209   0.628
 9196POPC   C4A 4868  -1.509  13.249   0.498
 9196POPC   C1B 4869  -0.995  12.993   0.764
 9196POPC   C2B 4870  -1.142  13.033   0.634
 9196POPC   C3B 4871  -1.288  13.072   0.503
 9196POPC   C4B 4872  -1.434  13.112   0.373
 9197POPC   NC3 4873   1.339   7.551  20.544
 9197POPC   PO4 4874   1.215   7.509  20.695
 9197POPC   GL1 4875   1.091   7.467  20.846
 9197POPC   GL2 4876   1.165   7.486  20.912
 9197POPC   C1A 4877   0.968   7.425  20.998
 9197POPC   D2A 4878   0.844   7.383  21.149
 9197POPC   C3A 4879   0.721   7.341  21.301
 9197POPC   C4A 4880   0.597   7.299  21.452
 9197POPC   C1B 4881   1.024   7.233  20.990
 9197POPC   C2B 4882   0.900   7.191  21.141
 9197POPC   C3B 4883   0.776   7.149  21.293
 9197POPC   C4B 4884   0.653   7.107  21.444
 9198POPC   NC3 4885  23.511   9.164   8.160
 9198POPC   PO4 4886  23.709   9.152   8.137
 9198POPC   GL1 4887  23.907   9.140   8.114
 9198POPC   GL2 4888  23.900   9.041   8.101
 9198POPC   C1A 4889  24.106   9.128   8.091
 9198POPC   D2A 4890  24.304   9.116   8.068
 9198POPC   C3A 4891  24.503   9.104   8.045
 9198POPC   C4A 4892  24.701   9.092   8.022
 9198POPC   C1B 4893  24.127   9.100   8.288
 9198POPC   C2B 4894  24.325   9.088   8.265
 9198POPC   C3B 4895  24.524   9.076   8.242
 9198POPC   C4B 4896  24.722   9.064   8.219
 9199POPC   NC3 4897  21.782  12.999  16.375
 9199POPC   PO4 4898  21.957  13.042  16.462
 9199POPC   GL1 4899  22.132  13.085  16.549
 9199POPC   GL2 4900  22.129  13.177  16.510
 9199POPC   C1A 4901  22.307  13.128  16.637
 9199POPC   D2A 4902  22.481  13.170  16.724
 9199POPC   C3A 4903  22.656  13.213  16.812
 9199POPC   C4A 4904  22.831  13.256  16.899
 9199POPC   C1B 4905  22.404  13.061  16.475
 9199POPC   C2B 4906  22.579  13.104  16.563
 9199POPC   C3B 4907  22.753  13.146  16.650
 9199POPC   C4B 4908  22.928  13.189  16.737
 9200POPC   NC3 4909  21.107  11.967  17.839
 9200POPC   PO4 4910  21.266  11.994  17.958
 9200POPC   GL1 4911  21.425  12.021  18.077
 9200POPC   GL2 4912  21.444  12.108  18.031
 9200POPC   C1A 4913  21.584  12.049  18.195
 9200POPC   D2A 4914  21.742  12.076  18.314
 9200POPC   C3A 4915  21.901  12.104  18.432
 9200POPC   C4A 4916  22.060  12.131  18.551
 9200POPC   C1B 4917  21.699  11.954  18.062
 9200POPC   C2B 4918  21.858  11.981  18.181
 9200POPC   C3B 4919  22.017  12.009  18.300
 9200POPC   C4B 4920  22.176  12.036  18.418
 9201POPC   NC3 4921  20.821  12.912  17.932
 9201POPC   PO4 4922  20.972  12.955  18.055
 9201POPC   GL1 4923  21.123  12.998  18.178
 9201POPC   GL2 4924  21.138  12.900  18.195
 9201POPC   C1A 4925  21.275  13.041  18.302
 9201POPC   D2A 4926  21.426  13.083  18.425
 9201POPC   C3A 4927  21.578  13.126  18.549
 9201POPC   C4A 4928  21.729  13.169  18.672
 9201POPC   C1B 4929  21.147  13.048  18.456
 9201POPC   C2B 4930  21.299  13.091  18.579
 9201POPC   C3B 4931  21.450  13.134  18.703
 9201POPC   C4B 4932  21.602  13.176  18.826
 9202POPC   NC3 4933   4.518   6.025  22.114
 9202POPC   PO4 4934   4.438   5.969  22.288
 9202POPC   GL1 4935   4.358   5.913  22.462
 9202POPC   GL2 4936   4.389   5.819  22.446
 9202POPC   C1A 4937   4.278   5.856  22.637
 9202POPC   D2A 4938   4.199   5.800  22.811
 9202POPC   C3A 4939   4.119   5.743  22.986
 9202POPC   C4A 4940   4.039   5.687  23.160
 9202POPC   C1B 4941   4.106   5.815  22.544
 9202POPC   C2B 4942   4.026   5.758  22.719
 9202POPC   C3B 4943   3.946   5.702  22.893
 9202POPC   C4B 4944   3.866   5.646  23.068
 9203POPC   NC3 4945  18.682   2.752  17.773
 9203POPC   PO4 4946  18.807   2.649  17.890
 9203POPC   GL1 4947  18.932   2.546  18.007
 9203POPC   GL2 4948  19.000   2.545  17.934
 9203POPC   C1A 4949  19.057   2.443  18.125
 9203POPC   D2A 4950  19.182   2.339  18.242
 9203POPC   C3A 4951  19.307   2.236  18.360
 9203POPC   C4A 4952  19.432   2.133  18.477
 9203POPC   C1B 4953  18.981   2.271  18.055
 9203POPC   C2B 4954  19.106   2.168  18.173
 9203POPC   C3B 4955  19.231   2.065  18.290
 9203POPC   C4B 4956  19.356   1.962  18.408
 9204POPC   NC3 4957  21.961  11.699  16.515
 9204POPC   PO4 4958  22.138  11.723  16.605
 9204POPC   GL1 4959  22.315  11.747  16.695
 9204POPC   GL2 4960  22.355  11.678  16.635
 9204POPC   C1A 4961  22.492  11.771  16.784
 9204POPC   D2A 4962  22.670  11.795  16.874
 9204POPC   C3A 4963  22.847  11.819  16.963
 9204POPC   C4A 4964  23.024  11.843  17.053
 9204POPC   C1B 4965  22.445  11.629  16.917
 9204POPC   C2B 4966  22.622  11.653  17.006
 9204POPC   C3B 4967  22.799  11.677  17.096
 9204POPC   C4B 4968  22.976  11.701  17.186
 9205POPC   NC3 4969  10.626   6.404  23.292
 9205POPC   PO4 4970  10.632   6.348  23.484
 9205POPC   GL1 4971  10.638   6.292  23.676
 9205POPC   GL2 4972  10.679   6.204  23.649
 9205POPC   C1A 4973  10.645   6.236  23.868
 9205POPC   D2A 4974  10.651   6.179  24.059
 9205POPC   C3A 4975  10.658   6.123  24.251
 9205POPC   C4A 4976  10.664   6.067  24.443
 9205POPC   C1B 4977  10.462   6.157  23.851
 9205POPC   C2B 4978  10.468   6.101  24.042
 9205POPC   C3B 4979  10.475   6.044  24.234
 9205POPC   C4B 4980  10.481   5.988  24.426
 9206POPC   NC3 4981   6.926   8.462  23.369
 9206POPC   PO4 4982   6.887   8.441  23.564
 9206POPC   GL1 4983   6.848   8.420  23.759
 9206POPC   GL2 4984   6.945   8.425  23.779
 9206POPC   C1A 4985   6.808   8.399  23.954
 9206POPC   D2A 4986   6.769   8.377  24.149
 9206POPC   C3A 4987   6.729   8.356  24.344
 9206POPC   C4A 4988   6.690   8.335  24.539
 9206POPC   C1B 4989   6.823   8.200  23.935
 9206POPC   C2B 4990   6.783   8.179  24.130
 9206POPC   C3B 4991   6.744   8.158  24.325
 9206POPC   C4B 4992   6.704   8.136  24.520
 9207POPC   NC3 4993  -3.191  10.389   5.496
 9207POPC   PO4 4994  -3.382  10.396   5.436
 9207POPC   GL1 4995  -3.573  10.403   5.376
 9207POPC   GL2 4996  -3.603  10.377   5.467
 9207POPC   C1A 4997  -3.763  10.409   5.315
 9207POPC   D2A 4998  -3.954  10.416   5.255
 9207POPC   C3A 4999  -4.144  10.422   5.194
 9207POPC   C4A 5000  -4.335  10.429   5.134
 9207POPC   C1B 5001  -3.754  10.216   5.264
 9207POPC   C2B 5002  -3.944  10.223   5.203
 9207POPC   C3B 5003  -4.135  10.229   5.143
 9207POPC   C4B 5004  -4.325  10.236   5.083
 9208POPC   NC3 5005  10.974  18.564  -0.838
 9208POPC   PO4 5006  10.987  18.691  -0.992
 9208POPC   GL1 5007  11.000  18.818  -1.146
 9208POPC   GL2 5008  11.032  18.890  -1.085
 9208POPC   C1A 5009  11.013  18.944  -1.301
 9208POPC   D2A 5010  11.027  19.071  -1.455
 9208POPC   C3A 5011  11.040  19.197  -1.610
 9208POPC   C4A 5012  11.053  19.324  -1.764
 9208POPC   C1B 5013  10.824  19.002  -1.270
 9208POPC   C2B 5014  10.838  19.128  -1.424
 9208POPC   C3B 5015  10.851  19.255  -1.579
 9208POPC   C4B 5016  10.864  19.381  -1.733
 9209POPC   NC3 5017  -0.761  18.229   6.394
 9209POPC   PO4 5018  -0.912  18.347   6.338
 9209POPC   GL1 5019  -1.063  18.465   6.282
 9209POPC   GL2 5020  -1.093  18.472   6.377
 9209POPC   C1A 5021  -1.215  18.583   6.226
 9209POPC   D2A 5022  -1.366  18.701   6.170
 9209POPC   C3A 5023  -1.518  18.819   6.114
 9209POPC   C4A 5024  -1.669  18.937   6.058
 9209POPC   C1B 5025  -1.331  18.422   6.202
 9209POPC   C2B 5026  -1.483  18.540   6.146
 9209POPC   C3B 5027  -1.634  18.658   6.090
 9209POPC   C4B 5028  -1.785  18.776   6.034
 9210POPC   NC3 5029   9.195  -3.606   7.331
 9210POPC   PO4 5030   9.182  -3.803   7.298
 9210POPC   GL1 5031   9.169  -4.000   7.265
 9210POPC   GL2 5032   9.268  -4.005   7.254
 9210POPC   C1A 5033   9.156  -4.197   7.232
 9210POPC   D2A 5034   9.142  -4.393   7.199
 9210POPC   C3A 5035   9.129  -4.590   7.166
 9210POPC   C4A 5036   9.116  -4.787   7.133
 9210POPC   C1B 5037   9.135  -4.162   7.036
 9210POPC   C2B 5038   9.122  -4.359   7.003
 9210POPC   C3B 5039   9.109  -4.556   6.970
 9210POPC   C4B 5040   9.096  -4.753   6.937
 9211POPC   NC3 5041  22.407  11.892  15.479
 9211POPC   PO4 5042  22.590  11.923  15.555
 9211POPC   GL1 5043  22.773  11.954  15.631
 9211POPC   GL2 5044  22.803  11.867  15.592
 9211POPC   C1A 5045  22.955  11.984  15.706
 9211POPC   D2A 5046  23.138  12.015  15.782
 9211POPC   C3A 5047  23.320  12.045  15.857
 9211POPC   C4A 5048  23.503  12.076  15.933
 9211POPC   C1B 5049  22.901  11.890  15.874
 9211POPC   C2B 5050  23.084  11.921  15.950
 9211POPC   C3B 5051  23.267  11.951  16.025
 9211POPC   C4B 5052  23.449  11.982  16.101
 9212POPC   NC3 5053  -3.951  10.809  11.227
 9212POPC   PO4 5054  -4.150  10.818  11.248
 9212POPC   GL1 5055  -4.349  10.827  11.269
 9212POPC   GL2 5056  -4.339  10.909  11.326
 9212POPC   C1A 5057  -4.547  10.836  11.290
 9212POPC   D2A 5058  -4.746  10.846  11.312
 9212POPC   C3A 5059  -4.944  10.855  11.333
 9212POPC   C4A 5060  -5.143  10.864  11.354
 9212POPC   C1B 5061  -4.535  10.721  11.454
 9212POPC   C2B 5062  -4.734  10.731  11.475
 9212POPC   C3B 5063  -4.932  10.740  11.496
 9212POPC   C4B 5064  -5.131  10.749  11.517
 9213POPC   NC3 5065   2.794  17.190  19.387
 9213POPC   PO4 5066   2.687  17.288  19.525
 9213POPC   GL1 5067   2.580  17.386  19.663
 9213POPC   GL2 5068   2.637  17.346  19.735
 9213POPC   C1A 5069   2.474  17.483  19.801
 9213POPC   D2A 5070   2.367  17.581  19.940
 9213POPC   C3A 5071   2.261  17.678  20.078
 9213POPC   C4A 5072   2.154  17.776  20.216
 9213POPC   C1B 5073   2.348  17.328  19.814
 9213POPC   C2B 5074   2.242  17.426  19.952
 9213POPC   C3B 5075   2.135  17.523  20.091
 9213POPC   C4B 5076   2.028  17.621  20.229
 9214POPC   NC3 5077  22.405   9.462   4.093
 9214POPC   PO4 5078  22.585   9.455   4.007
 9214POPC   GL1 5079  22.765   9.448   3.921
 9214POPC   GL2 5080  22.748   9.537   3.877
 9214POPC   C1A 5081  22.946   9.442   3.835
 9214POPC   D2A 5082  23.126   9.435   3.748
 9214POPC   C3A 5083  23.307   9.429   3.662
 9214POPC   C4A 5084  23.487   9.422   3.576
 9214POPC   C1B 5085  22.867   9.349   3.676
 9214POPC   C2B 5086  23.047   9.342   3.590
 9214POPC   C3B 5087  23.227   9.336   3.504
 9214POPC   C4B 5088  23.408   9.329   3.418
 9215POPC   NC3 5089   6.949   4.263  -2.403
 9215POPC   PO4 5090   6.913   4.184  -2.583
 9215POPC   GL1 5091   6.877   4.105  -2.763
 9215POPC   GL2 5092   6.928   4.022  -2.737
 9215POPC   C1A 5093   6.841   4.026  -2.943
 9215POPC   D2A 5094   6.806   3.946  -3.124
 9215POPC   C3A 5095   6.770   3.867  -3.304
 9215POPC   C4A 5096   6.734   3.788  -3.484
 9215POPC   C1B 5097   7.010   4.107  -3.013
 9215POPC   C2B 5098   6.975   4.028  -3.193
 9215POPC   C3B 5099   6.939   3.949  -3.373
 9215POPC   C4B 5100   6.903   3.869  -3.553
 9216POPC   NC3 5101  16.484   2.245   0.505
 9216POPC   PO4 5102  16.583   2.135   0.371
 9216POPC   GL1 5103  16.682   2.025   0.237
 9216POPC   GL2 5104  16.669   2.096   0.168
 9216POPC   C1A 5105  16.781   1.914   0.103
 9216POPC   D2A 5106  16.881   1.804  -0.031
 9216POPC   C3A 5107  16.980   1.693  -0.165
 9216POPC   C4A 5108  17.079   1.583  -0.299
 9216POPC   C1B 5109  16.610   1.829   0.046
 9216POPC   C2B 5110  16.709   1.719  -0.088
 9216POPC   C3B 5111  16.808   1.608  -0.222
 9216POPC   C4B 5112  16.907   1.498  -0.356
 9217POPC   NC3 5113  23.047  14.087   8.834
 9217POPC   PO4 5114  23.235  14.154   8.818
 9217POPC   GL1 5115  23.423  14.221   8.802
 9217POPC   GL2 5116  23.415  14.218   8.702
 9217POPC   C1A 5117  23.610  14.288   8.786
 9217POPC   D2A 5118  23.798  14.356   8.769
 9217POPC   C3A 5119  23.985  14.423   8.753
 9217POPC   C4A 5120  24.173  14.490   8.737
 9217POPC   C1B 5121  23.678  14.100   8.787
 9217POPC   C2B 5122  23.865  14.167   8.770
 9217POPC   C3B 5123  24.053  14.235   8.754
 9217POPC   C4B 5124  24.241  14.302   8.738
 9218POPC   NC3 5125   8.312   5.418  -3.017
 9218POPC   PO4 5126   8.296   5.355  -3.206
 9218POPC   GL1 5127   8.280   5.292  -3.395
 9218POPC   GL2 5128   8.328   5.374  -3.426
 9218POPC   C1A 5129   8.265   5.229  -3.584
 9218POPC   D2A 5130   8.249   5.165  -3.773
 9218POPC   C3A 5131   8.234   5.102  -3.962
 9218POPC   C4A 5132   8.218   5.039  -4.151
 9218POPC   C1B 5133   8.089   5.323  -3.601
 9218POPC   C2B 5134   8.073   5.259  -3.790
 9218POPC   C3B 5135   8.058   5.196  -3.979
 9218POPC   C4B 5136   8.042   5.133  -4.168
 9219POPC   NC3 5137  19.178  18.292  15.762
 9219POPC   PO4 5138  19.311  18.419  15.840
 9219POPC   GL1 5139  19.444  18.546  15.918
 9219POPC   GL2 5140  19.453  18.591  15.829
 9219POPC   C1A 5141  19.577  18.674  15.996
 9219POPC   D2A 5142  19.710  18.801  16.074
 9219POPC   C3A 5143  19.843  18.929  16.152
 9219POPC   C4A 5144  19.976  19.056  16.230
 9219POPC   C1B 5145  19.725  18.549  15.948
 9219POPC   C2B 5146  19.858  18.676  16.026
 9219POPC   C3B 5147  19.991  18.803  16.104
 9219POPC   C4B 5148  20.124  18.931  16.182
 9220POPC   NC3 5149  11.858  23.408   7.266
 9220POPC   PO4 5150  11.890  23.601   7.223
 9220POPC   GL1 5151  11.922  23.794   7.180
 9220POPC   GL2 5152  11.995  23.797   7.248
 9220POPC   C1A 5153  11.954  23.986   7.137
 9220POPC   D2A 5154  11.985  24.179   7.094
 9220POPC   C3A 5155  12.017  24.371   7.051
 9220POPC   C4A 5156  12.049  24.564   7.008
 9220POPC   C1B 5157  11.821  24.039   7.277
 9220POPC   C2B 5158  11.853  24.232   7.234
 9220POPC   C3B 5159  11.885  24.425   7.191
 9220POPC   C4B 5160  11.916  24.617   7.148
 9221POPC   NC3 5161  -1.110  17.095  14.491
 9221POPC   PO4 5162  -1.269  17.198  14.554
 9221POPC   GL1 5163  -1.428  17.301  14.617
 9221POPC   GL2 5164  -1.368  17.369  14.659
 9221POPC   C1A 5165  -1.587  17.405  14.680
 9221POPC   D2A 5166  -1.747  17.508  14.743
 9221POPC   C3A 5167  -1.906  17.612  14.806
 9221POPC   C4A 5168  -2.065  17.715  14.869
 9221POPC   C1B 5169  -1.588  17.300  14.850
 9221POPC   C2B 5170  -1.748  17.403  14.913
 9221POPC   C3B 5171  -1.907  17.506  14.976
 9221POPC   C4B 5172  -2.066  17.610  15.039
 9222POPC   NC3 5173  -2.236  15.937   6.876
 9222POPC   PO4 5174  -2.413  16.016   6.825
 9222POPC   GL1 5175  -2.590  16.095   6.774
 9222POPC   GL2 5176  -2.556  16.186   6.797
 9222POPC   C1A 5177  -2.766  16.174   6.722
 9222POPC   D2A 5178  -2.943  16.252   6.671
 9222POPC   C3A 5179  -3.119  16.331   6.619
 9222POPC   C4A 5180  -3.296  16.410   6.568
 9222POPC   C1B 5181  -2.832  16.149   6.910
 9222POPC   C2B 5182  -3.008  16.228   6.858
 9222POPC   C3B 5183  -3.185  16.306   6.807
 9222POPC   C4B 5184  -3.362  16.385   6.755
 9223POPC   NC3 5185  14.687  22.925  10.435
 9223POPC   PO4 5186  14.765  23.109  10.440
 9223POPC   GL1 5187  14.843  23.293  10.445
 9223POPC   GL2 5188  14.918  23.263  10.386
 9223POPC   C1A 5189  14.920  23.478  10.450
 9223POPC   D2A 5190  14.998  23.662  10.454
 9223POPC   C3A 5191  15.075  23.847  10.459
 9223POPC   C4A 5192  15.153  24.031  10.464
 9223POPC   C1B 5193  15.027  23.429  10.611
 9223POPC   C2B 5194  15.105  23.613  10.616
 9223POPC   C3B 5195  15.182  23.798  10.621
 9223POPC   C4B 5196  15.260  23.982  10.626
 9224POPC   NC3 5197  -2.632  13.648  14.830
 9224POPC   PO4 5198  -2.811  13.701  14.902
 9224POPC   GL1 5199  -2.990  13.754  14.974
 9224POPC   GL2 5200  -2.965  13.850  14.965
 9224POPC   C1A 5201  -3.169  13.806  15.046
 9224POPC   D2A 5202  -3.348  13.859  15.117
 9224POPC   C3A 5203  -3.527  13.911  15.189
 9224POPC   C4A 5204  -3.706  13.964  15.261
 9224POPC   C1B 5205  -3.095  13.804  15.231
 9224POPC   C2B 5206  -3.274  13.857  15.303
 9224POPC   C3B 5207  -3.453  13.909  15.375
 9224POPC   C4B 5208  -3.632  13.962  15.447
 9225POPC   NC3 5209   6.607   5.982  -2.954
 9225POPC   PO4 5210   6.568   5.928  -3.143
 9225POPC   GL1 5211   6.529   5.874  -3.332
 9225POPC   GL2 5212   6.572   5.785  -3.315
 9225POPC   C1A 5213   6.490   5.820  -3.520
 9225POPC   D2A 5214   6.452   5.767  -3.709
 9225POPC   C3A 5215   6.413   5.713  -3.897
 9225POPC   C4A 5216   6.374   5.659  -4.086
 9225POPC   C1B 5217   6.667   5.894  -3.578
 9225POPC   C2B 5218   6.628   5.840  -3.766
 9225POPC   C3B 5219   6.590   5.786  -3.955
 9225POPC   C4B 5220   6.551   5.733  -4.143
 9226POPC   NC3 5221  -1.594  11.846  17.472
 9226POPC   PO4 5222  -1.758  11.865  17.585
 9226POPC   GL1 5223  -1.922  11.884  17.698
 9226POPC   GL2 5224  -1.914  11.788  17.725
 9226POPC   C1A 5225  -2.086  11.903  17.810
 9226POPC   D2A 5226  -2.251  11.921  17.923
 9226POPC   C3A 5227  -2.415  11.940  18.035
 9226POPC   C4A 5228  -2.579  11.959  18.148
 9226POPC   C1B 5229  -2.199  11.848  17.654
 9226POPC   C2B 5230  -2.364  11.867  17.767
 9226POPC   C3B 5231  -2.528  11.885  17.880
 9226POPC   C4B 5232  -2.692  11.904  17.992
 9227POPC   NC3 5233   6.881  14.296  -2.923
 9227POPC   PO4 5234   6.837  14.361  -3.107
 9227POPC   GL1 5235   6.793  14.426  -3.291
 9227POPC   GL2 5236   6.870  14.489  -3.287
 9227POPC   C1A 5237   6.749  14.490  -3.475
 9227POPC   D2A 5238   6.706  14.555  -3.660
 9227POPC   C3A 5239   6.662  14.619  -3.844
 9227POPC   C4A 5240   6.618  14.684  -4.028
 9227POPC   C1B 5241   6.630  14.630  -3.398
 9227POPC   C2B 5242   6.586  14.695  -3.582
 9227POPC   C3B 5243   6.542  14.760  -3.766
 9227POPC   C4B 5244   6.498  14.824  -3.950
 9228POPC   NC3 5245   8.972  20.071   0.554
 9228POPC   PO4 5246   8.957  20.219   0.420
 9228POPC   GL1 5247   8.942  20.367   0.286
 9228POPC   GL2 5248   9.039  20.388   0.299
 9228POPC   C1A 5249   8.927  20.515   0.152
 9228POPC   D2A 5250   8.913  20.662   0.018
 9228POPC   C3A 5251   8.898  20.810  -0.116
 9228POPC   C4A 5252   8.883  20.958  -0.250
 9228POPC   C1B 5253   8.881  20.643   0.298
 9228POPC   C2B 5254   8.866  20.790   0.164
 9228POPC   C3B 5255   8.851  20.938   0.030
 9228POPC   C4B 5256   8.836  21.086  -0.104
 9229POPC   NC3 5257  15.812  21.336   4.662
 9229POPC   PO4 5258  15.894  21.501   4.584
 9229POPC   GL1 5259  15.976  21.666   4.506
 9229POPC   GL2 5260  16.065  21.638   4.541
 9229POPC   C1A 5261  16.057  21.831   4.427
 9229POPC   D2A 5262  16.139  21.995   4.349
 9229POPC   C3A 5263  16.220  22.160   4.270
 9229POPC   C4A 5264  16.302  22.325   4.192
 9229POPC   C1B 5265  16.021  21.930   4.597
 9229POPC   C2B 5266  16.102  22.094   4.519
 9229POPC   C3B 5267  16.184  22.259   4.440
 9229POPC   C4B 5268  16.265  22.424   4.362
 9230POPC   NC3 5269   0.371   5.436   0.897
 9230POPC   PO4 5270   0.237   5.368   0.765
 9230POPC   GL1 5271   0.103   5.300   0.633
 9230POPC   GL2 5272   0.057   5.250   0.705
 9230POPC   C1A 5273  -0.030   5.232   0.500
 9230POPC   D2A 5274  -0.164   5.165   0.368
 9230POPC   C3A 5275  -0.297   5.097   0.235
 9230POPC   C4A 5276  -0.431   5.029   0.103
 9230POPC   C1B 5277   0.086   5.074   0.464
 9230POPC   C2B 5278  -0.047   5.006   0.331
 9230POPC   C3B 5279  -0.181   4.938   0.199
 9230POPC   C4B 5280  -0.315   4.871   0.067
 9231POPC   NC3 5281   8.218  18.572  20.651
 9231POPC   PO4 5282   8.190  18.701  20.801
 9231POPC   GL1 5283   8.162  18.830  20.951
 9231POPC   GL2 5284   8.253  18.868  20.936
 9231POPC   C1A 5285   8.134  18.959  21.101
 9231POPC   D2A 5286   8.105  19.088  21.252
 9231POPC   C3A 5287   8.077  19.217  21.402
 9231POPC   C4A 5288   8.049  19.346  21.552
 9231POPC   C1B 5289   8.210  18.826  21.230
 9231POPC   C2B 5290   8.182  18.955  21.380
 9231POPC   C3B 5291   8.153  19.084  21.530
 9231POPC   C4B 5292   8.125  19.213  21.680
 9232POPC   NC3 5293   9.678  12.699  -3.657
 9232POPC   PO4 5294   9.678  12.739  -3.853
 9232POPC   GL1 5295   9.678  12.779  -4.049
 9232POPC   GL2 5296   9.755  12.718  -4.062
 9232POPC   C1A 5297   9.677  12.820  -4.245
 9232POPC   D2A 5298   9.677  12.860  -4.440
 9232POPC   C3A 5299   9.676  12.901  -4.636
 9232POPC   C4A 5300   9.676  12.941  -4.832
 9232POPC   C1B 5301   9.803  12.972  -4.213
 9232POPC   C2B 5302   9.803  13.012  -4.409
 9232POPC   C3B 5303   9.803  13.053  -4.605
 9232POPC   C4B 5304   9.802  13.093  -4.801
 9233POPC   NC3 5305  -0.126   3.196   3.002
 9233POPC   PO4 5306  -0.264   3.095   2.899
 9233POPC   GL1 5307  -0.402   2.994   2.796
 9233POPC   GL2 5308  -0.349   2.910   2.806
 9233POPC   C1A 5309  -0.541   2.893   2.693
 9233POPC   D2A 5310  -0.679   2.792   2.589
 9233POPC   C3A 5311  -0.818   2.691   2.486
 9233POPC   C4A 5312  -0.956   2.590   2.383
 9233POPC   C1B 5313  -0.444   2.934   2.522
 9233POPC   C2B 5314  -0.583   2.833   2.419
 9233POPC   C3B 5315  -0.721   2.732   2.316
 9233POPC   C4B 5316  -0.859   2.631   2.213
 9234POPC   NC3 5317  15.401  22.604  10.418
 9234POPC   PO4 5318  15.487  22.785  10.423
 9234POPC   GL1 5319  15.573  22.966  10.428
 9234POPC   GL2 5320  15.661  22.923  10.447
 9234POPC   C1A 5321  15.658  23.146  10.433
 9234POPC   D2A 5322  15.744  23.327  10.439
 9234POPC   C3A 5323  15.829  23.507  10.444
 9234POPC   C4A 5324  15.915  23.688  10.449
 9234POPC   C1B 5325  15.621  23.158  10.630
 9234POPC   C2B 5326  15.707  23.339  10.635
 9234POPC   C3B 5327  15.793  23.519  10.640
 9234POPC   C4B 5328  15.878  23.700  10.645
 9235POPC   NC3 5329   5.543   4.857  -2.260
 9235POPC   PO4 5330   5.478   4.783  -2.434
 9235POPC   GL1 5331   5.413   4.709  -2.608
 9235POPC   GL2 5332   5.494   4.651  -2.614
 9235POPC   C1A 5333   5.348   4.635  -2.782
 9235POPC   D2A 5334   5.284   4.562  -2.957
 9235POPC   C3A 5335   5.219   4.488  -3.131
 9235POPC   C4A 5336   5.154   4.414  -3.305
 9235POPC   C1B 5337   5.446   4.780  -2.880
 9235POPC   C2B 5338   5.381   4.706  -3.054
 9235POPC   C3B 5339   5.317   4.632  -3.228
 9235POPC   C4B 5340   5.252   4.559  -3.403
 9236POPC   NC3 5341   0.691   3.473  17.971
 9236POPC   PO4 5342   0.562   3.381  18.092
 9236POPC   GL1 5343   0.433   3.289  18.213
 9236POPC   GL2 5344   0.503   3.223  18.239
 9236POPC   C1A 5345   0.303   3.197  18.335
 9236POPC   D2A 5346   0.174   3.104  18.456
 9236POPC   C3A 5347   0.044   3.012  18.578
 9236POPC   C4A 5348  -0.085   2.920  18.699
 9236POPC   C1B 5349   0.247   3.077  18.184
 9236POPC   C2B 5350   0.118   2.985  18.306
 9236POPC   C3B 5351  -0.011   2.893  18.427
 9236POPC   C4B 5352  -0.141   2.801  18.549
 9237POPC   NC3 5353  14.623   3.855  -1.621
 9237POPC   PO4 5354  14.692   3.771  -1.789
 9237POPC   GL1 5355  14.761   3.687  -1.957
 9237POPC   GL2 5356  14.693   3.738  -2.010
 9237POPC   C1A 5357  14.829   3.604  -2.125
 9237POPC   D2A 5358  14.898   3.520  -2.294
 9237POPC   C3A 5359  14.966   3.437  -2.462
 9237POPC   C4A 5360  15.035   3.353  -2.630
 9237POPC   C1B 5361  14.699   3.453  -2.104
 9237POPC   C2B 5362  14.768   3.370  -2.272
 9237POPC   C3B 5363  14.836   3.286  -2.440
 9237POPC   C4B 5364  14.905   3.203  -2.608
 9238POPC   NC3 5365  23.088  12.237  13.222
 9238POPC   PO4 5366  23.279  12.270  13.272
 9238POPC   GL1 5367  23.470  12.303  13.322
 9238POPC   GL2 5368  23.460  12.399  13.295
 9238POPC   C1A 5369  23.660  12.336  13.373
 9238POPC   D2A 5370  23.851  12.370  13.423
 9238POPC   C3A 5371  24.041  12.403  13.474
 9238POPC   C4A 5372  24.232  12.436  13.524
 9238POPC   C1B 5373  23.717  12.290  13.187
 9238POPC   C2B 5374  23.908  12.323  13.237
 9238POPC   C3B 5375  24.099  12.356  13.288
 9238POPC   C4B 5376  24.289  12.389  13.338
 9239POPC   NC3 5377   2.369  18.671   2.135
 9239POPC   PO4 5378   2.261  18.802   2.030
 9239POPC   GL1 5379   2.153  18.933   1.925
 9239POPC   GL2 5380   2.084  18.935   1.998
 9239POPC   C1A 5381   2.045  19.065   1.820
 9239POPC   D2A 5382   1.937  19.196   1.714
 9239POPC   C3A 5383   1.829  19.328   1.609
 9239POPC   C4A 5384   1.721  19.459   1.504
 9239POPC   C1B 5385   1.948  18.914   1.731
 9239POPC   C2B 5386   1.840  19.045   1.626
 9239POPC   C3B 5387   1.732  19.177   1.521
 9239POPC   C4B 5388   1.624  19.308   1.416
 9240POPC   NC3 5389   7.178  -1.368  17.429
 9240POPC   PO4 5390   7.141  -1.533  17.536
 9240POPC   GL1 5391   7.104  -1.698  17.643
 9240POPC   GL2 5392   7.147  -1.655  17.723
 9240POPC   C1A 5393   7.067  -1.862  17.751
 9240POPC   D2A 5394   7.031  -2.027  17.858
 9240POPC   C3A 5395   6.994  -2.191  17.966
 9240POPC   C4A 5396   6.957  -2.356  18.073
 9240POPC   C1B 5397   7.245  -1.937  17.697
 9240POPC   C2B 5398   7.208  -2.102  17.804
 9240POPC   C3B 5399   7.171  -2.266  17.911
 9240POPC   C4B 5400   7.134  -2.431  18.019
 9241POPC   NC3 5401  20.369   4.838  17.308
 9241POPC   PO4 5402  20.521   4.771  17.420
 9241POPC   GL1 5403  20.673   4.704  17.532
 9241POPC   GL2 5404  20.693   4.635  17.463
 9241POPC   C1A 5405  20.824   4.637  17.644
 9241POPC   D2A 5406  20.976   4.570  17.755
 9241POPC   C3A 5407  21.127   4.503  17.867
 9241POPC   C4A 5408  21.279   4.436  17.979
 9241POPC   C1B 5409  20.700   4.510  17.735
 9241POPC   C2B 5410  20.852   4.443  17.847
 9241POPC   C3B 5411  21.004   4.376  17.959
 9241POPC   C4B 5412  21.155   4.309  18.071
 9242POPC   NC3 5413  13.276  14.633  22.481
 9242POPC   PO4 5414  13.318  14.704  22.663
 9242POPC   GL1 5415  13.360  14.775  22.845
 9242POPC   GL2 5416  13.388  14.684  22.874
 9242POPC   C1A 5417  13.403  14.846  23.027
 9242POPC   D2A 5418  13.445  14.918  23.209
 9242POPC   C3A 5419  13.488  14.989  23.391
 9242POPC   C4A 5420  13.530  15.060  23.573
 9242POPC   C1B 5421  13.215  14.808  23.085
 9242POPC   C2B 5422  13.258  14.880  23.267
 9242POPC   C3B 5423  13.300  14.951  23.449
 9242POPC   C4B 5424  13.343  15.022  23.631
 9243POPC   NC3 5425  10.119  14.614  22.936
 9243POPC   PO4 5426  10.128  14.683  23.124
 9243POPC   GL1 5427  10.137  14.752  23.312
 9243POPC   GL2 5428  10.146  14.658  23.345
 9243POPC   C1A 5429  10.146  14.820  23.499
 9243POPC   D2A 5430  10.155  14.889  23.687
 9243POPC   C3A 5431  10.164  14.957  23.874
 9243POPC   C4A 5432  10.173  15.026  24.062
 9243POPC   C1B 5433   9.947  14.806  23.514
 9243POPC   C2B 5434   9.956  14.874  23.702
 9243POPC   C3B 5435   9.965  14.943  23.889
 9243POPC   C4B 5436   9.974  15.011  24.077
 9244POPC   NC3 5437  -0.123  18.560   5.535
 9244POPC   PO4 5438  -0.262  18.687   5.468
 9244POPC   GL1 5439  -0.401  18.814   5.401
 9244POPC   GL2 5440  -0.423  18.839   5.496
 9244POPC   C1A 5441  -0.540  18.942   5.335
 9244POPC   D2A 5442  -0.679  19.069   5.268
 9244POPC   C3A 5443  -0.818  19.197   5.202
 9244POPC   C4A 5444  -0.957  19.324   5.135
 9244POPC   C1B 5445  -0.677  18.796   5.340
 9244POPC   C2B 5446  -0.816  18.923   5.274
 9244POPC   C3B 5447  -0.955  19.051   5.207
 9244POPC   C4B 5448  -1.094  19.178   5.141
 9245POPC   NC3 5449  12.625  -0.157   0.938
 9245POPC   PO4 5450  12.669  -0.303   0.808
 9245POPC   GL1 5451  12.713  -0.449   0.678
 9245POPC   GL2 5452  12.727  -0.380   0.606
 9245POPC   C1A 5453  12.757  -0.594   0.548
 9245POPC   D2A 5454  12.802  -0.740   0.419
 9245POPC   C3A 5455  12.846  -0.885   0.289
 9245POPC   C4A 5456  12.890  -1.031   0.159
 9245POPC   C1B 5457  12.564  -0.608   0.499
 9245POPC   C2B 5458  12.608  -0.754   0.369
 9245POPC   C3B 5459  12.653  -0.900   0.239
 9245POPC   C4B 5460  12.697  -1.045   0.109
 9246POPC   NC3 5461   4.275  22.468  12.099
 9246POPC   PO4 5462   4.195  22.648  12.137
 9246POPC   GL1 5463   4.115  22.828  12.175
 9246POPC   GL2 5464   4.178  22.839  12.252
 9246POPC   C1A 5465   4.036  23.007  12.213
 9246POPC   D2A 5466   3.956  23.187  12.250
 9246POPC   C3A 5467   3.877  23.366  12.288
 9246POPC   C4A 5468   3.797  23.546  12.326
 9246POPC   C1B 5469   3.902  22.922  12.335
 9246POPC   C2B 5470   3.822  23.102  12.372
 9246POPC   C3B 5471   3.743  23.281  12.410
 9246POPC   C4B 5472   3.663  23.461  12.448
 9247POPC   NC3 5473   5.938  22.370   4.956
 9247POPC   PO4 5474   5.877  22.544   4.879
 9247POPC   GL1 5475   5.816  22.718   4.802
 9247POPC   GL2 5476   5.786  22.748   4.893
 9247POPC   C1A 5477   5.754  22.892   4.725
 9247POPC   D2A 5478   5.693  23.066   4.648
 9247POPC   C3A 5479   5.631  23.240   4.571
 9247POPC   C4A 5480   5.570  23.414   4.494
 9247POPC   C1B 5481   5.573  22.813   4.691
 9247POPC   C2B 5482   5.512  22.987   4.614
 9247POPC   C3B 5483   5.451  23.161   4.537
 9247POPC   C4B 5484   5.389  23.335   4.460
 9248POPC   NC3 5485  17.034  -1.841   9.219
 9248POPC   PO4 5486  17.135  -2.013   9.209
 9248POPC   GL1 5487  17.236  -2.185   9.199
 9248POPC   GL2 5488  17.320  -2.135   9.177
 9248POPC   C1A 5489  17.337  -2.357   9.190
 9248POPC   D2A 5490  17.439  -2.530   9.180
 9248POPC   C3A 5491  17.540  -2.702   9.171
 9248POPC   C4A 5492  17.641  -2.874   9.161
 9248POPC   C1B 5493  17.295  -2.372   8.995
 9248POPC   C2B 5494  17.396  -2.544   8.985
 9248POPC   C3B 5495  17.497  -2.716   8.976
 9248POPC   C4B 5496  17.598  -2.888   8.966
 9249POPC   NC3 5497  22.458  15.061  12.742
 9249POPC   PO4 5498  22.640  15.134  12.781
 9249POPC   GL1 5499  22.822  15.207  12.820
 9249POPC   GL2 5500  22.855  15.171  12.733
 9249POPC   C1A 5501  23.004  15.279  12.860
 9249POPC   D2A 5502  23.187  15.352  12.899
 9249POPC   C3A 5503  23.369  15.424  12.939
 9249POPC   C4A 5504  23.551  15.497  12.978
 9249POPC   C1B 5505  23.054  15.107  12.949
 9249POPC   C2B 5506  23.236  15.180  12.988
 9249POPC   C3B 5507  23.418  15.252  13.028
 9249POPC   C4B 5508  23.600  15.325  13.067
 9250POPC   NC3 5509   4.985   5.786  22.231
 9250POPC   PO4 5510   4.918   5.726  22.410
 9250POPC   GL1 5511   4.851   5.666  22.589
 9250POPC   GL2 5512   4.861   5.759  22.624
 9250POPC   C1A 5513   4.785   5.606  22.768
 9250POPC   D2A 5514   4.718   5.545  22.946
 9250POPC   C3A 5515   4.652   5.485  23.125
 9250POPC   C4A 5516   4.585   5.425  23.304
 9250POPC   C1B 5517   4.972   5.566  22.824
 9250POPC   C2B 5518   4.906   5.506  23.003
 9250POPC   C3B 5519   4.839   5.446  23.182
 9250POPC   C4B 5520   4.773   5.385  23.361
 9251POPC   NC3 5521   0.627  12.713  19.845
 9251POPC   PO4 5522   0.499  12.756  19.993
 9251POPC   GL1 5523   0.371  12.799  20.141
 9251POPC   GL2 5524   0.444  12.785  20.208
 9251POPC   C1A 5525   0.243  12.842  20.289
 9251POPC   D2A 5526   0.116  12.885  20.436
 9251POPC   C3A 5527  -0.012  12.928  20.584
 9251POPC   C4A 5528  -0.140  12.971  20.732
 9251POPC   C1B 5529   0.195  12.649  20.303
 9251POPC   C2B 5530   0.067  12.692  20.450
 9251POPC   C3B 5531  -0.061  12.735  20.598
 9251POPC   C4B 5532  -0.189  12.778  20.746
 9252POPC   NC3 5533  16.359   1.241  18.458
 9252POPC   PO4 5534  16.455   1.115  18.580
 9252POPC   GL1 5535  16.551   0.989  18.702
 9252POPC   GL2 5536  16.535   0.914  18.637
 9252POPC   C1A 5537  16.647   0.863  18.824
 9252POPC   D2A 5538  16.744   0.736  18.945
 9252POPC   C3A 5539  16.840   0.610  19.067
 9252POPC   C4A 5540  16.936   0.484  19.189
 9252POPC   C1B 5541  16.475   0.819  18.915
 9252POPC   C2B 5542  16.571   0.693  19.037
 9252POPC   C3B 5543  16.667   0.567  19.159
 9252POPC   C4B 5544  16.763   0.441  19.280
 9253POPC   NC3 5545  11.401   3.684  22.216
 9253POPC   PO4 5546  11.415   3.591  22.392
 9253POPC   GL1 5547  11.429   3.498  22.568
 9253POPC   GL2 5548  11.493   3.568  22.600
 9253POPC   C1A 5549  11.444   3.405  22.745
 9253POPC   D2A 5550  11.458   3.311  22.921
 9253POPC   C3A 5551  11.473   3.218  23.098
 9253POPC   C4A 5552  11.487   3.125  23.274
 9253POPC   C1B 5553  11.597   3.296  22.675
 9253POPC   C2B 5554  11.611   3.203  22.852
 9253POPC   C3B 5555  11.626   3.110  23.028
 9253POPC   C4B 5556  11.640   3.017  23.204
 9254POPC   NC3 5557  18.772   0.084   6.077
 9254POPC   PO4 5558  18.900  -0.060   6.022
 9254POPC   GL1 5559  19.028  -0.204   5.967
 9254POPC   GL2 5560  19.042  -0.158   5.879
 9254POPC   C1A 5561  19.156  -0.347   5.912
 9254POPC   D2A 5562  19.284  -0.491   5.858
 9254POPC   C3A 5563  19.412  -0.634   5.803
 9254POPC   C4A 5564  19.540  -0.778   5.748
 9254POPC   C1B 5565  19.005  -0.452   5.834
 9254POPC   C2B 5566  19.133  -0.596   5.779
 9254POPC   C3B 5567  19.261  -0.739   5.724
 9254POPC   C4B 5568  19.389  -0.883   5.669
 9255POPC   NC3 5569   4.382  10.029  -2.801
 9255POPC   PO4 5570   4.301  10.031  -2.984
 9255POPC   GL1 5571   4.220  10.033  -3.167
 9255POPC   GL2 5572   4.177   9.945  -3.149
 9255POPC   C1A 5573   4.139  10.035  -3.350
 9255POPC   D2A 5574   4.058  10.038  -3.532
 9255POPC   C3A 5575   3.977  10.040  -3.715
 9255POPC   C4A 5576   3.896  10.042  -3.898
 9255POPC   C1B 5577   4.301   9.942  -3.422
 9255POPC   C2B 5578   4.220   9.945  -3.605
 9255POPC   C3B 5579   4.139   9.947  -3.788
 9255POPC   C4B 5580   4.058   9.949  -3.971
 9256POPC   NC3 5581  -1.902  15.882  14.374
 9256POPC   PO4 5582  -2.070  15.970  14.437
 9256POPC   GL1 5583  -2.238  16.058  14.500
 9256POPC   GL2 5584  -2.205  16.054  14.595
 9256POPC   C1A 5585  -2.406  16.147  14.564
 9256POPC   D2A 5586  -2.573  16.235  14.627
 9256POPC   C3A 5587  -2.741  16.324  14.691
 9256POPC   C4A 5588  -2.909  16.412  14.754
 9256POPC   C1B 5589  -2.492  15.968  14.585
 9256POPC   C2B 5590  -2.660  16.056  14.648
 9256POPC   C3B 5591  -2.828  16.144  14.712
 9256POPC   C4B 5592  -2.995  16.233  14.775
 9257POPC   NC3 5593  19.875  13.819   1.130
 9257POPC   PO4 5594  20.022  13.868   1.003
 9257POPC   GL1 5595  20.169  13.917   0.876
 9257POPC   GL2 5596  20.150  13.835   0.823
 9257POPC   C1A 5597  20.315  13.966   0.749
 9257POPC   D2A 5598  20.462  14.015   0.623
 9257POPC   C3A 5599  20.608  14.064   0.496
 9257POPC   C4A 5600  20.755  14.113   0.369
 9257POPC   C1B 5601  20.446  13.864   0.861
 9257POPC   C2B 5602  20.592  13.913   0.734
 9257POPC   C3B 5603  20.739  13.962   0.607
 9257POPC   C4B 5604  20.886  14.011   0.481
 9258POPC   NC3 5605  20.122   9.039   0.704
 9258POPC   PO4 5606  20.274   9.032   0.574
 9258POPC   GL1 5607  20.426   9.025   0.444
 9258POPC   GL2 5608  20.407   9.120   0.417
 9258POPC   C1A 5609  20.578   9.019   0.315
 9258POPC   D2A 5610  20.731   9.012   0.185
 9258POPC   C3A 5611  20.883   9.006   0.056
 9258POPC   C4A 5612  21.035   8.999  -0.074
 9258POPC   C1B 5613  20.454   8.953   0.172
 9258POPC   C2B 5614  20.607   8.946   0.043
 9258POPC   C3B 5615  20.759   8.940  -0.087
 9258POPC   C4B 5616  20.911   8.933  -0.216
 9259POPC   NC3 5617  11.623   1.557  20.712
 9259POPC   PO4 5618  11.655   1.428  20.861
 9259POPC   GL1 5619  11.687   1.299  21.010
 9259POPC   GL2 5620  11.786   1.310  20.999
 9259POPC   C1A 5621  11.719   1.170  21.160
 9259POPC   D2A 5622  11.750   1.040  21.309
 9259POPC   C3A 5623  11.782   0.911  21.459
 9259POPC   C4A 5624  11.814   0.782  21.608
 9259POPC   C1B 5625  11.722   1.019  21.029
 9259POPC   C2B 5626  11.754   0.889  21.178
 9259POPC   C3B 5627  11.785   0.760  21.327
 9259POPC   C4B 5628  11.817   0.631  21.477
 9260POPC   NC3 5629  19.477   4.355  18.094
 9260POPC   PO4 5630  19.614   4.278  18.218
 9260POPC   GL1 5631  19.751   4.201  18.342
 9260POPC   GL2 5632  19.770   4.128  18.276
 9260POPC   C1A 5633  19.889   4.125  18.465
 9260POPC   D2A 5634  20.026   4.048  18.589
 9260POPC   C3A 5635  20.164   3.972  18.712
 9260POPC   C4A 5636  20.301   3.895  18.836
 9260POPC   C1B 5637  19.748   4.012  18.552
 9260POPC   C2B 5638  19.885   3.936  18.676
 9260POPC   C3B 5639  20.023   3.859  18.799
 9260POPC   C4B 5640  20.160   3.783  18.923
 9261POPC   NC3 5641  12.209   8.355  23.472
 9261POPC   PO4 5642  12.249   8.331  23.667
 9261POPC   GL1 5643  12.289   8.307  23.862
 9261POPC   GL2 5644  12.380   8.274  23.839
 9261POPC   C1A 5645  12.329   8.284  24.056
 9261POPC   D2A 5646  12.368   8.260  24.251
 9261POPC   C3A 5647  12.408   8.237  24.445
 9261POPC   C4A 5648  12.448   8.213  24.640
 9261POPC   C1B 5649  12.259   8.097  24.048
 9261POPC   C2B 5650  12.299   8.073  24.242
 9261POPC   C3B 5651  12.339   8.049  24.437
 9261POPC   C4B 5652  12.378   8.026  24.631
 9262POPC   NC3 5653  10.536  -3.524  12.916
 9262POPC   PO4 5654  10.548  -3.720  12.953
 9262POPC   GL1 5655  10.560  -3.916  12.990
 9262POPC   GL2 5656  10.626  -3.926  12.916
 9262POPC   C1A 5657  10.573  -4.112  13.028
 9262POPC   D2A 5658  10.585  -4.308  13.065
 9262POPC   C3A 5659  10.598  -4.504  13.103
 9262POPC   C4A 5660  10.610  -4.700  13.140
 9262POPC   C1B 5661  10.423  -4.146  12.899
 9262POPC   C2B 5662  10.436  -4.342  12.937
 9262POPC   C3B 5663  10.448  -4.538  12.974
 9262POPC   C4B 5664  10.461  -4.734  13.012
 9263POPC   NC3 5665  23.421  11.017  12.343
 9263POPC   PO4 5666  23.618  11.031  12.372
 9263POPC   GL1 5667  23.815  11.045  12.401
 9263POPC   GL2 5668  23.821  11.114  12.329
 9263POPC   C1A 5669  24.013  11.059  12.430
 9263POPC   D2A 5670  24.210  11.072  12.458
 9263POPC   C3A 5671  24.408  11.086  12.487
 9263POPC   C4A 5672  24.605  11.100  12.516
 9263POPC   C1B 5673  24.043  10.915  12.293
 9263POPC   C2B 5674  24.240  10.929  12.322
 9263POPC   C3B 5675  24.438  10.943  12.351
 9263POPC   C4B 5676  24.635  10.957  12.380
 9264POPC   NC3 5677  -1.926  11.706   2.761
 9264POPC   PO4 5678  -2.098  11.726   2.662
 9264POPC   GL1 5679  -2.270  11.746   2.563
 9264POPC   GL2 5680  -2.299  11.655   2.594
 9264POPC   C1A 5681  -2.443  11.766   2.463
 9264POPC   D2A 5682  -2.615  11.785   2.364
 9264POPC   C3A 5683  -2.788  11.805   2.264
 9264POPC   C4A 5684  -2.960  11.825   2.165
 9264POPC   C1B 5685  -2.359  11.683   2.301
 9264POPC   C2B 5686  -2.531  11.703   2.202
 9264POPC   C3B 5687  -2.704  11.723   2.103
 9264POPC   C4B 5688  -2.876  11.743   2.003
 9265POPC   NC3 5689  20.218   1.436   6.538
 9265POPC   PO4 5690  20.370   1.314   6.491
 9265POPC   GL1 5691  20.522   1.192   6.444
 9265POPC   GL2 5692  20.462   1.142   6.382
 9265POPC   C1A 5693  20.673   1.070   6.398
 9265POPC   D2A 5694  20.825   0.949   6.351
 9265POPC   C3A 5695  20.976   0.827   6.305
 9265POPC   C4A 5696  21.128   0.705   6.258
 9265POPC   C1B 5697  20.621   0.948   6.547
 9265POPC   C2B 5698  20.772   0.826   6.501
 9265POPC   C3B 5699  20.924   0.705   6.454
 9265POPC   C4B 5700  21.076   0.583   6.407
 9266POPC   NC3 5701   1.562  -1.089   9.246
 9266POPC   PO4 5702   1.441  -1.248   9.241
 9266POPC   GL1 5703   1.320  -1.407   9.236
 9266POPC   GL2 5704   1.398  -1.466   9.217
 9266POPC   C1A 5705   1.199  -1.566   9.231
 9266POPC   D2A 5706   1.078  -1.726   9.226
 9266POPC   C3A 5707   0.957  -1.885   9.221
 9266POPC   C4A 5708   0.836  -2.044   9.216
 9266POPC   C1B 5709   1.172  -1.540   9.035
 9266POPC   C2B 5710   1.051  -1.699   9.030
 9266POPC   C3B 5711   0.930  -1.858   9.025
 9266POPC   C4B 5712   0.809  -2.017   9.020
 9267POPC   NC3 5713   0.018  18.130  15.308
 9267POPC   PO4 5714  -0.124  18.247  15.385
 9267POPC   GL1 5715  -0.266  18.364  15.462
 9267POPC   GL2 5716  -0.205  18.443  15.455
 9267POPC   C1A 5717  -0.408  18.482  15.540
 9267POPC   D2A 5718  -0.551  18.599  15.617
 9267POPC   C3A 5719  -0.693  18.717  15.695
 9267POPC   C4A 5720  -0.835  18.834  15.772
 9267POPC   C1B 5721  -0.339  18.444  15.724
 9267POPC   C2B 5722  -0.481  18.562  15.801
 9267POPC   C3B 5723  -0.624  18.679  15.878
 9267POPC   C4B 5724  -0.766  18.796  15.956
 9268POPC   NC3 5725  -0.497   8.300  18.977
 9268POPC   PO4 5726  -0.648   8.279  19.106
 9268POPC   GL1 5727  -0.799   8.258  19.235
 9268POPC   GL2 5728  -0.746   8.304  19.305
 9268POPC   C1A 5729  -0.950   8.236  19.364
 9268POPC   D2A 5730  -1.102   8.215  19.494
 9268POPC   C3A 5731  -1.253   8.193  19.623
 9268POPC   C4A 5732  -1.404   8.172  19.752
 9268POPC   C1B 5733  -0.875   8.061  19.424
 9268POPC   C2B 5734  -1.026   8.039  19.553
 9268POPC   C3B 5735  -1.177   8.018  19.682
 9268POPC   C4B 5736  -1.328   7.997  19.811
 9269POPC   NC3 5737   4.064   3.097  -0.523
 9269POPC   PO4 5738   3.975   2.993  -0.669
 9269POPC   GL1 5739   3.886   2.889  -0.815
 9269POPC   GL2 5740   3.830   2.842  -0.747
 9269POPC   C1A 5741   3.797   2.785  -0.961
 9269POPC   D2A 5742   3.709   2.682  -1.108
 9269POPC   C3A 5743   3.620   2.578  -1.254
 9269POPC   C4A 5744   3.531   2.474  -1.400
 9269POPC   C1B 5745   3.937   2.643  -0.945
 9269POPC   C2B 5746   3.848   2.539  -1.091
 9269POPC   C3B 5747   3.759   2.436  -1.238
 9269POPC   C4B 5748   3.671   2.332  -1.384
 9270POPC   NC3 5749   7.732  23.692   9.887
 9270POPC   PO4 5750   7.708  23.890   9.884
 9270POPC   GL1 5751   7.684  24.088   9.881
 9270POPC   GL2 5752   7.693  24.091   9.981
 9270POPC   C1A 5753   7.659  24.287   9.878
 9270POPC   D2A 5754   7.635  24.485   9.875
 9270POPC   C3A 5755   7.610  24.684   9.872
 9270POPC   C4A 5756   7.586  24.882   9.869
 9270POPC   C1B 5757   7.462  24.263   9.897
 9270POPC   C2B 5758   7.437  24.461   9.894
 9270POPC   C3B 5759   7.413  24.660   9.891
 9270POPC   C4B 5760   7.388  24.858   9.888
 9271POPC   NC3 5761   4.898  19.481   1.133
 9271POPC   PO4 5762   4.831  19.625   1.011
 9271POPC   GL1 5763   4.764  19.769   0.889
 9271POPC   GL2 5764   4.792  19.838   0.956
 9271POPC   C1A 5765   4.696  19.913   0.768
 9271POPC   D2A 5766   4.629  20.056   0.646
 9271POPC   C3A 5767   4.561  20.200   0.525
 9271POPC   C4A 5768   4.494  20.344   0.403
 9271POPC   C1B 5769   4.517  19.902   0.855
 9271POPC   C2B 5770   4.449  20.046   0.734
 9271POPC   C3B 5771   4.382  20.190   0.612
 9271POPC   C4B 5772   4.314  20.334   0.490
 9272POPC   NC3 5773  23.158   7.661  13.111
 9272POPC   PO4 5774  23.350   7.627  13.153
 9272POPC   GL1 5775  23.542   7.593  13.195
 9272POPC   GL2 5776  23.546   7.523  13.124
 9272POPC   C1A 5777  23.735   7.559  13.238
 9272POPC   D2A 5778  23.927   7.525  13.280
 9272POPC   C3A 5779  24.120   7.491  13.323
 9272POPC   C4A 5780  24.312   7.457  13.365
 9272POPC   C1B 5781  23.681   7.419  13.370
 9272POPC   C2B 5782  23.873   7.385  13.413
 9272POPC   C3B 5783  24.066   7.351  13.455
 9272POPC   C4B 5784  24.258   7.317  13.497
 9273POPC   NC3 5785  10.714  11.288  -3.866
 9273POPC   PO4 5786  10.723  11.310  -4.065
 9273POPC   GL1 5787  10.732  11.332  -4.264
 9273POPC   GL2 5788  10.811  11.271  -4.267
 9273POPC   C1A 5789  10.741  11.354  -4.462
 9273POPC   D2A 5790  10.751  11.377  -4.661
 9273POPC   C3A 5791  10.760  11.399  -4.859
 9273POPC   C4A 5792  10.769  11.421  -5.058
 9273POPC   C1B 5793  10.863  11.511  -4.439
 9273POPC   C2B 5794  10.873  11.533  -4.638
 9273POPC   C3B 5795  10.882  11.556  -4.836
 9273POPC   C4B 5796  10.891  11.578  -5.035
 9274POPC   NC3 5797   2.681  21.785  10.136
 9274POPC   PO4 5798   2.576  21.955  10.129
 9274POPC   GL1 5799   2.471  22.125  10.122
 9274POPC   GL2 5800   2.541  22.166  10.063
 9274POPC   C1A 5801   2.367  22.295  10.115
 9274POPC   D2A 5802   2.262  22.466  10.108
 9274POPC   C3A 5803   2.158  22.636  10.101
 9274POPC   C4A 5804   2.053  22.806  10.094
 9274POPC   C1B 5805   2.465  22.362  10.276
 9274POPC   C2B 5806   2.360  22.533  10.269
 9274POPC   C3B 5807   2.256  22.703  10.262
 9274POPC   C4B 5808   2.151  22.873  10.255
 9275POPC   NC3 5809  20.765  17.021  14.784
 9275POPC   PO4 5810  20.920  17.129  14.851
 9275POPC   GL1 5811  21.075  17.237  14.918
 9275POPC   GL2 5812  21.061  17.303  14.845
 9275POPC   C1A 5813  21.229  17.344  14.986
 9275POPC   D2A 5814  21.384  17.452  15.053
 9275POPC   C3A 5815  21.538  17.559  15.121
 9275POPC   C4A 5816  21.693  17.667  15.188
 9275POPC   C1B 5817  21.353  17.240  14.869
 9275POPC   C2B 5818  21.508  17.347  14.936
 9275POPC   C3B 5819  21.662  17.455  15.004
 9275POPC   C4B 5820  21.817  17.562  15.071
 9276POPC   NC3 5821  15.208  18.365  19.647
 9276POPC   PO4 5822  15.283  18.484  19.789
 9276POPC   GL1 5823  15.358  18.603  19.931
 9276POPC   GL2 5824  15.447  18.603  19.884
 9276POPC   C1A 5825  15.434  18.722  20.073
 9276POPC   D2A 5826  15.509  18.842  20.214
 9276POPC   C3A 5827  15.585  18.961  20.356
 9276POPC   C4A 5828  15.660  19.080  20.498
 9276POPC   C1B 5829  15.489  18.562  20.178
 9276POPC   C2B 5830  15.565  18.681  20.320
 9276POPC   C3B 5831  15.640  18.800  20.462
 9276POPC   C4B 5832  15.715  18.919  20.603
 9277POPC   NC3 5833   7.791   5.830  22.894
 9277POPC   PO4 5834   7.759   5.765  23.080
 9277POPC   GL1 5835   7.727   5.700  23.266
 9277POPC   GL2 5836   7.823   5.675  23.274
 9277POPC   C1A 5837   7.695   5.635  23.453
 9277POPC   D2A 5838   7.663   5.571  23.639
 9277POPC   C3A 5839   7.631   5.506  23.826
 9277POPC   C4A 5840   7.599   5.441  24.012
 9277POPC   C1B 5841   7.653   5.453  23.382
 9277POPC   C2B 5842   7.621   5.388  23.569
 9277POPC   C3B 5843   7.589   5.323  23.755
 9277POPC   C4B 5844   7.557   5.259  23.941
 9278POPC   NC3 5845  -3.160   7.623  14.029
 9278POPC   PO4 5846  -3.350   7.588  14.081
 9278POPC   GL1 5847  -3.540   7.553  14.133
 9278POPC   GL2 5848  -3.510   7.529  14.225
 9278POPC   C1A 5849  -3.730   7.518  14.185
 9278POPC   D2A 5850  -3.920   7.483  14.236
 9278POPC   C3A 5851  -4.110   7.448  14.288
 9278POPC   C4A 5852  -4.300   7.413  14.340
 9278POPC   C1B 5853  -3.710   7.327  14.129
 9278POPC   C2B 5854  -3.900   7.292  14.181
 9278POPC   C3B 5855  -4.090   7.257  14.232
 9278POPC   C4B 5856  -4.280   7.222  14.284
 9279POPC   NC3 5857  20.200  17.289   4.323
 9279POPC   PO4 5858  20.348  17.399   4.246
 9279POPC   GL1 5859  20.496  17.509   4.169
 9279POPC   GL2 5860  20.537  17.426   4.130
 9279POPC   C1A 5861  20.644  17.619   4.091
 9279POPC   D2A 5862  20.793  17.728   4.014
 9279POPC   C3A 5863  20.941  17.838   3.936
 9279POPC   C4A 5864  21.089  17.948   3.859
 9279POPC   C1B 5865  20.750  17.594   4.259
 9279POPC   C2B 5866  20.899  17.703   4.182
 9279POPC   C3B 5867  21.047  17.813   4.104
 9279POPC   C4B 5868  21.195  17.923   4.027
 9280POPC   NC3 5869  23.490  11.594   8.101
 9280POPC   PO4 5870  23.688  11.609   8.078
 9280POPC   GL1 5871  23.886  11.624   8.055
 9280POPC   GL2 5872  23.873  11.699   7.991
 9280POPC   C1A 5873  24.084  11.638   8.032
 9280POPC   D2A 5874  24.283  11.653   8.010
 9280POPC   C3A 5875  24.481  11.667   7.987
 9280POPC   C4A 5876  24.679  11.682   7.964
 9280POPC   C1B 5877  24.076  11.509   7.880
 9280POPC   C2B 5878  24.275  11.523   7.857
 9280POPC   C3B 5879  24.473  11.538   7.835
 9280POPC   C4B 5880  24.671  11.552   7.812
 9281POPC   NC3 5881  -3.667  12.941  11.103
 9281POPC   PO4 5882  -3.861  12.987  11.119
 9281POPC   GL1 5883  -4.055  13.033  11.135
 9281POPC   GL2 5884  -4.039  13.067  11.228
 9281POPC   C1A 5885  -4.249  13.080  11.151
 9281POPC   D2A 5886  -4.442  13.126  11.167
 9281POPC   C3A 5887  -4.636  13.173  11.183
 9281POPC   C4A 5888  -4.830  13.219  11.199
 9281POPC   C1B 5889  -4.286  12.897  11.223
 9281POPC   C2B 5890  -4.480  12.944  11.239
 9281POPC   C3B 5891  -4.674  12.990  11.255
 9281POPC   C4B 5892  -4.868  13.036  11.271
 9282POPC   NC3 5893   8.289  -3.731   9.517
 9282POPC   PO4 5894   8.268  -3.930   9.511
 9282POPC   GL1 5895   8.247  -4.129   9.505
 9282POPC   GL2 5896   8.337  -4.137   9.462
 9282POPC   C1A 5897   8.226  -4.328   9.498
 9282POPC   D2A 5898   8.206  -4.526   9.492
 9282POPC   C3A 5899   8.185  -4.725   9.485
 9282POPC   C4A 5900   8.164  -4.924   9.479
 9282POPC   C1B 5901   8.142  -4.313   9.318
 9282POPC   C2B 5902   8.121  -4.512   9.311
 9282POPC   C3B 5903   8.100  -4.710   9.305
 9282POPC   C4B 5904   8.079  -4.909   9.298
 9283POPC   NC3 5905  -1.320   5.211  16.724
 9283POPC   PO4 5906  -1.477   5.135  16.822
 9283POPC   GL1 5907  -1.634   5.059  16.920
 9283POPC   GL2 5908  -1.596   4.967  16.910
 9283POPC   C1A 5909  -1.791   4.983  17.018
 9283POPC   D2A 5910  -1.949   4.908  17.115
 9283POPC   C3A 5911  -2.106   4.832  17.213
 9283POPC   C4A 5912  -2.263   4.756  17.311
 9283POPC   C1B 5913  -1.889   4.962  16.844
 9283POPC   C2B 5914  -2.046   4.886  16.942
 9283POPC   C3B 5915  -2.203   4.810  17.040
 9283POPC   C4B 5916  -2.361   4.735  17.138
 9284POPC   NC3 5917  23.500   8.185   8.988
 9284POPC   PO4 5918  23.698   8.163   8.974
 9284POPC   GL1 5919  23.896   8.141   8.960
 9284POPC   GL2 5920  23.904   8.233   8.922
 9284POPC   C1A 5921  24.095   8.120   8.947
 9284POPC   D2A 5922  24.293   8.098   8.933
 9284POPC   C3A 5923  24.492   8.077   8.920
 9284POPC   C4A 5924  24.690   8.055   8.906
 9284POPC   C1B 5925  24.074   8.044   8.763
 9284POPC   C2B 5926  24.272   8.022   8.749
 9284POPC   C3B 5927  24.471   8.000   8.736
 9284POPC   C4B 5928  24.669   7.979   8.722
 9285POPC   NC3 5929  12.026   9.067  -3.776
 9285POPC   PO4 5930  12.054   9.053  -3.973
 9285POPC   GL1 5931  12.082   9.039  -4.170
 9285POPC   GL2 5932  12.107   9.135  -4.174
 9285POPC   C1A 5933  12.111   9.024  -4.368
 9285POPC   D2A 5934  12.139   9.010  -4.565
 9285POPC   C3A 5935  12.168   8.995  -4.763
 9285POPC   C4A 5936  12.196   8.981  -4.960
 9285POPC   C1B 5937  11.919   9.071  -4.399
 9285POPC   C2B 5938  11.947   9.057  -4.596
 9285POPC   C3B 5939  11.976   9.043  -4.794
 9285POPC   C4B 5940  12.004   9.028  -4.991
 9286POPC   NC3 5941   0.927  20.512   9.429
 9286POPC   PO4 5942   0.803  20.668   9.415
 9286POPC   GL1 5943   0.679  20.824   9.401
 9286POPC   GL2 5944   0.719  20.864   9.484
 9286POPC   C1A 5945   0.555  20.981   9.386
 9286POPC   D2A 5946   0.432  21.137   9.372
 9286POPC   C3A 5947   0.308  21.294   9.357
 9286POPC   C4A 5948   0.184  21.450   9.343
 9286POPC   C1B 5949   0.420  20.884   9.497
 9286POPC   C2B 5950   0.296  21.040   9.483
 9286POPC   C3B 5951   0.172  21.197   9.468
 9286POPC   C4B 5952   0.049  21.353   9.454
 9287POPC   NC3 5953  -2.346  12.126   3.735
 9287POPC   PO4 5954  -2.526  12.160   3.655
 9287POPC   GL1 5955  -2.706  12.194   3.575
 9287POPC   GL2 5956  -2.743  12.211   3.666
 9287POPC   C1A 5957  -2.886  12.228   3.495
 9287POPC   D2A 5958  -3.067  12.261   3.416
 9287POPC   C3A 5959  -3.247  12.295   3.336
 9287POPC   C4A 5960  -3.427  12.329   3.256
 9287POPC   C1B 5961  -2.931  12.034   3.515
 9287POPC   C2B 5962  -3.111  12.067   3.435
 9287POPC   C3B 5963  -3.292  12.101   3.355
 9287POPC   C4B 5964  -3.472  12.135   3.275
 9288POPC   NC3 5965   8.606  13.739  23.186
 9288POPC   PO4 5966   8.581  13.787  23.378
 9288POPC   GL1 5967   8.556  13.835  23.570
 9288POPC   GL2 5968   8.613  13.758  23.597
 9288POPC   C1A 5969   8.531  13.884  23.763
 9288POPC   D2A 5970   8.507  13.932  23.955
 9288POPC   C3A 5971   8.482  13.981  24.148
 9288POPC   C4A 5972   8.457  14.029  24.340
 9288POPC   C1B 5973   8.369  13.768  23.771
 9288POPC   C2B 5974   8.344  13.816  23.963
 9288POPC   C3B 5975   8.319  13.865  24.156
 9288POPC   C4B 5976   8.294  13.913  24.348
 9289POPC   NC3 5977  21.907  16.271  12.625
 9289POPC   PO4 5978  22.080  16.363  12.663
 9289POPC   GL1 5979  22.253  16.455  12.701
 9289POPC   GL2 5980  22.232  16.524  12.631
 9289POPC   C1A 5981  22.427  16.547  12.738
 9289POPC   D2A 5982  22.600  16.640  12.776
 9289POPC   C3A 5983  22.774  16.732  12.813
 9289POPC   C4A 5984  22.947  16.824  12.851
 9289POPC   C1B 5985  22.517  16.435  12.599
 9289POPC   C2B 5986  22.690  16.528  12.636
 9289POPC   C3B 5987  22.863  16.620  12.674
 9289POPC   C4B 5988  23.037  16.712  12.712
 9290POPC   NC3 5989   6.660   3.224  21.586
 9290POPC   PO4 5990   6.630   3.136  21.763
 9290POPC   GL1 5991   6.600   3.048  21.940
 9290POPC   GL2 5992   6.698   3.046  21.956
 9290POPC   C1A 5993   6.569   2.959  22.117
 9290POPC   D2A 5994   6.539   2.871  22.293
 9290POPC   C3A 5995   6.508   2.782  22.470
 9290POPC   C4A 5996   6.478   2.694  22.647
 9290POPC   C1B 5997   6.582   2.780  22.029
 9290POPC   C2B 5998   6.551   2.691  22.206
 9290POPC   C3B 5999   6.521   2.603  22.383
 9290POPC   C4B 6000   6.490   2.515  22.560
 9291POPC   NC3 6001  11.083  16.775  -2.057
 9291POPC   PO4 6002  11.104  16.871  -2.231
 9291POPC   GL1 6003  11.125  16.967  -2.405
 9291POPC   GL2 6004  11.224  16.970  -2.392
 9291POPC   C1A 6005  11.145  17.063  -2.579
 9291POPC   D2A 6006  11.166  17.159  -2.754
 9291POPC   C3A 6007  11.186  17.255  -2.928
 9291POPC   C4A 6008  11.207  17.351  -3.102
 9291POPC   C1B 6009  11.127  17.238  -2.485
 9291POPC   C2B 6010  11.148  17.334  -2.659
 9291POPC   C3B 6011  11.169  17.430  -2.833
 9291POPC   C4B 6012  11.189  17.526  -3.008
 9292POPC   NC3 6013  -1.332  13.025  17.569
 9292POPC   PO4 6014  -1.493  13.063  17.681
 9292POPC   GL1 6015  -1.654  13.101  17.793
 9292POPC   GL2 6016  -1.599  13.159  17.853
 9292POPC   C1A 6017  -1.816  13.138  17.905
 9292POPC   D2A 6018  -1.977  13.176  18.016
 9292POPC   C3A 6019  -2.139  13.213  18.128
 9292POPC   C4A 6020  -2.300  13.251  18.240
 9292POPC   C1B 6021  -1.773  12.980  18.019
 9292POPC   C2B 6022  -1.935  13.017  18.131
 9292POPC   C3B 6023  -2.096  13.055  18.243
 9292POPC   C4B 6024  -2.258  13.093  18.354
 9293POPC   NC3 6025   1.005  20.303   7.694
 9293POPC   PO4 6026   0.884  20.458   7.660
 9293POPC   GL1 6027   0.763  20.613   7.626
 9293POPC   GL2 6028   0.838  20.663   7.585
 9293POPC   C1A 6029   0.641  20.768   7.592
 9293POPC   D2A 6030   0.520  20.924   7.559
 9293POPC   C3A 6031   0.398  21.079   7.525
 9293POPC   C4A 6032   0.277  21.234   7.491
 9293POPC   C1B 6033   0.689  20.844   7.771
 9293POPC   C2B 6034   0.567  21.000   7.737
 9293POPC   C3B 6035   0.446  21.155   7.704
 9293POPC   C4B 6036   0.325  21.310   7.670
 9294POPC   NC3 6037   3.438   1.124  18.453
 9294POPC   PO4 6038   3.344   0.998  18.576
 9294POPC   GL1 6039   3.250   0.872  18.699
 9294POPC   GL2 6040   3.314   0.895  18.772
 9294POPC   C1A 6041   3.156   0.745  18.822
 9294POPC   D2A 6042   3.061   0.619  18.945
 9294POPC   C3A 6043   2.967   0.492  19.068
 9294POPC   C4A 6044   2.873   0.366  19.191
 9294POPC   C1B 6045   3.277   0.598  18.763
 9294POPC   C2B 6046   3.183   0.471  18.886
 9294POPC   C3B 6047   3.089   0.345  19.009
 9294POPC   C4B 6048   2.994   0.218  19.132
 9295POPC   NC3 6049   6.373   0.717  19.670
 9295POPC   PO4 6050   6.323   0.579  19.806
 9295POPC   GL1 6051   6.273   0.441  19.942
 9295POPC   GL2 6052   6.343   0.380  19.906
 9295POPC   C1A 6053   6.223   0.303  20.078
 9295POPC   D2A 6054   6.172   0.166  20.214
 9295POPC   C3A 6055   6.122   0.028  20.350
 9295POPC   C4A 6056   6.072  -0.110  20.486
 9295POPC   C1B 6057   6.089   0.226  19.950
 9295POPC   C2B 6058   6.039   0.088  20.086
 9295POPC   C3B 6059   5.989  -0.050  20.222
 9295POPC   C4B 6060   5.939  -0.187  20.358
 9296POPC   NC3 6061  17.965   1.763  17.551
 9296POPC   PO4 6062  18.079   1.643  17.663
 9296POPC   GL1 6063  18.193   1.523  17.775
 9296POPC   GL2 6064  18.266   1.591  17.774
 9296POPC   C1A 6065  18.308   1.403  17.886
 9296POPC   D2A 6066  18.422   1.282  17.998
 9296POPC   C3A 6067  18.537   1.162  18.109
 9296POPC   C4A 6068  18.651   1.042  18.221
 9296POPC   C1B 6069  18.383   1.321  17.720
 9296POPC   C2B 6070  18.498   1.200  17.832
 9296POPC   C3B 6071  18.612   1.080  17.943
 9296POPC   C4B 6072  18.727   0.960  18.055
 9297POPC   NC3 6073   5.839  22.629   5.705
 9297POPC   PO4 6074   5.778  22.809   5.643
 9297POPC   GL1 6075   5.717  22.989   5.581
 9297POPC   GL2 6076   5.703  23.017   5.676
 9297POPC   C1A 6077   5.655  23.169   5.519
 9297POPC   D2A 6078   5.594  23.349   5.457
 9297POPC   C3A 6079   5.532  23.529   5.395
 9297POPC   C4A 6080   5.471  23.709   5.333
 9297POPC   C1B 6081   5.467  23.102   5.512
 9297POPC   C2B 6082   5.405  23.282   5.450
 9297POPC   C3B 6083   5.344  23.462   5.388
 9297POPC   C4B 6084   5.283  23.642   5.326
 9298POPC   NC3 6085   2.751  14.146  20.992
 9298POPC   PO4 6086   2.643  14.206  21.149
 9298POPC   GL1 6087   2.535  14.266  21.306
 9298POPC   GL2 6088   2.617  14.267  21.363
 9298POPC   C1A 6089   2.427  14.327  21.463
 9298POPC   D2A 6090   2.318  14.387  21.620
 9298POPC   C3A 6091   2.210  14.448  21.777
 9298POPC   C4A 6092   2.102  14.508  21.934
 9298POPC   C1B 6093   2.393  14.136  21.514
 9298POPC   C2B 6094   2.285  14.197  21.671
 9298POPC   C3B 6095   2.177  14.257  21.828
 9298POPC   C4B 6096   2.069  14.317  21.985
 9299POPC   NC3 6097  -2.084   3.834   6.730
 9299POPC   PO4 6098  -2.259   3.747   6.688
 9299POPC   GL1 6099  -2.434   3.660   6.646
 9299POPC   GL2 6100  -2.429   3.608   6.731
 9299POPC   C1A 6101  -2.609   3.573   6.603
 9299POPC   D2A 6102  -2.784   3.486   6.561
 9299POPC   C3A 6103  -2.959   3.399   6.518
 9299POPC   C4A 6104  -3.134   3.312   6.476
 9299POPC   C1B 6105  -2.513   3.426   6.507
 9299POPC   C2B 6106  -2.688   3.339   6.465
 9299POPC   C3B 6107  -2.863   3.252   6.423
 9299POPC   C4B 6108  -3.038   3.165   6.380
 9300POPC   NC3 6109  12.428  -0.240  18.763
 9300POPC   PO4 6110  12.461  -0.387  18.895
 9300POPC   GL1 6111  12.494  -0.534  19.027
 9300POPC   GL2 6112  12.577  -0.488  19.058
 9300POPC   C1A 6113  12.526  -0.680  19.159
 9300POPC   D2A 6114  12.559  -0.827  19.292
 9300POPC   C3A 6115  12.591  -0.973  19.424
 9300POPC   C4A 6116  12.624  -1.120  19.556
 9300POPC   C1B 6117  12.632  -0.780  19.022
 9300POPC   C2B 6118  12.664  -0.927  19.155
 9300POPC   C3B 6119  12.697  -1.074  19.287
 9300POPC   C4B 6120  12.730  -1.220  19.419
 9301POPC   NC3 6121  -3.607  11.884   7.605
 9301POPC   PO4 6122  -3.801  11.910   7.566
 9301POPC   GL1 6123  -3.995  11.936   7.527
 9301POPC   GL2 6124  -4.015  11.934   7.625
 9301POPC   C1A 6125  -4.190  11.963   7.488
 9301POPC   D2A 6126  -4.384  11.989   7.448
 9301POPC   C3A 6127  -4.579  12.016   7.409
 9301POPC   C4A 6128  -4.773  12.042   7.370
 9301POPC   C1B 6129  -4.215  11.765   7.478
 9301POPC   C2B 6130  -4.409  11.791   7.439
 9301POPC   C3B 6131  -4.604  11.817   7.400
 9301POPC   C4B 6132  -4.798  11.844   7.361
 9302POPC   NC3 6133  11.787  21.838   3.051
 9302POPC   PO4 6134  11.818  22.011   2.955
 9302POPC   GL1 6135  11.849  22.184   2.859
 9302POPC   GL2 6136  11.936  22.149   2.825
 9302POPC   C1A 6137  11.879  22.357   2.763
 9302POPC   D2A 6138  11.910  22.529   2.667
 9302POPC   C3A 6139  11.940  22.702   2.571
 9302POPC   C4A 6140  11.971  22.875   2.475
 9302POPC   C1B 6141  11.971  22.430   2.925
 9302POPC   C2B 6142  12.001  22.603   2.829
 9302POPC   C3B 6143  12.032  22.776   2.733
 9302POPC   C4B 6144  12.062  22.949   2.637
 9303POPC   NC3 6145   6.472  18.473  20.281
 9303POPC   PO4 6146   6.426  18.600  20.429
 9303POPC   GL1 6147   6.380  18.727  20.577
 9303POPC   GL2 6148   6.457  18.693  20.630
 9303POPC   C1A 6149   6.334  18.854  20.724
 9303POPC   D2A 6150   6.287  18.980  20.872
 9303POPC   C3A 6151   6.241  19.107  21.019
 9303POPC   C4A 6152   6.195  19.234  21.167
 9303POPC   C1B 6153   6.216  18.715  20.807
 9303POPC   C2B 6154   6.170  18.841  20.955
 9303POPC   C3B 6155   6.124  18.968  21.102
 9303POPC   C4B 6156   6.077  19.095  21.250
 9304POPC   NC3 6157   8.626  -3.709   8.554
 9304POPC   PO4 6158   8.608  -3.908   8.538
 9304POPC   GL1 6159   8.590  -4.107   8.522
 9304POPC   GL2 6160   8.686  -4.113   8.495
 9304POPC   C1A 6161   8.572  -4.305   8.506
 9304POPC   D2A 6162   8.554  -4.504   8.491
 9304POPC   C3A 6163   8.536  -4.702   8.475
 9304POPC   C4A 6164   8.518  -4.901   8.459
 9304POPC   C1B 6165   8.520  -4.285   8.314
 9304POPC   C2B 6166   8.502  -4.484   8.299
 9304POPC   C3B 6167   8.484  -4.682   8.283
 9304POPC   C4B 6168   8.466  -4.881   8.267
 9305POPC   NC3 6169   1.374  15.700   0.543
 9305POPC   PO4 6170   1.253  15.780   0.405
 9305POPC   GL1 6171   1.132  15.860   0.267
 9305POPC   GL2 6172   1.200  15.932   0.250
 9305POPC   C1A 6173   1.012  15.941   0.129
 9305POPC   D2A 6174   0.891  16.021  -0.008
 9305POPC   C3A 6175   0.771  16.102  -0.146
 9305POPC   C4A 6176   0.650  16.182  -0.284
 9305POPC   C1B 6177   0.927  16.055   0.270
 9305POPC   C2B 6178   0.806  16.135   0.132
 9305POPC   C3B 6179   0.686  16.216  -0.006
 9305POPC   C4B 6180   0.565  16.296  -0.143
 9306POPC   NC3 6181   4.856   7.884  22.734
 9306POPC   PO4 6182   4.789   7.849  22.919
 9306POPC   GL1 6183   4.722   7.814  23.104
 9306POPC   GL2 6184   4.794   7.746  23.117
 9306POPC   C1A 6185   4.654   7.779  23.289
 9306POPC   D2A 6186   4.587   7.744  23.474
 9306POPC   C3A 6187   4.519   7.709  23.659
 9306POPC   C4A 6188   4.452   7.674  23.844
 9306POPC   C1B 6189   4.533   7.636  23.218
 9306POPC   C2B 6190   4.466   7.601  23.403
 9306POPC   C3B 6191   4.398   7.566  23.588
 9306POPC   C4B 6192   4.331   7.531  23.773
 9307POPC   NC3 6193  19.613  19.366   6.932
 9307POPC   PO4 6194  19.761  19.491   6.882
 9307POPC   GL1 6195  19.909  19.616   6.832
 9307POPC   GL2 6196  19.874  19.621   6.739
 9307POPC   C1A 6197  20.057  19.741   6.783
 9307POPC   D2A 6198  20.205  19.866   6.733
 9307POPC   C3A 6199  20.353  19.991   6.684
 9307POPC   C4A 6200  20.501  20.116   6.634
 9307POPC   C1B 6201  20.171  19.585   6.732
 9307POPC   C2B 6202  20.319  19.710   6.682
 9307POPC   C3B 6203  20.467  19.835   6.632
 9307POPC   C4B 6204  20.615  19.960   6.583
 9308POPC   NC3 6205  16.083   7.193  -2.048
 9308POPC   PO4 6206  16.171   7.154  -2.223
 9308POPC   GL1 6207  16.259   7.115  -2.398
 9308POPC   GL2 6208  16.211   7.193  -2.439
 9308POPC   C1A 6209  16.347   7.077  -2.574
 9308POPC   D2A 6210  16.434   7.038  -2.749
 9308POPC   C3A 6211  16.522   7.000  -2.925
 9308POPC   C4A 6212  16.610   6.961  -3.100
 9308POPC   C1B 6213  16.195   6.956  -2.623
 9308POPC   C2B 6214  16.283   6.917  -2.799
 9308POPC   C3B 6215  16.371   6.879  -2.974
 9308POPC   C4B 6216  16.458   6.840  -3.149
 9309POPC   NC3 6217  20.658  18.501  11.479
 9309POPC   PO4 6218  20.813  18.625  11.506
 9309POPC   GL1 6219  20.968  18.749  11.533
 9309POPC   GL2 6220  20.927  18.814  11.469
 9309POPC   C1A 6221  21.123  18.873  11.560
 9309POPC   D2A 6222  21.277  18.996  11.588
 9309POPC   C3A 6223  21.432  19.120  11.615
 9309POPC   C4A 6224  21.587  19.244  11.642
 9309POPC   C1B 6225  21.220  18.784  11.409
 9309POPC   C2B 6226  21.374  18.908  11.437
 9309POPC   C3B 6227  21.529  19.032  11.464
 9309POPC   C4B 6228  21.684  19.156  11.491
 9310POPC   NC3 6229  15.526  19.392   1.491
 9310POPC   PO4 6230  15.616  19.531   1.379
 9310POPC   GL1 6231  15.706  19.670   1.267
 9310POPC   GL2 6232  15.785  19.609   1.255
 9310POPC   C1A 6233  15.797  19.809   1.155
 9310POPC   D2A 6234  15.887  19.948   1.044
 9310POPC   C3A 6235  15.978  20.087   0.932
 9310POPC   C4A 6236  16.068  20.226   0.820
 9310POPC   C1B 6237  15.882  19.886   1.319
 9310POPC   C2B 6238  15.972  20.025   1.208
 9310POPC   C3B 6239  16.063  20.164   1.096
 9310POPC   C4B 6240  16.153  20.303   0.984
 9311POPC   NC3 6241   4.177   0.706   1.483
 9311POPC   PO4 6242   4.088   0.577   1.358
 9311POPC   GL1 6243   3.999   0.448   1.233
 9311POPC   GL2 6244   4.082   0.447   1.176
 9311POPC   C1A 6245   3.910   0.320   1.108
 9311POPC   D2A 6246   3.822   0.191   0.984
 9311POPC   C3A 6247   3.733   0.063   0.859
 9311POPC   C4A 6248   3.644  -0.066   0.734
 9311POPC   C1B 6249   3.840   0.473   1.001
 9311POPC   C2B 6250   3.751   0.344   0.876
 9311POPC   C3B 6251   3.662   0.216   0.751
 9311POPC   C4B 6252   3.573   0.087   0.626
 9312POPC   NC3 6253  -2.849  11.139   4.646
 9312POPC   PO4 6254  -3.036  11.156   4.576
 9312POPC   GL1 6255  -3.223  11.173   4.506
 9312POPC   GL2 6256  -3.259  11.152   4.597
 9312POPC   C1A 6257  -3.409  11.190   4.436
 9312POPC   D2A 6258  -3.596  11.207   4.365
 9312POPC   C3A 6259  -3.782  11.224   4.295
 9312POPC   C4A 6260  -3.969  11.241   4.225
 9312POPC   C1B 6261  -3.410  10.995   4.390
 9312POPC   C2B 6262  -3.597  11.012   4.320
 9312POPC   C3B 6263  -3.783  11.029   4.250
 9312POPC   C4B 6264  -3.970  11.046   4.180
 9313POPC   NC3 6265   6.214  -3.195  12.158
 9313POPC   PO4 6266   6.161  -3.385  12.189
 9313POPC   GL1 6267   6.108  -3.575  12.220
 9313POPC   GL2 6268   6.127  -3.565  12.317
 9313POPC   C1A 6269   6.055  -3.766  12.251
 9313POPC   D2A 6270   6.001  -3.956  12.281
 9313POPC   C3A 6271   5.948  -4.147  12.312
 9313POPC   C4A 6272   5.895  -4.337  12.343
 9313POPC   C1B 6273   6.243  -3.824  12.219
 9313POPC   C2B 6274   6.190  -4.014  12.249
 9313POPC   C3B 6275   6.137  -4.205  12.280
 9313POPC   C4B 6276   6.084  -4.395  12.311
 9314POPC   NC3 6277   5.508   2.352  20.732
 9314POPC   PO4 6278   5.447   2.242  20.888
 9314POPC   GL1 6279   5.386   2.132  21.044
 9314POPC   GL2 6280   5.387   2.214  21.102
 9314POPC   C1A 6281   5.325   2.023  21.200
 9314POPC   D2A 6282   5.265   1.913  21.355
 9314POPC   C3A 6283   5.204   1.804  21.511
 9314POPC   C4A 6284   5.143   1.694  21.667
 9314POPC   C1B 6285   5.516   1.986  21.248
 9314POPC   C2B 6286   5.455   1.876  21.404
 9314POPC   C3B 6287   5.394   1.767  21.560
 9314POPC   C4B 6288   5.334   1.657  21.715
 9315POPC   NC3 6289  22.030  16.483  11.189
 9315POPC   PO4 6290  22.206  16.577  11.207
 9315POPC   GL1 6291  22.382  16.671  11.225
 9315POPC   GL2 6292  22.428  16.583  11.235
 9315POPC   C1A 6293  22.558  16.765  11.243
 9315POPC   D2A 6294  22.733  16.858  11.261
 9315POPC   C3A 6295  22.909  16.952  11.279
 9315POPC   C4A 6296  23.085  17.046  11.297
 9315POPC   C1B 6297  22.533  16.773  11.441
 9315POPC   C2B 6298  22.709  16.867  11.459
 9315POPC   C3B 6299  22.884  16.961  11.477
 9315POPC   C4B 6300  23.060  17.054  11.495
 9316POPC   NC3 6301   3.441  19.689  17.517
 9316POPC   PO4 6302   3.352  19.829  17.628
 9316POPC   GL1 6303   3.263  19.969  17.739
 9316POPC   GL2 6304   3.325  20.038  17.702
 9316POPC   C1A 6305   3.173  20.110  17.850
 9316POPC   D2A 6306   3.084  20.250  17.961
 9316POPC   C3A 6307   2.994  20.391  18.072
 9316POPC   C4A 6308   2.905  20.531  18.183
 9316POPC   C1B 6309   3.301  20.073  17.999
 9316POPC   C2B 6310   3.212  20.214  18.110
 9316POPC   C3B 6311   3.122  20.354  18.221
 9316POPC   C4B 6312   3.033  20.494  18.332
 9317POPC   NC3 6313   9.626  -3.816  10.476
 9317POPC   PO4 6314   9.621  -4.016  10.484
 9317POPC   GL1 6315   9.616  -4.216  10.492
 9317POPC   GL2 6316   9.689  -4.220  10.424
 9317POPC   C1A 6317   9.611  -4.416  10.500
 9317POPC   D2A 6318   9.607  -4.615  10.508
 9317POPC   C3A 6319   9.602  -4.815  10.516
 9317POPC   C4A 6320   9.597  -5.015  10.524
 9317POPC   C1B 6321   9.475  -4.418  10.354
 9317POPC   C2B 6322   9.470  -4.618  10.362
 9317POPC   C3B 6323   9.465  -4.818  10.370
 9317POPC   C4B 6324   9.460  -5.018  10.378
 9318POPC   NC3 6325  10.986   1.024  20.361
 9318POPC   PO4 6326  11.012   0.889  20.507
 9318POPC   GL1 6327  11.038   0.754  20.653
 9318POPC   GL2 6328  11.033   0.681  20.585
 9318POPC   C1A 6329  11.064   0.620  20.798
 9318POPC   D2A 6330  11.089   0.485  20.944
 9318POPC   C3A 6331  11.115   0.351  21.089
 9318POPC   C4A 6332  11.141   0.216  21.235
 9318POPC   C1B 6333  10.865   0.609  20.823
 9318POPC   C2B 6334  10.891   0.474  20.969
 9318POPC   C3B 6335  10.917   0.340  21.114
 9318POPC   C4B 6336  10.943   0.205  21.260
 9319POPC   NC3 6337  -3.555   7.975   6.995
 9319POPC   PO4 6338  -3.748   7.955   6.948
 9319POPC   GL1 6339  -3.941   7.935   6.901
 9319POPC   GL2 6340  -3.967   7.972   6.990
 9319POPC   C1A 6341  -4.135   7.915   6.854
 9319POPC   D2A 6342  -4.328   7.896   6.806
 9319POPC   C3A 6343  -4.522   7.876   6.759
 9319POPC   C4A 6344  -4.715   7.856   6.712
 9319POPC   C1B 6345  -4.135   7.731   6.931
 9319POPC   C2B 6346  -4.328   7.711   6.883
 9319POPC   C3B 6347  -4.521   7.691   6.836
 9319POPC   C4B 6348  -4.715   7.671   6.789
 9320POPC   NC3 6349   8.156  21.229  17.881
 9320POPC   PO4 6350   8.129  21.389  17.998
 9320POPC   GL1 6351   8.102  21.549  18.115
 9320POPC   GL2 6352   8.196  21.541  18.148
 9320POPC   C1A 6353   8.075  21.709  18.232
 9320POPC   D2A 6354   8.049  21.869  18.349
 9320POPC   C3A 6355   8.022  22.029  18.466
 9320POPC   C4A 6356   7.995  22.189  18.583
 9320POPC   C1B 6357   8.013  21.590  18.380
 9320POPC   C2B 6358   7.986  21.750  18.497
 9320POPC   C3B 6359   7.959  21.910  18.614
 9320POPC   C4B 6360   7.932  22.070  18.731
 9321POPC   NC3 6361  20.868   5.107  16.763
 9321POPC   PO4 6362  21.026   5.046  16.870
 9321POPC   GL1 6363  21.184   4.985  16.977
 9321POPC   GL2 6364  21.169   4.891  16.945
 9321POPC   C1A 6365  21.341   4.924  17.084
 9321POPC   D2A 6366  21.499   4.862  17.190
 9321POPC   C3A 6367  21.656   4.801  17.297
 9321POPC   C4A 6368  21.814   4.740  17.404
 9321POPC   C1B 6369  21.222   4.889  17.240
 9321POPC   C2B 6370  21.379   4.828  17.347
 9321POPC   C3B 6371  21.537   4.767  17.454
 9321POPC   C4B 6372  21.694   4.706  17.561
 9322POPC   NC3 6373   0.422  19.601   6.836
 9322POPC   PO4 6374   0.295  19.749   6.791
 9322POPC   GL1 6375   0.168  19.897   6.746
 9322POPC   GL2 6376   0.242  19.946   6.700
 9322POPC   C1A 6377   0.041  20.044   6.701
 9322POPC   D2A 6378  -0.087  20.192   6.655
 9322POPC   C3A 6379  -0.214  20.339   6.610
 9322POPC   C4A 6380  -0.341  20.487   6.565
 9322POPC   C1B 6381   0.085  20.135   6.873
 9322POPC   C2B 6382  -0.042  20.283   6.828
 9322POPC   C3B 6383  -0.169  20.431   6.783
 9322POPC   C4B 6384  -0.297  20.578   6.737
 9323POPC   NC3 6385  14.306  12.697  -2.923
 9323POPC   PO4 6386  14.365  12.737  -3.110
 9323POPC   GL1 6387  14.424  12.777  -3.297
 9323POPC   GL2 6388  14.334  12.750  -3.331
 9323POPC   C1A 6389  14.484  12.817  -3.484
 9323POPC   D2A 6390  14.543  12.857  -3.670
 9323POPC   C3A 6391  14.603  12.897  -3.857
 9323POPC   C4A 6392  14.662  12.937  -4.044
 9323POPC   C1B 6393  14.547  12.628  -3.504
 9323POPC   C2B 6394  14.607  12.668  -3.691
 9323POPC   C3B 6395  14.666  12.708  -3.877
 9323POPC   C4B 6396  14.725  12.748  -4.064
 9324POPC   NC3 6397  -2.994  15.095  10.940
 9324POPC   PO4 6398  -3.180  15.168  10.956
 9324POPC   GL1 6399  -3.366  15.241  10.972
 9324POPC   GL2 6400  -3.397  15.154  11.010
 9324POPC   C1A 6401  -3.551  15.314  10.988
 9324POPC   D2A 6402  -3.737  15.386  11.004
 9324POPC   C3A 6403  -3.922  15.459  11.020
 9324POPC   C4A 6404  -4.108  15.532  11.036
 9324POPC   C1B 6405  -3.593  15.248  10.804
 9324POPC   C2B 6406  -3.778  15.321  10.820
 9324POPC   C3B 6407  -3.964  15.394  10.836
 9324POPC   C4B 6408  -4.149  15.467  10.852
 9325POPC   NC3 6409   3.183  -0.985  15.211
 9325POPC   PO4 6410   3.088  -1.143  15.289
 9325POPC   GL1 6411   2.993  -1.301  15.367
 9325POPC   GL2 6412   3.075  -1.325  15.419
 9325POPC   C1A 6413   2.898  -1.459  15.445
 9325POPC   D2A 6414   2.804  -1.617  15.523
 9325POPC   C3A 6415   2.709  -1.775  15.601
 9325POPC   C4A 6416   2.614  -1.933  15.679
 9325POPC   C1B 6417   2.962  -1.572  15.293
 9325POPC   C2B 6418   2.867  -1.730  15.371
 9325POPC   C3B 6419   2.772  -1.888  15.449
 9325POPC   C4B 6420   2.677  -2.046  15.527
 9326POPC   NC3 6421   2.833  19.877  16.685
 9326POPC   PO4 6422   2.732  20.021  16.780
 9326POPC   GL1 6423   2.631  20.165  16.875
 9326POPC   GL2 6424   2.704  20.171  16.943
 9326POPC   C1A 6425   2.530  20.310  16.969
 9326POPC   D2A 6426   2.429  20.454  17.064
 9326POPC   C3A 6427   2.328  20.599  17.158
 9326POPC   C4A 6428   2.227  20.743  17.253
 9326POPC   C1B 6429   2.437  20.172  17.080
 9326POPC   C2B 6430   2.336  20.316  17.175
 9326POPC   C3B 6431   2.235  20.461  17.269
 9326POPC   C4B 6432   2.134  20.605  17.364
 9327POPC   NC3 6433   7.004   9.367  23.428
 9327POPC   PO4 6434   6.963   9.370  23.624
 9327POPC   GL1 6435   6.922   9.373  23.820
 9327POPC   GL2 6436   7.015   9.403  23.839
 9327POPC   C1A 6437   6.880   9.376  24.015
 9327POPC   D2A 6438   6.839   9.379  24.211
 9327POPC   C3A 6439   6.797   9.382  24.406
 9327POPC   C4A 6440   6.756   9.385  24.602
 9327POPC   C1B 6441   6.939   9.185  24.030
 9327POPC   C2B 6442   6.897   9.188  24.226
 9327POPC   C3B 6443   6.856   9.191  24.422
 9327POPC   C4B 6444   6.814   9.194  24.617
 9328POPC   NC3 6445   4.787   3.881  21.349
 9328POPC   PO4 6446   4.710   3.795  21.512
 9328POPC   GL1 6447   4.633   3.709  21.675
 9328POPC   GL2 6448   4.625   3.799  21.719
 9328POPC   C1A 6449   4.555   3.623  21.838
 9328POPC   D2A 6450   4.478   3.538  22.002
 9328POPC   C3A 6451   4.400   3.452  22.165
 9328POPC   C4A 6452   4.323   3.366  22.328
 9328POPC   C1B 6453   4.739   3.602  21.914
 9328POPC   C2B 6454   4.662   3.516  22.077
 9328POPC   C3B 6455   4.584   3.430  22.241
 9328POPC   C4B 6456   4.507   3.344  22.404
 9329POPC   NC3 6457  -2.505  12.655  15.666
 9329POPC   PO4 6458  -2.682  12.694  15.750
 9329POPC   GL1 6459  -2.859  12.733  15.834
 9329POPC   GL2 6460  -2.824  12.703  15.923
 9329POPC   C1A 6461  -3.036  12.772  15.919
 9329POPC   D2A 6462  -3.213  12.811  16.003
 9329POPC   C3A 6463  -3.390  12.850  16.088
 9329POPC   C4A 6464  -3.567  12.889  16.172
 9329POPC   C1B 6465  -3.096  12.585  15.879
 9329POPC   C2B 6466  -3.273  12.624  15.964
 9329POPC   C3B 6467  -3.450  12.663  16.048
 9329POPC   C4B 6468  -3.627  12.702  16.132
 9330POPC   NC3 6469   9.386   6.296  -3.345
 9330POPC   PO4 6470   9.380   6.241  -3.537
 9330POPC   GL1 6471   9.374   6.186  -3.729
 9330POPC   GL2 6472   9.463   6.230  -3.745
 9330POPC   C1A 6473   9.367   6.132  -3.922
 9330POPC   D2A 6474   9.361   6.077  -4.114
 9330POPC   C3A 6475   9.354   6.023  -4.307
 9330POPC   C4A 6476   9.348   5.968  -4.499
 9330POPC   C1B 6477   9.276   6.304  -3.968
 9330POPC   C2B 6478   9.270   6.249  -4.160
 9330POPC   C3B 6479   9.263   6.195  -4.352
 9330POPC   C4B 6480   9.257   6.140  -4.545
 9331POPC   NC3 6481   4.868  -2.875  11.089
 9331POPC   PO4 6482   4.795  -3.061  11.106
 9331POPC   GL1 6483   4.722  -3.247  11.123
 9331POPC   GL2 6484   4.752  -3.249  11.219
 9331POPC   C1A 6485   4.650  -3.432  11.141
 9331POPC   D2A 6486   4.577  -3.618  11.158
 9331POPC   C3A 6487   4.505  -3.803  11.176
 9331POPC   C4A 6488   4.432  -3.989  11.193
 9331POPC   C1B 6489   4.826  -3.507  11.083
 9331POPC   C2B 6490   4.754  -3.692  11.100
 9331POPC   C3B 6491   4.681  -3.878  11.118
 9331POPC   C4B 6492   4.608  -4.063  11.135
 9332POPC   NC3 6493   2.549   2.974   0.606
 9332POPC   PO4 6494   2.444   2.872   0.470
 9332POPC   GL1 6495   2.339   2.770   0.334
 9332POPC   GL2 6496   2.275   2.741   0.405
 9332POPC   C1A 6497   2.234   2.667   0.198
 9332POPC   D2A 6498   2.130   2.565   0.062
 9332POPC   C3A 6499   2.025   2.462  -0.074
 9332POPC   C4A 6500   1.920   2.360  -0.210
 9332POPC   C1B 6501   2.346   2.505   0.234
 9332POPC   C2B 6502   2.241   2.403   0.098
 9332POPC   C3B 6503   2.136   2.300  -0.038
 9332POPC   C4B 6504   2.032   2.198  -0.174
 9333POPC   NC3 6505  11.407   1.086  20.336
 9333POPC   PO4 6506  11.438   0.952  20.481
 9333POPC   GL1 6507  11.469   0.818  20.626
 9333POPC   GL2 6508  11.560   0.800  20.590
 9333POPC   C1A 6509  11.499   0.684  20.772
 9333POPC   D2A 6510  11.530   0.550  20.917
 9333POPC   C3A 6511  11.560   0.416  21.063
 9333POPC   C4A 6512  11.591   0.282  21.208
 9333POPC   C1B 6513  11.425   0.540  20.655
 9333POPC   C2B 6514  11.455   0.406  20.800
 9333POPC   C3B 6515  11.486   0.272  20.946
 9333POPC   C4B 6516  11.516   0.138  21.091
 9334POPC   NC3 6517  15.227  -0.966  16.570
 9334POPC   PO4 6518  15.300  -1.126  16.666
 9334POPC   GL1 6519  15.373  -1.286  16.762
 9334POPC   GL2 6520  15.464  -1.244  16.762
 9334POPC   C1A 6521  15.446  -1.445  16.858
 9334POPC   D2A 6522  15.520  -1.605  16.953
 9334POPC   C3A 6523  15.593  -1.764  17.049
 9334POPC   C4A 6524  15.666  -1.924  17.145
 9334POPC   C1B 6525  15.487  -1.532  16.682
 9334POPC   C2B 6526  15.560  -1.692  16.778
 9334POPC   C3B 6527  15.633  -1.851  16.874
 9334POPC   C4B 6528  15.706  -2.011  16.969
 9335POPC   NC3 6529  10.163  -3.258   5.734
 9335POPC   PO4 6530  10.157  -3.448   5.672
 9335POPC   GL1 6531  10.151  -3.638   5.610
 9335POPC   GL2 6532  10.236  -3.657   5.659
 9335POPC   C1A 6533  10.146  -3.828   5.547
 9335POPC   D2A 6534  10.140  -4.018   5.485
 9335POPC   C3A 6535  10.135  -4.208   5.422
 9335POPC   C4A 6536  10.129  -4.398   5.360
 9335POPC   C1B 6537  10.252  -3.778   5.385
 9335POPC   C2B 6538  10.246  -3.968   5.323
 9335POPC   C3B 6539  10.240  -4.158   5.260
 9335POPC   C4B 6540  10.235  -4.348   5.198
 9336POPC   NC3 6541  10.374  11.670  -3.829
 9336POPC   PO4 6542  10.380  11.699  -4.027
 9336POPC   GL1 6543  10.386  11.728  -4.225
 9336POPC   GL2 6544  10.461  11.662  -4.232
 9336POPC   C1A 6545  10.391  11.757  -4.423
 9336POPC   D2A 6546  10.397  11.787  -4.620
 9336POPC   C3A 6547  10.402  11.816  -4.818
 9336POPC   C4A 6548  10.408  11.845  -5.016
 9336POPC   C1B 6549  10.524  11.905  -4.397
 9336POPC   C2B 6550  10.529  11.934  -4.595
 9336POPC   C3B 6551  10.535  11.963  -4.793
 9336POPC   C4B 6552  10.540  11.993  -4.991
 9337POPC   NC3 6553  -1.866  14.084   3.897
 9337POPC   PO4 6554  -2.038  14.147   3.817
 9337POPC   GL1 6555  -2.210  14.210   3.737
 9337POPC   GL2 6556  -2.237  14.248   3.826
 9337POPC   C1A 6557  -2.382  14.273   3.657
 9337POPC   D2A 6558  -2.555  14.337   3.578
 9337POPC   C3A 6559  -2.727  14.400   3.498
 9337POPC   C4A 6560  -2.899  14.463   3.418
 9337POPC   C1B 6561  -2.469  14.100   3.706
 9337POPC   C2B 6562  -2.641  14.163   3.626
 9337POPC   C3B 6563  -2.813  14.226   3.546
 9337POPC   C4B 6564  -2.985  14.289   3.466
 9338POPC   NC3 6565  15.442   6.807  -2.265
 9338POPC   PO4 6566  15.523   6.765  -2.443
 9338POPC   GL1 6567  15.604   6.723  -2.621
 9338POPC   GL2 6568  15.618   6.820  -2.638
 9338POPC   C1A 6569  15.685   6.680  -2.799
 9338POPC   D2A 6570  15.767   6.638  -2.976
 9338POPC   C3A 6571  15.848   6.595  -3.154
 9338POPC   C4A 6572  15.929   6.553  -3.332
 9338POPC   C1B 6573  15.505   6.691  -2.884
 9338POPC   C2B 6574  15.586   6.649  -3.062
 9338POPC   C3B 6575  15.667   6.607  -3.239
 9338POPC   C4B 6576  15.748   6.564  -3.417
 9339POPC   NC3 6577   9.187  -1.422  17.779
 9339POPC   PO4 6578   9.177  -1.586  17.893
 9339POPC   GL1 6579   9.167  -1.750  18.007
 9339POPC   GL2 6580   9.234  -1.795  17.948
 9339POPC   C1A 6581   9.157  -1.914  18.121
 9339POPC   D2A 6582   9.148  -2.079  18.234
 9339POPC   C3A 6583   9.138  -2.243  18.348
 9339POPC   C4A 6584   9.128  -2.407  18.462
 9339POPC   C1B 6585   9.009  -1.985  18.006
 9339POPC   C2B 6586   8.999  -2.149  18.120
 9339POPC   C3B 6587   8.990  -2.313  18.234
 9339POPC   C4B 6588   8.980  -2.477  18.348
 9340POPC   NC3 6589  -2.274  11.255  16.518
 9340POPC   PO4 6590  -2.446  11.272  16.619
 9340POPC   GL1 6591  -2.618  11.289  16.720
 9340POPC   GL2 6592  -2.609  11.388  16.718
 9340POPC   C1A 6593  -2.790  11.305  16.821
 9340POPC   D2A 6594  -2.961  11.322  16.922
 9340POPC   C3A 6595  -3.133  11.338  17.023
 9340POPC   C4A 6596  -3.305  11.355  17.124
 9340POPC   C1B 6597  -2.689  11.300  16.994
 9340POPC   C2B 6598  -2.860  11.316  17.095
 9340POPC   C3B 6599  -3.032  11.333  17.196
 9340POPC   C4B 6600  -3.204  11.350  17.297
 9341POPC   NC3 6601  -0.897   1.767  12.935
 9341POPC   PO4 6602  -1.054   1.653  12.981
 9341POPC   GL1 6603  -1.211   1.539  13.027
 9341POPC   GL2 6604  -1.166   1.511  13.112
 9341POPC   C1A 6605  -1.369   1.424  13.074
 9341POPC   D2A 6606  -1.526   1.310  13.120
 9341POPC   C3A 6607  -1.684   1.195  13.167
 9341POPC   C4A 6608  -1.841   1.081  13.213
 9341POPC   C1B 6609  -1.285   1.270  12.979
 9341POPC   C2B 6610  -1.442   1.155  13.025
 9341POPC   C3B 6611  -1.599   1.041  13.071
 9341POPC   C4B 6612  -1.757   0.927  13.118
 9342POPC   NC3 6613  11.975  -1.171  17.788
 9342POPC   PO4 6614  12.005  -1.325  17.912
 9342POPC   GL1 6615  12.035  -1.479  18.036
 9342POPC   GL2 6616  12.132  -1.480  18.011
 9342POPC   C1A 6617  12.065  -1.633  18.160
 9342POPC   D2A 6618  12.096  -1.787  18.284
 9342POPC   C3A 6619  12.126  -1.941  18.408
 9342POPC   C4A 6620  12.156  -2.095  18.532
 9342POPC   C1B 6621  12.026  -1.761  18.011
 9342POPC   C2B 6622  12.056  -1.915  18.135
 9342POPC   C3B 6623  12.086  -2.069  18.259
 9342POPC   C4B 6624  12.116  -2.223  18.383
 9343POPC   NC3 6625  23.376  10.560  12.793
 9343POPC   PO4 6626  23.573  10.569  12.827
 9343POPC   GL1 6627  23.770  10.578  12.861
 9343POPC   GL2 6628  23.777  10.658  12.802
 9343POPC   C1A 6629  23.967  10.587  12.895
 9343POPC   D2A 6630  24.163  10.595  12.930
 9343POPC   C3A 6631  24.360  10.604  12.964
 9343POPC   C4A 6632  24.557  10.613  12.998
 9343POPC   C1B 6633  23.999  10.467  12.738
 9343POPC   C2B 6634  24.196  10.476  12.772
 9343POPC   C3B 6635  24.393  10.485  12.807
 9343POPC   C4B 6636  24.590  10.494  12.841
 9344POPC   NC3 6637  16.312   4.845  -1.187
 9344POPC   PO4 6638  16.408   4.776  -1.348
 9344POPC   GL1 6639  16.504   4.707  -1.509
 9344POPC   GL2 6640  16.539   4.799  -1.528
 9344POPC   C1A 6641  16.600   4.638  -1.671
 9344POPC   D2A 6642  16.697   4.570  -1.832
 9344POPC   C3A 6643  16.793   4.501  -1.994
 9344POPC   C4A 6644  16.889   4.432  -2.155
 9344POPC   C1B 6645  16.439   4.677  -1.783
 9344POPC   C2B 6646  16.536   4.608  -1.945
 9344POPC   C3B 6647  16.632   4.539  -2.106
 9344POPC   C4B 6648  16.728   4.470  -2.267
 9345POPC   NC3 6649  13.485  16.049  -1.961
 9345POPC   PO4 6650  13.534  16.136  -2.134
 9345POPC   GL1 6651  13.583  16.223  -2.307
 9345POPC   GL2 6652  13.678  16.195  -2.295
 9345POPC   C1A 6653  13.631  16.310  -2.480
 9345POPC   D2A 6654  13.680  16.398  -2.654
 9345POPC   C3A 6655  13.728  16.485  -2.827
 9345POPC   C4A 6656  13.777  16.572  -3.000
 9345POPC   C1B 6657  13.669  16.481  -2.384
 9345POPC   C2B 6658  13.718  16.569  -2.557
 9345POPC   C3B 6659  13.766  16.656  -2.730
 9345POPC   C4B 6660  13.815  16.743  -2.903
 9346POPC   NC3 6661  11.159   3.224  21.977
 9346POPC   PO4 6662  11.171   3.123  22.149
 9346POPC   GL1 6663  11.183   3.022  22.321
 9346POPC   GL2 6664  11.258   3.081  22.351
 9346POPC   C1A 6665  11.196   2.921  22.493
 9346POPC   D2A 6666  11.208   2.819  22.665
 9346POPC   C3A 6667  11.221   2.718  22.837
 9346POPC   C4A 6668  11.233   2.617  23.009
 9346POPC   C1B 6669  11.328   2.796  22.410
 9346POPC   C2B 6670  11.341   2.695  22.582
 9346POPC   C3B 6671  11.353   2.593  22.754
 9346POPC   C4B 6672  11.365   2.492  22.926
 9347POPC   NC3 6673  15.036  -0.265  17.701
 9347POPC   PO4 6674  15.107  -0.410  17.818
 9347POPC   GL1 6675  15.178  -0.555  17.935
 9347POPC   GL2 6676  15.193  -0.613  17.855
 9347POPC   C1A 6677  15.250  -0.701  18.053
 9347POPC   D2A 6678  15.321  -0.846  18.170
 9347POPC   C3A 6679  15.393  -0.992  18.288
 9347POPC   C4A 6680  15.464  -1.137  18.405
 9347POPC   C1B 6681  15.065  -0.776  18.072
 9347POPC   C2B 6682  15.137  -0.921  18.189
 9347POPC   C3B 6683  15.208  -1.067  18.307
 9347POPC   C4B 6684  15.280  -1.212  18.424
 9348POPC   NC3 6685   7.202  13.541  23.002
 9348POPC   PO4 6686   7.165  13.581  23.194
 9348POPC   GL1 6687   7.128  13.621  23.386
 9348POPC   GL2 6688   7.197  13.555  23.414
 9348POPC   C1A 6689   7.090  13.661  23.579
 9348POPC   D2A 6690   7.053  13.702  23.771
 9348POPC   C3A 6691   7.015  13.742  23.964
 9348POPC   C4A 6692   6.978  13.782  24.156
 9348POPC   C1B 6693   6.952  13.517  23.582
 9348POPC   C2B 6694   6.915  13.557  23.775
 9348POPC   C3B 6695   6.877  13.597  23.967
 9348POPC   C4B 6696   6.840  13.637  24.159
 9349POPC   NC3 6697  -1.167  16.646   4.907
 9349POPC   PO4 6698  -1.331  16.734   4.833
 9349POPC   GL1 6699  -1.495  16.822   4.759
 9349POPC   GL2 6700  -1.520  16.851   4.851
 9349POPC   C1A 6701  -1.659  16.909   4.685
 9349POPC   D2A 6702  -1.822  16.997   4.610
 9349POPC   C3A 6703  -1.986  17.084   4.536
 9349POPC   C4A 6704  -2.150  17.172   4.462
 9349POPC   C1B 6705  -1.761  16.740   4.711
 9349POPC   C2B 6706  -1.925  16.827   4.637
 9349POPC   C3B 6707  -2.089  16.915   4.563
 9349POPC   C4B 6708  -2.253  17.002   4.489
 9350POPC   NC3 6709   3.413   0.564  17.812
 9350POPC   PO4 6710   3.320   0.428  17.926
 9350POPC   GL1 6711   3.227   0.292  18.040
 9350POPC   GL2 6712   3.311   0.277  18.091
 9350POPC   C1A 6713   3.134   0.156  18.153
 9350POPC   D2A 6714   3.040   0.021  18.267
 9350POPC   C3A 6715   2.947  -0.115  18.380
 9350POPC   C4A 6716   2.854  -0.251  18.494
 9350POPC   C1B 6717   3.185   0.013  18.024
 9350POPC   C2B 6718   3.092  -0.123  18.138
 9350POPC   C3B 6719   2.999  -0.259  18.251
 9350POPC   C4B 6720   2.906  -0.395  18.365
 9351POPC   NC3 6721  -1.322   4.326  15.925
 9351POPC   PO4 6722  -1.482   4.240  16.008
 9351POPC   GL1 6723  -1.642   4.154  16.091
 9351POPC   GL2 6724  -1.603   4.064  16.074
 9351POPC   C1A 6725  -1.803   4.068  16.174
 9351POPC   D2A 6726  -1.963   3.982  16.256
 9351POPC   C3A 6727  -2.124   3.896  16.339
 9351POPC   C4A 6728  -2.284   3.810  16.422
 9351POPC   C1B 6729  -1.892   4.062  15.995
 9351POPC   C2B 6730  -2.053   3.976  16.078
 9351POPC   C3B 6731  -2.213   3.890  16.160
 9351POPC   C4B 6732  -2.373   3.804  16.243
 9352POPC   NC3 6733  21.975  12.275  16.298
 9352POPC   PO4 6734  22.153  12.308  16.384
 9352POPC   GL1 6735  22.331  12.341  16.470
 9352POPC   GL2 6736  22.357  12.246  16.452
 9352POPC   C1A 6737  22.508  12.374  16.556
 9352POPC   D2A 6738  22.686  12.406  16.641
 9352POPC   C3A 6739  22.863  12.439  16.727
 9352POPC   C4A 6740  23.041  12.472  16.813
 9352POPC   C1B 6741  22.432  12.320  16.733
 9352POPC   C2B 6742  22.610  12.353  16.819
 9352POPC   C3B 6743  22.788  12.386  16.904
 9352POPC   C4B 6744  22.965  12.419  16.990
 9353POPC   NC3 6745  -1.920   8.579  17.102
 9353POPC   PO4 6746  -2.089   8.565  17.208
 9353POPC   GL1 6747  -2.258   8.551  17.314
 9353POPC   GL2 6748  -2.242   8.453  17.326
 9353POPC   C1A 6749  -2.427   8.537  17.420
 9353POPC   D2A 6750  -2.596   8.522  17.525
 9353POPC   C3A 6751  -2.765   8.508  17.631
 9353POPC   C4A 6752  -2.934   8.494  17.737
 9353POPC   C1B 6753  -2.529   8.499  17.252
 9353POPC   C2B 6754  -2.698   8.484  17.358
 9353POPC   C3B 6755  -2.867   8.470  17.463
 9353POPC   C4B 6756  -3.036   8.456  17.569
 9354POPC   NC3 6757   6.317   0.330  19.243
 9354POPC   PO4 6758   6.266   0.188  19.374
 9354POPC   GL1 6759   6.215   0.046  19.505
 9354POPC   GL2 6760   6.220   0.113  19.580
 9354POPC   C1A 6761   6.164  -0.096  19.637
 9354POPC   D2A 6762   6.113  -0.237  19.768
 9354POPC   C3A 6763   6.062  -0.379  19.900
 9354POPC   C4A 6764   6.011  -0.521  20.031
 9354POPC   C1B 6765   6.357  -0.140  19.664
 9354POPC   C2B 6766   6.306  -0.281  19.796
 9354POPC   C3B 6767   6.255  -0.423  19.927
 9354POPC   C4B 6768   6.204  -0.565  20.058
 9355POPC   NC3 6769   9.244  23.369   6.334
 9355POPC   PO4 6770   9.238  23.563   6.286
 9355POPC   GL1 6771   9.232  23.757   6.238
 9355POPC   GL2 6772   9.275  23.737   6.150
 9355POPC   C1A 6773   9.226  23.951   6.190
 9355POPC   D2A 6774   9.220  24.145   6.142
 9355POPC   C3A 6775   9.214  24.339   6.094
 9355POPC   C4A 6776   9.208  24.533   6.046
 9355POPC   C1B 6777   9.407  23.977   6.271
 9355POPC   C2B 6778   9.401  24.171   6.223
 9355POPC   C3B 6779   9.395  24.365   6.175
 9355POPC   C4B 6780   9.389  24.559   6.127
 9356POPC   NC3 6781   9.692  -3.297   5.920
 9356POPC   PO4 6782   9.682  -3.488   5.861
 9356POPC   GL1 6783   9.672  -3.679   5.802
 9356POPC   GL2 6784   9.772  -3.681   5.792
 9356POPC   C1A 6785   9.662  -3.870   5.743
 9356POPC   D2A 6786   9.652  -4.060   5.683
 9356POPC   C3A 6787   9.642  -4.251   5.624
 9356POPC   C4A 6788   9.632  -4.442   5.565
 9356POPC   C1B 6789   9.645  -3.810   5.553
 9356POPC   C2B 6790   9.635  -4.000   5.493
 9356POPC   C3B 6791   9.625  -4.191   5.434
 9356POPC   C4B 6792   9.615  -4.382   5.375
 9357POPC   NC3 6793   7.373   1.062  -0.372
 9357POPC   PO4 6794   7.336   0.931  -0.518
 9357POPC   GL1 6795   7.299   0.800  -0.664
 9357POPC   GL2 6796   7.350   0.857  -0.729
 9357POPC   C1A 6797   7.262   0.669  -0.811
 9357POPC   D2A 6798   7.225   0.538  -0.957
 9357POPC   C3A 6799   7.188   0.407  -1.104
 9357POPC   C4A 6800   7.151   0.276  -1.250
 9357POPC   C1B 6801   7.094   0.767  -0.856
 9357POPC   C2B 6802   7.057   0.636  -1.003
 9357POPC   C3B 6803   7.020   0.505  -1.149
 9357POPC   C4B 6804   6.983   0.374  -1.296
 9358POPC   NC3 6805  -1.658  12.132  17.326
 9358POPC   PO4 6806  -1.823  12.154  17.437
 9358POPC   GL1 6807  -1.988  12.176  17.548
 9358POPC   GL2 6808  -1.938  12.236  17.611
 9358POPC   C1A 6809  -2.153  12.198  17.659
 9358POPC   D2A 6810  -2.318  12.221  17.769
 9358POPC   C3A 6811  -2.483  12.243  17.880
 9358POPC   C4A 6812  -2.648  12.265  17.991
 9358POPC   C1B 6813  -2.101  12.039  17.768
 9358POPC   C2B 6814  -2.266  12.062  17.879
 9358POPC   C3B 6815  -2.431  12.084  17.990
 9358POPC   C4B 6816  -2.596  12.106  18.100
 9359POPC   NC3 6817  -0.224  14.274   1.341
 9359POPC   PO4 6818  -0.364  14.338   1.214
 9359POPC   GL1 6819  -0.504  14.402   1.087
 9359POPC   GL2 6820  -0.448  14.481   1.064
 9359POPC   C1A 6821  -0.645  14.466   0.959
 9359POPC   D2A 6822  -0.785  14.529   0.832
 9359POPC   C3A 6823  -0.926  14.593   0.704
 9359POPC   C4A 6824  -1.066  14.657   0.577
 9359POPC   C1B 6825  -0.731  14.570   1.107
 9359POPC   C2B 6826  -0.872  14.633   0.979
 9359POPC   C3B 6827  -1.012  14.697   0.852
 9359POPC   C4B 6828  -1.152  14.761   0.724
 9360POPC   NC3 6829   8.744  -1.472  17.653
 9360POPC   PO4 6830   8.728  -1.637  17.764
 9360POPC   GL1 6831   8.712  -1.802  17.875
 9360POPC   GL2 6832   8.741  -1.751  17.956
 9360POPC   C1A 6833   8.696  -1.967  17.987
 9360POPC   D2A 6834   8.679  -2.133  18.098
 9360POPC   C3A 6835   8.663  -2.298  18.210
 9360POPC   C4A 6836   8.647  -2.463  18.321
 9360POPC   C1B 6837   8.886  -2.013  17.948
 9360POPC   C2B 6838   8.870  -2.178  18.059
 9360POPC   C3B 6839   8.854  -2.343  18.170
 9360POPC   C4B 6840   8.838  -2.508  18.282
 9361POPC   NC3 6841  -3.328   9.353  14.137
 9361POPC   PO4 6842  -3.519   9.344  14.197
 9361POPC   GL1 6843  -3.710   9.335  14.257
 9361POPC   GL2 6844  -3.695   9.243  14.291
 9361POPC   C1A 6845  -3.900   9.327  14.317
 9361POPC   D2A 6846  -4.091   9.318  14.376
 9361POPC   C3A 6847  -4.281   9.310  14.436
 9361POPC   C4A 6848  -4.472   9.301  14.496
 9361POPC   C1B 6849  -3.953   9.252  14.139
 9361POPC   C2B 6850  -4.143   9.243  14.198
 9361POPC   C3B 6851  -4.334   9.235  14.258
 9361POPC   C4B 6852  -4.524   9.226  14.318
 9362POPC   NC3 6853  -0.202   2.459  15.797
 9362POPC   PO4 6854  -0.347   2.350  15.881
 9362POPC   GL1 6855  -0.492   2.241  15.965
 9362POPC   GL2 6856  -0.445   2.157  15.938
 9362POPC   C1A 6857  -0.638   2.132  16.048
 9362POPC   D2A 6858  -0.783   2.023  16.132
 9362POPC   C3A 6859  -0.929   1.914  16.215
 9362POPC   C4A 6860  -1.074   1.805  16.299
 9362POPC   C1B 6861  -0.737   2.131  15.875
 9362POPC   C2B 6862  -0.882   2.022  15.958
 9362POPC   C3B 6863  -1.028   1.913  16.042
 9362POPC   C4B 6864  -1.173   1.804  16.125
 9363POPC   NC3 6865  -2.062   8.782  16.893
 9363POPC   PO4 6866  -2.235   8.768  16.993
 9363POPC   GL1 6867  -2.408   8.754  17.093
 9363POPC   GL2 6868  -2.392   8.656  17.106
 9363POPC   C1A 6869  -2.580   8.741  17.193
 9363POPC   D2A 6870  -2.753   8.727  17.294
 9363POPC   C3A 6871  -2.925   8.714  17.394
 9363POPC   C4A 6872  -3.098   8.700  17.494
 9363POPC   C1B 6873  -2.677   8.703  17.022
 9363POPC   C2B 6874  -2.849   8.690  17.122
 9363POPC   C3B 6875  -3.022   8.676  17.223
 9363POPC   C4B 6876  -3.194   8.663  17.323
 9364POPC   NC3 6877   7.183  20.839  18.104
 9364POPC   PO4 6878   7.141  20.989  18.230
 9364POPC   GL1 6879   7.099  21.139  18.356
 9364POPC   GL2 6880   7.195  21.142  18.384
 9364POPC   C1A 6881   7.057  21.288  18.482
 9364POPC   D2A 6882   7.016  21.438  18.608
 9364POPC   C3A 6883   6.974  21.587  18.734
 9364POPC   C4A 6884   6.932  21.737  18.860
 9364POPC   C1B 6885   7.020  21.156  18.627
 9364POPC   C2B 6886   6.978  21.305  18.753
 9364POPC   C3B 6887   6.936  21.455  18.879
 9364POPC   C4B 6888   6.895  21.604  19.005
 9365POPC   NC3 6889  12.234   1.735  -0.910
 9365POPC   PO4 6890  12.267   1.617  -1.068
 9365POPC   GL1 6891  12.300   1.499  -1.226
 9365POPC   GL2 6892  12.376   1.557  -1.254
 9365POPC   C1A 6893  12.333   1.381  -1.384
 9365POPC   D2A 6894  12.365   1.262  -1.542
 9365POPC   C3A 6895  12.398   1.144  -1.700
 9365POPC   C4A 6896  12.431   1.026  -1.858
 9365POPC   C1B 6897  12.208   1.492  -1.493
 9365POPC   C2B 6898  12.241   1.374  -1.651
 9365POPC   C3B 6899  12.273   1.256  -1.809
 9365POPC   C4B 6900  12.306   1.138  -1.967
 9366POPC   NC3 6901  15.056   3.127  -1.015
 9366POPC   PO4 6902  15.132   3.028  -1.171
 9366POPC   GL1 6903  15.208   2.929  -1.327
 9366POPC   GL2 6904  15.138   2.968  -1.386
 9366POPC   C1A 6905  15.284   2.830  -1.483
 9366POPC   D2A 6906  15.360   2.730  -1.640
 9366POPC   C3A 6907  15.436   2.631  -1.796
 9366POPC   C4A 6908  15.512   2.532  -1.952
 9366POPC   C1B 6909  15.164   2.675  -1.444
 9366POPC   C2B 6910  15.240   2.576  -1.600
 9366POPC   C3B 6911  15.316   2.476  -1.756
 9366POPC   C4B 6912  15.392   2.377  -1.912
 9367POPC   NC3 6913   2.297  10.975  -1.540
 9367POPC   PO4 6914   2.185  10.991  -1.705
 9367POPC   GL1 6915   2.073  11.007  -1.870
 9367POPC   GL2 6916   2.012  11.070  -1.823
 9367POPC   C1A 6917   1.961  11.022  -2.035
 9367POPC   D2A 6918   1.850  11.038  -2.200
 9367POPC   C3A 6919   1.738  11.053  -2.365
 9367POPC   C4A 6920   1.626  11.069  -2.530
 9367POPC   C1B 6921   1.849  10.869  -1.973
 9367POPC   C2B 6922   1.737  10.884  -2.138
 9367POPC   C3B 6923   1.625  10.900  -2.303
 9367POPC   C4B 6924   1.513  10.916  -2.468
 9368POPC   NC3 6925  10.168  12.175  23.611
 9368POPC   PO4 6926  10.170  12.208  23.808
 9368POPC   GL1 6927  10.172  12.241  24.005
 9368POPC   GL2 6928  10.214  12.152  24.020
 9368POPC   C1A 6929  10.174  12.275  24.202
 9368POPC   D2A 6930  10.177  12.308  24.400
 9368POPC   C3A 6931  10.179  12.342  24.597
 9368POPC   C4A 6932  10.181  12.375  24.794
 9368POPC   C1B 6933   9.993  12.193  24.218
 9368POPC   C2B 6934   9.995  12.226  24.416
 9368POPC   C3B 6935   9.997  12.260  24.613
 9368POPC   C4B 6936   9.999  12.293  24.810
 9369POPC   NC3 6937  -4.042  10.182   9.741
 9369POPC   PO4 6938  -4.242  10.186   9.738
 9369POPC   GL1 6939  -4.442  10.190   9.735
 9369POPC   GL2 6940  -4.441  10.277   9.785
 9369POPC   C1A 6941  -4.642  10.193   9.732
 9369POPC   D2A 6942  -4.842  10.197   9.729
 9369POPC   C3A 6943  -5.042  10.200   9.726
 9369POPC   C4A 6944  -5.242  10.204   9.723
 9369POPC   C1B 6945  -4.646  10.094   9.906
 9369POPC   C2B 6946  -4.846  10.098   9.903
 9369POPC   C3B 6947  -5.046  10.102   9.900
 9369POPC   C4B 6948  -5.246  10.105   9.897
 9370POPC   NC3 6949  -1.106   7.690  18.105
 9370POPC   PO4 6950  -1.262   7.661  18.226
 9370POPC   GL1 6951  -1.418   7.632  18.347
 9370POPC   GL2 6952  -1.379   7.696  18.413
 9370POPC   C1A 6953  -1.575   7.603  18.468
 9370POPC   D2A 6954  -1.731   7.573  18.590
 9370POPC   C3A 6955  -1.888   7.544  18.711
 9370POPC   C4A 6956  -2.044   7.515  18.832
 9370POPC   C1B 6957  -1.477   7.453  18.558
 9370POPC   C2B 6958  -1.634   7.424  18.679
 9370POPC   C3B 6959  -1.790   7.394  18.801
 9370POPC   C4B 6960  -1.947   7.365  18.922
 9371POPC   NC3 6961  19.945  12.745   0.871
 9371POPC   PO4 6962  20.095  12.778   0.743
 9371POPC   GL1 6963  20.245  12.811   0.615
 9371POPC   GL2 6964  20.194  12.762   0.543
 9371POPC   C1A 6965  20.395  12.844   0.486
 9371POPC   D2A 6966  20.544  12.878   0.358
 9371POPC   C3A 6967  20.694  12.911   0.229
 9371POPC   C4A 6968  20.844  12.944   0.101
 9371POPC   C1B 6969  20.481  12.673   0.542
 9371POPC   C2B 6970  20.631  12.706   0.414
 9371POPC   C3B 6971  20.781  12.739   0.286
 9371POPC   C4B 6972  20.930  12.773   0.157
 9372POPC   NC3 6973   7.831  -3.246  13.621
 9372POPC   PO4 6974   7.799  -3.436  13.674
 9372POPC   GL1 6975   7.767  -3.626  13.727
 9372POPC   GL2 6976   7.863  -3.635  13.752
 9372POPC   C1A 6977   7.734  -3.816  13.781
 9372POPC   D2A 6978   7.702  -4.006  13.834
 9372POPC   C3A 6979   7.669  -4.196  13.888
 9372POPC   C4A 6980   7.637  -4.386  13.941
 9372POPC   C1B 6981   7.776  -3.875  13.595
 9372POPC   C2B 6982   7.744  -4.065  13.648
 9372POPC   C3B 6983   7.712  -4.255  13.701
 9372POPC   C4B 6984   7.679  -4.445  13.755
 9373POPC   NC3 6985   5.578  -2.143  15.145
 9373POPC   PO4 6986   5.513  -2.317  15.219
 9373POPC   GL1 6987   5.448  -2.491  15.293
 9373POPC   GL2 6988   5.537  -2.505  15.338
 9373POPC   C1A 6989   5.384  -2.665  15.368
 9373POPC   D2A 6990   5.319  -2.839  15.442
 9373POPC   C3A 6991   5.255  -3.013  15.517
 9373POPC   C4A 6992   5.190  -3.187  15.591
 9373POPC   C1B 6993   5.451  -2.760  15.205
 9373POPC   C2B 6994   5.386  -2.934  15.279
 9373POPC   C3B 6995   5.321  -3.108  15.354
 9373POPC   C4B 6996   5.257  -3.282  15.428
 9374POPC   NC3 6997   1.879  10.482  21.261
 9374POPC   PO4 6998   1.756  10.498  21.418
 9374POPC   GL1 6999   1.633  10.514  21.575
 9374POPC   GL2 7000   1.701  10.467  21.633
 9374POPC   C1A 7001   1.511  10.530  21.732
 9374POPC   D2A 7002   1.388  10.545  21.890
 9374POPC   C3A 7003   1.266  10.561  22.047
 9374POPC   C4A 7004   1.143  10.577  22.204
 9374POPC   C1B 7005   1.429  10.353  21.686
 9374POPC   C2B 7006   1.306  10.369  21.844
 9374POPC   C3B 7007   1.184  10.385  22.001
 9374POPC   C4B 7008   1.061  10.400  22.158
 9375POPC   NC3 7009  12.780   2.333  21.097
 9375POPC   PO4 7010  12.820   2.214  21.253
 9375POPC   GL1 7011  12.860   2.095  21.409
 9375POPC   GL2 7012  12.931   2.049  21.356
 9375POPC   C1A 7013  12.899   1.976  21.565
 9375POPC   D2A 7014  12.939   1.858  21.721
 9375POPC   C3A 7015  12.978   1.739  21.877
 9375POPC   C4A 7016  13.018   1.620  22.033
 9375POPC   C1B 7017  12.764   1.845  21.499
 9375POPC   C2B 7018  12.804   1.726  21.655
 9375POPC   C3B 7019  12.843   1.607  21.811
 9375POPC   C4B 7020  12.883   1.488  21.967
 9376POPC   NC3 7021   5.095  -2.192  14.565
 9376POPC   PO4 7022   5.026  -2.368  14.631
 9376POPC   GL1 7023   4.957  -2.544  14.697
 9376POPC   GL2 7024   5.050  -2.575  14.713
 9376POPC   C1A 7025   4.887  -2.719  14.763
 9376POPC   D2A 7026   4.818  -2.895  14.830
 9376POPC   C3A 7027   4.748  -3.070  14.896
 9376POPC   C4A 7028   4.679  -3.246  14.962
 9376POPC   C1B 7029   4.895  -2.792  14.577
 9376POPC   C2B 7030   4.825  -2.968  14.644
 9376POPC   C3B 7031   4.756  -3.144  14.710
 9376POPC   C4B 7032   4.687  -3.319  14.776
 9377POPC   NC3 7033  22.401   4.254   8.711
 9377POPC   PO4 7034  22.579   4.166   8.689
 9377POPC   GL1 7035  22.757   4.078   8.667
 9377POPC   GL2 7036  22.752   4.093   8.568
 9377POPC   C1A 7037  22.936   3.991   8.645
 9377POPC   D2A 7038  23.114   3.903   8.622
 9377POPC   C3A 7039  23.293   3.816   8.600
 9377POPC   C4A 7040  23.471   3.728   8.578
 9377POPC   C1B 7041  22.846   3.814   8.622
 9377POPC   C2B 7042  23.024   3.726   8.600
 9377POPC   C3B 7043  23.203   3.638   8.578
 9377POPC   C4B 7044  23.381   3.551   8.555
 9378POPC   NC3 7045  13.578  12.521  23.069
 9378POPC   PO4 7046  13.623  12.561  23.260
 9378POPC   GL1 7047  13.668  12.601  23.451
 9378POPC   GL2 7048  13.744  12.658  23.420
 9378POPC   C1A 7049  13.714  12.641  23.641
 9378POPC   D2A 7050  13.759  12.680  23.832
 9378POPC   C3A 7051  13.805  12.720  24.022
 9378POPC   C4A 7052  13.850  12.760  24.213
 9378POPC   C1B 7053  13.835  12.482  23.645
 9378POPC   C2B 7054  13.881  12.522  23.836
 9378POPC   C3B 7055  13.926  12.561  24.027
 9378POPC   C4B 7056  13.971  12.601  24.217
 9379POPC   NC3 7057  -3.009  10.633  15.043
 9379POPC   PO4 7058  -3.196  10.634  15.113
 9379POPC   GL1 7059  -3.383  10.635  15.183
 9379POPC   GL2 7060  -3.376  10.537  15.204
 9379POPC   C1A 7061  -3.571  10.635  15.252
 9379POPC   D2A 7062  -3.758  10.636  15.322
 9379POPC   C3A 7063  -3.946  10.636  15.391
 9379POPC   C4A 7064  -4.133  10.637  15.461
 9379POPC   C1B 7065  -3.639  10.590  15.070
 9379POPC   C2B 7066  -3.826  10.591  15.139
 9379POPC   C3B 7067  -4.014  10.591  15.209
 9379POPC   C4B 7068  -4.201  10.592  15.278
 9380POPC   NC3 7069   1.830  21.019   8.283
 9380POPC   PO4 7070   1.716  21.181   8.257
 9380POPC   GL1 7071   1.602  21.343   8.231
 9380POPC   GL2 7072   1.677  21.388   8.182
 9380POPC   C1A 7073   1.488  21.506   8.205
 9380POPC   D2A 7074   1.375  21.668   8.180
 9380POPC   C3A 7075   1.261  21.831   8.154
 9380POPC   C4A 7076   1.147  21.993   8.128
 9380POPC   C1B 7077   1.557  21.581   8.378
 9380POPC   C2B 7078   1.443  21.743   8.352
 9380POPC   C3B 7079   1.329  21.906   8.326
 9380POPC   C4B 7080   1.215  22.068   8.300
 9381POPC   NC3 7081  -2.517  13.242   4.781
 9381POPC   PO4 7082  -2.697  13.292   4.711
 9381POPC   GL1 7083  -2.877  13.342   4.641
 9381POPC   GL2 7084  -2.898  13.389   4.727
 9381POPC   C1A 7085  -3.058  13.393   4.571
 9381POPC   D2A 7086  -3.238  13.443   4.501
 9381POPC   C3A 7087  -3.419  13.494   4.431
 9381POPC   C4A 7088  -3.599  13.544   4.361
 9381POPC   C1B 7089  -3.134  13.224   4.645
 9381POPC   C2B 7090  -3.314  13.274   4.575
 9381POPC   C3B 7091  -3.495  13.324   4.505
 9381POPC   C4B 7092  -3.675  13.375   4.435
 9382POPC   NC3 7093  -0.531  16.808   3.829
 9382POPC   PO4 7094  -0.685  16.901   3.742
 9382POPC   GL1 7095  -0.839  16.994   3.655
 9382POPC   GL2 7096  -0.864  17.035   3.743
 9382POPC   C1A 7097  -0.994  17.087   3.568
 9382POPC   D2A 7098  -1.148  17.180   3.482
 9382POPC   C3A 7099  -1.303  17.273   3.395
 9382POPC   C4A 7100  -1.457  17.366   3.308
 9382POPC   C1B 7101  -1.111  16.931   3.610
 9382POPC   C2B 7102  -1.266  17.024   3.523
 9382POPC   C3B 7103  -1.420  17.117   3.436
 9382POPC   C4B 7104  -1.575  17.210   3.349
 9383POPC   NC3 7105   5.162  23.023  10.752
 9383POPC   PO4 7106   5.090  23.209  10.767
 9383POPC   GL1 7107   5.018  23.395  10.782
 9383POPC   GL2 7108   5.099  23.423  10.832
 9383POPC   C1A 7109   4.945  23.581  10.796
 9383POPC   D2A 7110   4.873  23.766  10.811
 9383POPC   C3A 7111   4.800  23.952  10.825
 9383POPC   C4A 7112   4.728  24.138  10.840
 9383POPC   C1B 7113   4.855  23.532  10.968
 9383POPC   C2B 7114   4.782  23.718  10.982
 9383POPC   C3B 7115   4.710  23.904  10.997
 9383POPC   C4B 7116   4.638  24.089  11.012
 9384POPC   NC3 7117  -0.848   5.042  17.289
 9384POPC   PO4 7118  -0.996   4.965  17.400
 9384POPC   GL1 7119  -1.144   4.888  17.511
 9384POPC   GL2 7120  -1.102   4.798  17.504
 9384POPC   C1A 7121  -1.292   4.811  17.621
 9384POPC   D2A 7122  -1.439   4.735  17.732
 9384POPC   C3A 7123  -1.587   4.658  17.842
 9384POPC   C4A 7124  -1.735   4.581  17.953
 9384POPC   C1B 7125  -1.397   4.775  17.455
 9384POPC   C2B 7126  -1.545   4.698  17.566
 9384POPC   C3B 7127  -1.692   4.621  17.676
 9384POPC   C4B 7128  -1.840   4.544  17.787
 9385POPC   NC3 7129  10.136  23.597   7.429
 9385POPC   PO4 7130  10.142  23.794   7.393
 9385POPC   GL1 7131  10.148  23.991   7.357
 9385POPC   GL2 7132  10.227  23.999   7.418
 9385POPC   C1A 7133  10.153  24.187   7.321
 9385POPC   D2A 7134  10.159  24.384   7.286
 9385POPC   C3A 7135  10.164  24.580   7.250
 9385POPC   C4A 7136  10.170  24.777   7.214
 9385POPC   C1B 7137  10.032  24.219   7.477
 9385POPC   C2B 7138  10.037  24.416   7.441
 9385POPC   C3B 7139  10.043  24.612   7.405
 9385POPC   C4B 7140  10.048  24.809   7.370
 9386POPC   NC3 7141  18.767  18.070  16.745
 9386POPC   PO4 7142  18.895  18.195  16.834
 9386POPC   GL1 7143  19.023  18.320  16.923
 9386POPC   GL2 7144  19.100  18.270  16.884
 9386POPC   C1A 7145  19.151  18.446  17.012
 9386POPC   D2A 7146  19.279  18.571  17.100
 9386POPC   C3A 7147  19.407  18.697  17.189
 9386POPC   C4A 7148  19.535  18.822  17.278
 9386POPC   C1B 7149  19.155  18.328  17.173
 9386POPC   C2B 7150  19.283  18.453  17.262
 9386POPC   C3B 7151  19.411  18.579  17.351
 9386POPC   C4B 7152  19.539  18.704  17.439
 9387POPC   NC3 7153   8.061  21.346  17.695
 9387POPC   PO4 7154   8.033  21.508  17.808
 9387POPC   GL1 7155   8.005  21.670  17.921
 9387POPC   GL2 7156   8.102  21.669  17.947
 9387POPC   C1A 7157   7.977  21.833  18.035
 9387POPC   D2A 7158   7.950  21.995  18.148
 9387POPC   C3A 7159   7.922  22.158  18.262
 9387POPC   C4A 7160   7.894  22.320  18.375
 9387POPC   C1B 7161   7.935  21.716  18.192
 9387POPC   C2B 7162   7.907  21.878  18.305
 9387POPC   C3B 7163   7.880  22.041  18.418
 9387POPC   C4B 7164   7.852  22.203  18.532
 9388POPC   NC3 7165  10.097  21.058  18.283
 9388POPC   PO4 7166  10.105  21.215  18.407
 9388POPC   GL1 7167  10.113  21.372  18.531
 9388POPC   GL2 7168  10.194  21.333  18.575
 9388POPC   C1A 7169  10.120  21.529  18.655
 9388POPC   D2A 7170  10.128  21.686  18.778
 9388POPC   C3A 7171  10.135  21.843  18.902
 9388POPC   C4A 7172  10.143  22.000  19.026
 9388POPC   C1B 7173  10.003  21.432  18.785
 9388POPC   C2B 7174  10.011  21.589  18.908
 9388POPC   C3B 7175  10.018  21.746  19.032
 9388POPC   C4B 7176  10.026  21.903  19.156
 9389POPC   NC3 7177   2.034  20.919  13.288
 9389POPC   PO4 7178   1.930  21.079  13.347
 9389POPC   GL1 7179   1.826  21.239  13.406
 9389POPC   GL2 7180   1.894  21.257  13.478
 9389POPC   C1A 7181   1.722  21.399  13.466
 9389POPC   D2A 7182   1.617  21.559  13.525
 9389POPC   C3A 7183   1.513  21.719  13.585
 9389POPC   C4A 7184   1.409  21.879  13.644
 9389POPC   C1B 7185   1.618  21.284  13.592
 9389POPC   C2B 7186   1.513  21.444  13.652
 9389POPC   C3B 7187   1.409  21.604  13.711
 9389POPC   C4B 7188   1.305  21.764  13.771
 9390POPC   NC3 7189  12.828  -0.590  18.259
 9390POPC   PO4 7190  12.865  -0.739  18.387
 9390POPC   GL1 7191  12.902  -0.888  18.515
 9390POPC   GL2 7192  12.977  -0.836  18.555
 9390POPC   C1A 7193  12.939  -1.038  18.643
 9390POPC   D2A 7194  12.975  -1.187  18.770
 9390POPC   C3A 7195  13.012  -1.337  18.898
 9390POPC   C4A 7196  13.049  -1.486  19.026
 9390POPC   C1B 7197  13.066  -1.118  18.512
 9390POPC   C2B 7198  13.103  -1.268  18.639
 9390POPC   C3B 7199  13.140  -1.417  18.767
 9390POPC   C4B 7200  13.177  -1.567  18.895
 9391POPC   NC3 7201   3.169   6.061  21.381
 9391POPC   PO4 7202   3.064   5.999  21.540
 9391POPC   GL1 7203   2.959   5.937  21.699
 9391POPC   GL2 7204   3.014   5.854  21.703
 9391POPC   C1A 7205   2.854   5.875  21.857
 9391POPC   D2A 7206   2.749   5.813  22.016
 9391POPC   C3A 7207   2.644   5.751  22.174
 9391POPC   C4A 7208   2.539   5.689  22.333
 9391POPC   C1B 7209   2.725   5.783  21.736
 9391POPC   C2B 7210   2.620   5.721  21.894
 9391POPC   C3B 7211   2.515   5.659  22.053
 9391POPC   C4B 7212   2.410   5.597  22.211
 9392POPC   NC3 7213  23.573   8.695  10.421
 9392POPC   PO4 7214  23.772   8.681  10.426
 9392POPC   GL1 7215  23.971   8.667  10.431
 9392POPC   GL2 7216  23.979   8.756  10.387
 9392POPC   C1A 7217  24.171   8.652  10.436
 9392POPC   D2A 7218  24.370   8.638  10.440
 9392POPC   C3A 7219  24.570   8.623  10.445
 9392POPC   C4A 7220  24.769   8.609  10.450
 9392POPC   C1B 7221  24.169   8.565  10.256
 9392POPC   C2B 7222  24.368   8.550  10.261
 9392POPC   C3B 7223  24.568   8.536  10.265
 9392POPC   C4B 7224  24.767   8.521  10.270
 9393POPC   NC3 7225   8.459   0.007  19.457
 9393POPC   PO4 7226   8.442  -0.138  19.593
 9393POPC   GL1 7227   8.425  -0.283  19.729
 9393POPC   GL2 7228   8.436  -0.352  19.657
 9393POPC   C1A 7229   8.407  -0.429  19.865
 9393POPC   D2A 7230   8.390  -0.574  20.002
 9393POPC   C3A 7231   8.372  -0.720  20.138
 9393POPC   C4A 7232   8.355  -0.865  20.274
 9393POPC   C1B 7233   8.209  -0.431  19.837
 9393POPC   C2B 7234   8.192  -0.577  19.974
 9393POPC   C3B 7235   8.174  -0.722  20.110
 9393POPC   C4B 7236   8.157  -0.868  20.246
 9394POPC   NC3 7237  -1.550   7.764   2.394
 9394POPC   PO4 7238  -1.715   7.734   2.284
 9394POPC   GL1 7239  -1.880   7.704   2.174
 9394POPC   GL2 7240  -1.860   7.606   2.172
 9394POPC   C1A 7241  -2.044   7.674   2.065
 9394POPC   D2A 7242  -2.209   7.644   1.955
 9394POPC   C3A 7243  -2.373   7.614   1.846
 9394POPC   C4A 7244  -2.538   7.584   1.736
 9394POPC   C1B 7245  -1.937   7.699   1.898
 9394POPC   C2B 7246  -2.102   7.669   1.788
 9394POPC   C3B 7247  -2.267   7.639   1.678
 9394POPC   C4B 7248  -2.431   7.609   1.569
 9395POPC   NC3 7249  20.914   7.358   1.954
 9395POPC   PO4 7250  21.074   7.324   1.839
 9395POPC   GL1 7251  21.234   7.290   1.724
 9395POPC   GL2 7252  21.184   7.324   1.644
 9395POPC   C1A 7253  21.394   7.257   1.609
 9395POPC   D2A 7254  21.554   7.223   1.494
 9395POPC   C3A 7255  21.714   7.190   1.379
 9395POPC   C4A 7256  21.874   7.156   1.264
 9395POPC   C1B 7257  21.328   7.072   1.571
 9395POPC   C2B 7258  21.488   7.038   1.456
 9395POPC   C3B 7259  21.648   7.005   1.341
 9395POPC   C4B 7260  21.808   6.971   1.226
 9396POPC   NC3 7261   9.855  -3.084  14.632
 9396POPC   PO4 7262   9.856  -3.272  14.701
 9396POPC   GL1 7263   9.857  -3.460  14.770
 9396POPC   GL2 7264   9.912  -3.431  14.848
 9396POPC   C1A 7265   9.857  -3.648  14.839
 9396POPC   D2A 7266   9.858  -3.835  14.908
 9396POPC   C3A 7267   9.858  -4.023  14.977
 9396POPC   C4A 7268   9.859  -4.211  15.046
 9396POPC   C1B 7269  10.024  -3.685  14.735
 9396POPC   C2B 7270  10.024  -3.873  14.804
 9396POPC   C3B 7271  10.025  -4.061  14.873
 9396POPC   C4B 7272  10.025  -4.249  14.942
 9397POPC   NC3 7273  12.710  -3.576  10.766
 9397POPC   PO4 7274  12.748  -3.772  10.782
 9397POPC   GL1 7275  12.786  -3.968  10.798
 9397POPC   GL2 7276  12.790  -3.975  10.698
 9397POPC   C1A 7277  12.824  -4.164  10.813
 9397POPC   D2A 7278  12.862  -4.359  10.829
 9397POPC   C3A 7279  12.900  -4.555  10.844
 9397POPC   C4A 7280  12.938  -4.751  10.860
 9397POPC   C1B 7281  12.628  -4.202  10.807
 9397POPC   C2B 7282  12.666  -4.398  10.823
 9397POPC   C3B 7283  12.704  -4.594  10.838
 9397POPC   C4B 7284  12.742  -4.790  10.854
 9398POPC   NC3 7285  18.356  16.086  18.940
 9398POPC   PO4 7286  18.478  16.167  19.076
 9398POPC   GL1 7287  18.600  16.248  19.212
 9398POPC   GL2 7288  18.678  16.201  19.171
 9398POPC   C1A 7289  18.722  16.329  19.348
 9398POPC   D2A 7290  18.844  16.411  19.485
 9398POPC   C3A 7291  18.966  16.492  19.621
 9398POPC   C4A 7292  19.088  16.573  19.757
 9398POPC   C1B 7293  18.692  16.173  19.469
 9398POPC   C2B 7294  18.814  16.254  19.605
 9398POPC   C3B 7295  18.936  16.335  19.741
 9398POPC   C4B 7296  19.058  16.416  19.878
 9399POPC   NC3 7297   1.179   6.118  -0.156
 9399POPC   PO4 7298   1.057   6.058  -0.303
 9399POPC   GL1 7299   0.935   5.998  -0.450
 9399POPC   GL2 7300   0.878   5.951  -0.383
 9399POPC   C1A 7301   0.813   5.938  -0.597
 9399POPC   D2A 7302   0.691   5.878  -0.743
 9399POPC   C3A 7303   0.569   5.818  -0.890
 9399POPC   C4A 7304   0.447   5.758  -1.037
 9399POPC   C1B 7305   0.922   5.772  -0.620
 9399POPC   C2B 7306   0.800   5.712  -0.766
 9399POPC   C3B 7307   0.678   5.652  -0.913
 9399POPC   C4B 7308   0.556   5.592  -1.060
 9400POPC   NC3 7309  14.647  22.417   6.310
 9400POPC   PO4 7310  14.712  22.598   6.255
 9400POPC   GL1 7311  14.777  22.779   6.200
 9400POPC   GL2 7312  14.857  22.737   6.157
 9400POPC   C1A 7313  14.842  22.960   6.145
 9400POPC   D2A 7314  14.906  23.141   6.089
 9400POPC   C3A 7315  14.971  23.322   6.034
 9400POPC   C4A 7316  15.036  23.503   5.979
 9400POPC   C1B 7317  14.942  22.977   6.317
 9400POPC   C2B 7318  15.007  23.158   6.262
 9400POPC   C3B 7319  15.071  23.339   6.206
 9400POPC   C4B 7320  15.136  23.520   6.151
 9401POPC   NC3 7321   9.580  22.208  16.527
 9401POPC   PO4 7322   9.575  22.385  16.619
 9401POPC   GL1 7323   9.570  22.562  16.711
 9401POPC   GL2 7324   9.594  22.518  16.798
 9401POPC   C1A 7325   9.565  22.740  16.803
 9401POPC   D2A 7326   9.561  22.917  16.896
 9401POPC   C3A 7327   9.556  23.095  16.988
 9401POPC   C4A 7328   9.551  23.272  17.080
 9401POPC   C1B 7329   9.371  22.713  16.844
 9401POPC   C2B 7330   9.367  22.891  16.936
 9401POPC   C3B 7331   9.362  23.068  17.028
 9401POPC   C4B 7332   9.357  23.246  17.121
 9402POPC   NC3 7333  16.876  -0.495  15.725
 9402POPC   PO4 7334  16.981  -0.645  15.805
 9402POPC   GL1 7335  17.086  -0.795  15.885
 9402POPC   GL2 7336  17.153  -0.730  15.919
 9402POPC   C1A 7337  17.190  -0.945  15.966
 9402POPC   D2A 7338  17.295  -1.096  16.046
 9402POPC   C3A 7339  17.399  -1.246  16.127
 9402POPC   C4A 7340  17.504  -1.396  16.207
 9402POPC   C1B 7341  17.293  -0.965  15.796
 9402POPC   C2B 7342  17.398  -1.115  15.876
 9402POPC   C3B 7343  17.503  -1.265  15.956
 9402POPC   C4B 7344  17.607  -1.415  16.037
 9403POPC   NC3 7345  -1.600  17.836   9.026
 9403POPC   PO4 7346  -1.764  17.950   9.016
 9403POPC   GL1 7347  -1.928  18.064   9.006
 9403POPC   GL2 7348  -1.967  18.014   9.083
 9403POPC   C1A 7349  -2.092  18.178   8.996
 9403POPC   D2A 7350  -2.256  18.293   8.987
 9403POPC   C3A 7351  -2.420  18.407   8.977
 9403POPC   C4A 7352  -2.584  18.521   8.967
 9403POPC   C1B 7353  -2.175  18.048   8.870
 9403POPC   C2B 7354  -2.339  18.162   8.860
 9403POPC   C3B 7355  -2.503  18.276   8.850
 9403POPC   C4B 7356  -2.667  18.391   8.840
 9404POPC   NC3 7357  12.709  21.517  17.018
 9404POPC   PO4 7358  12.750  21.682  17.124
 9404POPC   GL1 7359  12.791  21.847  17.230
 9404POPC   GL2 7360  12.878  21.807  17.259
 9404POPC   C1A 7361  12.831  22.012  17.336
 9404POPC   D2A 7362  12.872  22.176  17.442
 9404POPC   C3A 7363  12.912  22.341  17.548
 9404POPC   C4A 7364  12.953  22.506  17.654
 9404POPC   C1B 7365  12.742  21.931  17.496
 9404POPC   C2B 7366  12.783  22.096  17.602
 9404POPC   C3B 7367  12.823  22.260  17.708
 9404POPC   C4B 7368  12.864  22.425  17.814
 9405POPC   NC3 7369  -2.672   5.061   6.873
 9405POPC   PO4 7370  -2.853   4.984   6.835
 9405POPC   GL1 7371  -3.034   4.907   6.797
 9405POPC   GL2 7372  -3.014   4.831   6.858
 9405POPC   C1A 7373  -3.215   4.831   6.759
 9405POPC   D2A 7374  -3.395   4.754   6.722
 9405POPC   C3A 7375  -3.576   4.678   6.684
 9405POPC   C4A 7376  -3.757   4.601   6.646
 9405POPC   C1B 7377  -3.139   4.728   6.606
 9405POPC   C2B 7378  -3.320   4.651   6.568
 9405POPC   C3B 7379  -3.500   4.574   6.530
 9405POPC   C4B 7380  -3.681   4.498   6.492
 9406POPC   NC3 7381  16.479   0.856  17.945
 9406POPC   PO4 7382  16.577   0.726  18.062
 9406POPC   GL1 7383  16.675   0.596  18.179
 9406POPC   GL2 7384  16.682   0.532  18.102
 9406POPC   C1A 7385  16.773   0.466  18.295
 9406POPC   D2A 7386  16.870   0.337  18.412
 9406POPC   C3A 7387  16.968   0.207  18.528
 9406POPC   C4A 7388  17.066   0.077  18.645
 9406POPC   C1B 7389  16.599   0.383  18.348
 9406POPC   C2B 7390  16.697   0.253  18.465
 9406POPC   C3B 7391  16.794   0.123  18.582
 9406POPC   C4B 7392  16.892  -0.006  18.698
 9407POPC   NC3 7393  21.507  17.339   8.893
 9407POPC   PO4 7394  21.676  17.445   8.873
 9407POPC   GL1 7395  21.845  17.551   8.853
 9407POPC   GL2 7396  21.896  17.466   8.836
 9407POPC   C1A 7397  22.013  17.657   8.833
 9407POPC   D2A 7398  22.182  17.762   8.814
 9407POPC   C3A 7399  22.350  17.868   8.794
 9407POPC   C4A 7400  22.519  17.974   8.774
 9407POPC   C1B 7401  22.048  17.638   9.030
 9407POPC   C2B 7402  22.216  17.744   9.010
 9407POPC   C3B 7403  22.385  17.850   8.990
 9407POPC   C4B 7404  22.554  17.956   8.970
 9408POPC   NC3 7405   5.271   3.242  21.207
 9408POPC   PO4 7406   5.204   3.147  21.370
 9408POPC   GL1 7407   5.137   3.052  21.533
 9408POPC   GL2 7408   5.152   2.964  21.488
 9408POPC   C1A 7409   5.070   2.958  21.696
 9408POPC   D2A 7410   5.002   2.863  21.859
 9408POPC   C3A 7411   4.935   2.769  22.022
 9408POPC   C4A 7412   4.868   2.674  22.185
 9408POPC   C1B 7413   4.884   2.962  21.622
 9408POPC   C2B 7414   4.817   2.868  21.785
 9408POPC   C3B 7415   4.749   2.773  21.948
 9408POPC   C4B 7416   4.682   2.678  22.111
 9409POPC   NC3 7417   0.659   1.322  15.659
 9409POPC   PO4 7418   0.526   1.198  15.742
 9409POPC   GL1 7419   0.393   1.074  15.825
 9409POPC   GL2 7420   0.393   1.130  15.908
 9409POPC   C1A 7421   0.259   0.951  15.908
 9409POPC   D2A 7422   0.126   0.827  15.992
 9409POPC   C3A 7423  -0.008   0.704  16.075
 9409POPC   C4A 7424  -0.141   0.580  16.158
 9409POPC   C1B 7425   0.408   0.839  15.982
 9409POPC   C2B 7426   0.275   0.716  16.065
 9409POPC   C3B 7427   0.141   0.592  16.148
 9409POPC   C4B 7428   0.008   0.469  16.231
 9410POPC   NC3 7429  20.062  18.663  13.215
 9410POPC   PO4 7430  20.205  18.793  13.266
 9410POPC   GL1 7431  20.348  18.923  13.317
 9410POPC   GL2 7432  20.318  18.985  13.244
 9410POPC   C1A 7433  20.491  19.053  13.368
 9410POPC   D2A 7434  20.635  19.183  13.418
 9410POPC   C3A 7435  20.778  19.313  13.469
 9410POPC   C4A 7436  20.921  19.443  13.520
 9410POPC   C1B 7437  20.617  18.965  13.239
 9410POPC   C2B 7438  20.760  19.095  13.290
 9410POPC   C3B 7439  20.903  19.225  13.341
 9410POPC   C4B 7440  21.047  19.355  13.392
 9411POPC   NC3 7441  10.595   8.287  -3.799
 9411POPC   PO4 7442  10.597   8.259  -3.997
 9411POPC   GL1 7443  10.599   8.231  -4.195
 9411POPC   GL2 7444  10.697   8.255  -4.197
 9411POPC   C1A 7445  10.602   8.204  -4.393
 9411POPC   D2A 7446  10.604   8.176  -4.591
 9411POPC   C3A 7447  10.607   8.149  -4.789
 9411POPC   C4A 7448  10.609   8.121  -4.987
 9411POPC   C1B 7449  10.555   8.396  -4.420
 9411POPC   C2B 7450  10.558   8.369  -4.618
 9411POPC   C3B 7451  10.560   8.341  -4.816
 9411POPC   C4B 7452  10.563   8.314  -5.014
 9412POPC   NC3 7453   9.277   4.874  -2.876
 9412POPC   PO4 7454   9.271   4.804  -3.063
 9412POPC   GL1 7455   9.265   4.734  -3.250
 9412POPC   GL2 7456   9.363   4.714  -3.246
 9412POPC   C1A 7457   9.259   4.663  -3.437
 9412POPC   D2A 7458   9.252   4.593  -3.624
 9412POPC   C3A 7459   9.246   4.522  -3.811
 9412POPC   C4A 7460   9.240   4.452  -3.998
 9412POPC   C1B 7461   9.299   4.846  -3.507
 9412POPC   C2B 7462   9.293   4.776  -3.694
 9412POPC   C3B 7463   9.287   4.705  -3.881
 9412POPC   C4B 7464   9.280   4.635  -4.068
 9413POPC   NC3 7465   9.451  -0.947  18.429
 9413POPC   PO4 7466   9.449  -1.103  18.554
 9413POPC   GL1 7467   9.447  -1.259  18.679
 9413POPC   GL2 7468   9.508  -1.309  18.617
 9413POPC   C1A 7469   9.446  -1.415  18.804
 9413POPC   D2A 7470   9.444  -1.571  18.930
 9413POPC   C3A 7471   9.443  -1.727  19.055
 9413POPC   C4A 7472   9.441  -1.883  19.180
 9413POPC   C1B 7473   9.286  -1.490  18.710
 9413POPC   C2B 7474   9.285  -1.646  18.835
 9413POPC   C3B 7475   9.283  -1.802  18.960
 9413POPC   C4B 7476   9.281  -1.958  19.085
 9414POPC   NC3 7477   6.941  -3.221  13.015
 9414POPC   PO4 7478   6.897  -3.412  13.055
 9414POPC   GL1 7479   6.853  -3.603  13.095
 9414POPC   GL2 7480   6.914  -3.632  13.022
 9414POPC   C1A 7481   6.809  -3.794  13.135
 9414POPC   D2A 7482   6.766  -3.985  13.176
 9414POPC   C3A 7483   6.722  -4.176  13.216
 9414POPC   C4A 7484   6.678  -4.367  13.256
 9414POPC   C1B 7485   6.657  -3.786  13.006
 9414POPC   C2B 7486   6.613  -3.977  13.047
 9414POPC   C3B 7487   6.569  -4.168  13.087
 9414POPC   C4B 7488   6.525  -4.359  13.127
 9415POPC   NC3 7489  10.265  11.281  -3.877
 9415POPC   PO4 7490  10.265  11.300  -4.076
 9415POPC   GL1 7491  10.265  11.319  -4.275
 9415POPC   GL2 7492  10.340  11.253  -4.281
 9415POPC   C1A 7493  10.266  11.339  -4.474
 9415POPC   D2A 7494  10.266  11.358  -4.673
 9415POPC   C3A 7495  10.267  11.378  -4.872
 9415POPC   C4A 7496  10.267  11.397  -5.071
 9415POPC   C1B 7497  10.400  11.487  -4.459
 9415POPC   C2B 7498  10.400  11.506  -4.658
 9415POPC   C3B 7499  10.401  11.525  -4.857
 9415POPC   C4B 7500  10.401  11.545  -5.056
 9416POPC   NC3 7501   0.588  20.255  11.012
 9416POPC   PO4 7502   0.453  20.403  11.020
 9416POPC   GL1 7503   0.318  20.551  11.028
 9416POPC   GL2 7504   0.381  20.605  11.084
 9416POPC   C1A 7505   0.184  20.699  11.036
 9416POPC   D2A 7506   0.049  20.846  11.044
 9416POPC   C3A 7507  -0.085  20.994  11.052
 9416POPC   C4A 7508  -0.220  21.142  11.060
 9416POPC   C1B 7509   0.105  20.618  11.201
 9416POPC   C2B 7510  -0.029  20.766  11.209
 9416POPC   C3B 7511  -0.164  20.914  11.217
 9416POPC   C4B 7512  -0.299  21.062  11.225
 9417POPC   NC3 7513   9.445  11.146  -3.871
 9417POPC   PO4 7514   9.436  11.162  -4.070
 9417POPC   GL1 7515   9.427  11.178  -4.269
 9417POPC   GL2 7516   9.524  11.152  -4.275
 9417POPC   C1A 7517   9.419  11.194  -4.468
 9417POPC   D2A 7518   9.410  11.209  -4.668
 9417POPC   C3A 7519   9.402  11.225  -4.867
 9417POPC   C4A 7520   9.393  11.241  -5.066
 9417POPC   C1B 7521   9.472  11.386  -4.455
 9417POPC   C2B 7522   9.463  11.402  -4.655
 9417POPC   C3B 7523   9.455  11.418  -4.854
 9417POPC   C4B 7524   9.446  11.433  -5.053
 9418POPC   NC3 7525  15.377  20.148   2.337
 9418POPC   PO4 7526  15.463  20.293   2.229
 9418POPC   GL1 7527  15.549  20.438   2.121
 9418POPC   GL2 7528  15.495  20.411   2.042
 9418POPC   C1A 7529  15.635  20.583   2.014
 9418POPC   D2A 7530  15.720  20.728   1.906
 9418POPC   C3A 7531  15.806  20.873   1.799
 9418POPC   C4A 7532  15.892  21.018   1.691
 9418POPC   C1B 7533  15.779  20.456   1.958
 9418POPC   C2B 7534  15.865  20.601   1.851
 9418POPC   C3B 7535  15.951  20.746   1.743
 9418POPC   C4B 7536  16.037  20.891   1.636
 9419POPC   NC3 7537   7.833   1.151  -0.559
 9419POPC   PO4 7538   7.800   1.020  -0.706
 9419POPC   GL1 7539   7.767   0.889  -0.853
 9419POPC   GL2 7540   7.818   0.947  -0.916
 9419POPC   C1A 7541   7.735   0.757  -1.000
 9419POPC   D2A 7542   7.702   0.626  -1.148
 9419POPC   C3A 7543   7.670   0.494  -1.295
 9419POPC   C4A 7544   7.637   0.363  -1.442
 9419POPC   C1B 7545   7.566   0.853  -1.048
 9419POPC   C2B 7546   7.533   0.722  -1.196
 9419POPC   C3B 7547   7.501   0.590  -1.343
 9419POPC   C4B 7548   7.468   0.459  -1.490
 9420POPC   NC3 7549  22.241  12.013   4.052
 9420POPC   PO4 7550  22.418  12.039   3.963
 9420POPC   GL1 7551  22.595  12.065   3.874
 9420POPC   GL2 7552  22.565  12.008   3.797
 9420POPC   C1A 7553  22.772  12.091   3.785
 9420POPC   D2A 7554  22.950  12.116   3.695
 9420POPC   C3A 7555  23.127  12.142   3.606
 9420POPC   C4A 7556  23.304  12.168   3.517
 9420POPC   C1B 7557  22.843  11.928   3.878
 9420POPC   C2B 7558  23.020  11.954   3.789
 9420POPC   C3B 7559  23.197  11.980   3.699
 9420POPC   C4B 7560  23.375  12.006   3.610
 9421POPC   NC3 7561  20.149  17.890  14.645
 9421POPC   PO4 7562  20.291  18.013  14.713
 9421POPC   GL1 7563  20.433  18.136  14.781
 9421POPC   GL2 7564  20.412  18.201  14.709
 9421POPC   C1A 7565  20.575  18.259  14.850
 9421POPC   D2A 7566  20.718  18.382  14.918
 9421POPC   C3A 7567  20.860  18.505  14.987
 9421POPC   C4A 7568  21.002  18.628  15.055
 9421POPC   C1B 7569  20.709  18.170  14.731
 9421POPC   C2B 7570  20.852  18.293  14.799
 9421POPC   C3B 7571  20.994  18.416  14.868
 9421POPC   C4B 7572  21.136  18.539  14.936
 9422POPC   NC3 7573  13.190  -2.316  15.373
 9422POPC   PO4 7574  13.241  -2.494  15.448
 9422POPC   GL1 7575  13.292  -2.672  15.523
 9422POPC   GL2 7576  13.381  -2.666  15.476
 9422POPC   C1A 7577  13.343  -2.851  15.597
 9422POPC   D2A 7578  13.395  -3.029  15.672
 9422POPC   C3A 7579  13.446  -3.208  15.746
 9422POPC   C4A 7580  13.497  -3.386  15.821
 9422POPC   C1B 7581  13.266  -2.940  15.436
 9422POPC   C2B 7582  13.317  -3.119  15.511
 9422POPC   C3B 7583  13.368  -3.297  15.585
 9422POPC   C4B 7584  13.419  -3.476  15.660
 9423POPC   NC3 7585  21.960   3.320   9.202
 9423POPC   PO4 7586  22.134   3.223   9.187
 9423POPC   GL1 7587  22.308   3.126   9.172
 9423POPC   GL2 7588  22.262   3.052   9.122
 9423POPC   C1A 7589  22.482   3.028   9.157
 9423POPC   D2A 7590  22.656   2.931   9.143
 9423POPC   C3A 7591  22.830   2.833   9.128
 9423POPC   C4A 7592  23.004   2.736   9.113
 9423POPC   C1B 7593  22.444   2.934   9.330
 9423POPC   C2B 7594  22.618   2.837   9.315
 9423POPC   C3B 7595  22.792   2.739   9.300
 9423POPC   C4B 7596  22.966   2.642   9.285
 9424POPC   NC3 7597  -0.030  10.758  19.567
 9424POPC   PO4 7598  -0.177  10.764  19.702
 9424POPC   GL1 7599  -0.324  10.770  19.837
 9424POPC   GL2 7600  -0.257  10.770  19.911
 9424POPC   C1A 7601  -0.471  10.776  19.972
 9424POPC   D2A 7602  -0.619  10.783  20.108
 9424POPC   C3A 7603  -0.766  10.789  20.243
 9424POPC   C4A 7604  -0.913  10.795  20.378
 9424POPC   C1B 7605  -0.476  10.576  19.976
 9424POPC   C2B 7606  -0.623  10.583  20.112
 9424POPC   C3B 7607  -0.770  10.589  20.247
 9424POPC   C4B 7608  -0.918  10.595  20.382
 9425POPC   NC3 7609   2.517  21.324  12.990
 9425POPC   PO4 7610   2.418  21.489  13.045
 9425POPC   GL1 7611   2.319  21.654  13.100
 9425POPC   GL2 7612   2.398  21.683  13.154
 9425POPC   C1A 7613   2.221  21.819  13.154
 9425POPC   D2A 7614   2.122  21.985  13.209
 9425POPC   C3A 7615   2.024  22.150  13.263
 9425POPC   C4A 7616   1.925  22.315  13.318
 9425POPC   C1B 7617   2.147  21.723  13.313
 9425POPC   C2B 7618   2.048  21.888  13.367
 9425POPC   C3B 7619   1.949  22.053  13.422
 9425POPC   C4B 7620   1.851  22.218  13.477
 9426POPC   NC3 7621  -0.832   8.656  18.629
 9426POPC   PO4 7622  -0.987   8.642  18.754
 9426POPC   GL1 7623  -1.142   8.628  18.879
 9426POPC   GL2 7624  -1.082   8.648  18.956
 9426POPC   C1A 7625  -1.298   8.613  19.004
 9426POPC   D2A 7626  -1.453   8.599  19.130
 9426POPC   C3A 7627  -1.609   8.584  19.255
 9426POPC   C4A 7628  -1.764   8.570  19.380
 9426POPC   C1B 7629  -1.261   8.418  19.028
 9426POPC   C2B 7630  -1.416   8.404  19.153
 9426POPC   C3B 7631  -1.572   8.389  19.278
 9426POPC   C4B 7632  -1.727   8.375  19.403
 9427POPC   NC3 7633  13.752  22.205  15.149
 9427POPC   PO4 7634  13.811  22.380  15.226
 9427POPC   GL1 7635  13.870  22.555  15.303
 9427POPC   GL2 7636  13.900  22.585  15.213
 9427POPC   C1A 7637  13.929  22.730  15.380
 9427POPC   D2A 7638  13.987  22.904  15.458
 9427POPC   C3A 7639  14.046  23.079  15.535
 9427POPC   C4A 7640  14.105  23.254  15.612
 9427POPC   C1B 7641  14.110  22.653  15.415
 9427POPC   C2B 7642  14.169  22.828  15.492
 9427POPC   C3B 7643  14.228  23.003  15.569
 9427POPC   C4B 7644  14.287  23.178  15.646
 9428POPC   NC3 7645  -1.233  17.509  13.358
 9428POPC   PO4 7646  -1.392  17.620  13.407
 9428POPC   GL1 7647  -1.551  17.731  13.456
 9428POPC   GL2 7648  -1.492  17.792  13.509
 9428POPC   C1A 7649  -1.710  17.841  13.505
 9428POPC   D2A 7650  -1.870  17.952  13.555
 9428POPC   C3A 7651  -2.029  18.062  13.604
 9428POPC   C4A 7652  -2.188  18.173  13.653
 9428POPC   C1B 7653  -1.738  17.729  13.668
 9428POPC   C2B 7654  -1.897  17.839  13.718
 9428POPC   C3B 7655  -2.057  17.950  13.767
 9428POPC   C4B 7656  -2.216  18.060  13.816
 9429POPC   NC3 7657  -3.465  13.852   9.784
 9429POPC   PO4 7658  -3.657  13.908   9.781
 9429POPC   GL1 7659  -3.849  13.964   9.778
 9429POPC   GL2 7660  -3.875  13.877   9.819
 9429POPC   C1A 7661  -4.041  14.021   9.775
 9429POPC   D2A 7662  -4.232  14.077   9.773
 9429POPC   C3A 7663  -4.424  14.134   9.770
 9429POPC   C4A 7664  -4.616  14.190   9.767
 9429POPC   C1B 7665  -4.061  13.942   9.592
 9429POPC   C2B 7666  -4.253  13.999   9.590
 9429POPC   C3B 7667  -4.444  14.055   9.587
 9429POPC   C4B 7668  -4.636  14.112   9.584
 9430POPC   NC3 7669  17.480  13.430  20.819
 9430POPC   PO4 7670  17.596  13.483  20.973
 9430POPC   GL1 7671  17.712  13.536  21.127
 9430POPC   GL2 7672  17.792  13.532  21.068
 9430POPC   C1A 7673  17.828  13.589  21.281
 9430POPC   D2A 7674  17.944  13.642  21.436
 9430POPC   C3A 7675  18.060  13.695  21.590
 9430POPC   C4A 7676  18.176  13.748  21.744
 9430POPC   C1B 7677  17.854  13.396  21.329
 9430POPC   C2B 7678  17.970  13.449  21.483
 9430POPC   C3B 7679  18.086  13.502  21.637
 9430POPC   C4B 7680  18.202  13.555  21.791
 9431POPC   NC3 7681  22.848   9.068  14.792
 9431POPC   PO4 7682  23.034   9.052  14.863
 9431POPC   GL1 7683  23.220   9.036  14.934
 9431POPC   GL2 7684  23.238   8.961  14.871
 9431POPC   C1A 7685  23.406   9.021  15.006
 9431POPC   D2A 7686  23.593   9.005  15.077
 9431POPC   C3A 7687  23.779   8.990  15.149
 9431POPC   C4A 7688  23.965   8.974  15.220
 9431POPC   C1B 7689  23.343   8.891  15.144
 9431POPC   C2B 7690  23.529   8.875  15.215
 9431POPC   C3B 7691  23.715   8.860  15.287
 9431POPC   C4B 7692  23.901   8.844  15.358
 9432POPC   NC3 7693  -0.846  11.443   1.248
 9432POPC   PO4 7694  -0.995  11.454   1.115
 9432POPC   GL1 7695  -1.144  11.465   0.982
 9432POPC   GL2 7696  -1.142  11.565   0.989
 9432POPC   C1A 7697  -1.293  11.476   0.849
 9432POPC   D2A 7698  -1.442  11.488   0.717
 9432POPC   C3A 7699  -1.591  11.499   0.584
 9432POPC   C4A 7700  -1.740  11.510   0.451
 9432POPC   C1B 7701  -1.426  11.469   0.998
 9432POPC   C2B 7702  -1.575  11.480   0.866
 9432POPC   C3B 7703  -1.724  11.492   0.733
 9432POPC   C4B 7704  -1.873  11.503   0.600
 9433POPC   NC3 7705  13.591  23.124   7.775
 9433POPC   PO4 7706  13.646  23.313   7.740
 9433POPC   GL1 7707  13.701  23.502   7.705
 9433POPC   GL2 7708  13.766  23.470   7.636
 9433POPC   C1A 7709  13.756  23.691   7.670
 9433POPC   D2A 7710  13.810  23.880   7.634
 9433POPC   C3A 7711  13.865  24.069   7.599
 9433POPC   C4A 7712  13.920  24.258   7.564
 9433POPC   C1B 7713  13.897  23.676   7.810
 9433POPC   C2B 7714  13.952  23.865   7.775
 9433POPC   C3B 7715  14.007  24.054   7.740
 9433POPC   C4B 7716  14.061  24.243   7.705
 9434POPC   NC3 7717   0.434  20.127   9.945
 9434POPC   PO4 7718   0.301  20.276   9.941
 9434POPC   GL1 7719   0.168  20.425   9.937
 9434POPC   GL2 7720   0.222  20.475  10.004
 9434POPC   C1A 7721   0.035  20.574   9.933
 9434POPC   D2A 7722  -0.098  20.724   9.928
 9434POPC   C3A 7723  -0.231  20.873   9.924
 9434POPC   C4A 7724  -0.364  21.022   9.920
 9434POPC   C1B 7725  -0.068  20.487  10.080
 9434POPC   C2B 7726  -0.201  20.636  10.076
 9434POPC   C3B 7727  -0.334  20.785  10.071
 9434POPC   C4B 7728  -0.467  20.934  10.067
 9435POPC   NC3 7729   4.477   7.283  -2.588
 9435POPC   PO4 7730   4.400   7.247  -2.769
 9435POPC   GL1 7731   4.323   7.211  -2.950
 9435POPC   GL2 7732   4.233   7.239  -2.917
 9435POPC   C1A 7733   4.245   7.174  -3.131
 9435POPC   D2A 7734   4.168   7.138  -3.311
 9435POPC   C3A 7735   4.090   7.101  -3.492
 9435POPC   C4A 7736   4.013   7.065  -3.673
 9435POPC   C1B 7737   4.205   6.986  -3.076
 9435POPC   C2B 7738   4.127   6.950  -3.256
 9435POPC   C3B 7739   4.050   6.913  -3.437
 9435POPC   C4B 7740   3.973   6.877  -3.618
 9436POPC   NC3 7741  -2.961   7.138   5.444
 9436POPC   PO4 7742  -3.146   7.103   5.376
 9436POPC   GL1 7743  -3.331   7.068   5.308
 9436POPC   GL2 7744  -3.369   7.101   5.394
 9436POPC   C1A 7745  -3.516   7.032   5.240
 9436POPC   D2A 7746  -3.700   6.997   5.172
 9436POPC   C3A 7747  -3.885   6.961   5.104
 9436POPC   C4A 7748  -4.070   6.926   5.036
 9436POPC   C1B 7749  -3.508   6.847   5.316
 9436POPC   C2B 7750  -3.693   6.812   5.248
 9436POPC   C3B 7751  -3.878   6.777   5.180
 9436POPC   C4B 7752  -4.063   6.741   5.112
 9437POPC   NC3 7753   3.447   3.037  -0.087
 9437POPC   PO4 7754   3.352   2.933  -0.229
 9437POPC   GL1 7755   3.257   2.829  -0.371
 9437POPC   GL2 7756   3.189   2.799  -0.304
 9437POPC   C1A 7757   3.162   2.726  -0.513
 9437POPC   D2A 7758   3.066   2.622  -0.655
 9437POPC   C3A 7759   2.971   2.519  -0.797
 9437POPC   C4A 7760   2.876   2.415  -0.939
 9437POPC   C1B 7761   3.274   2.566  -0.471
 9437POPC   C2B 7762   3.179   2.462  -0.613
 9437POPC   C3B 7763   3.083   2.358  -0.755
 9437POPC   C4B 7764   2.988   2.255  -0.897
 9438POPC   NC3 7765  11.423  23.181  13.820
 9438POPC   PO4 7766  11.447  23.373  13.872
 9438POPC   GL1 7767  11.471  23.565  13.924
 9438POPC   GL2 7768  11.570  23.556  13.910
 9438POPC   C1A 7769  11.495  23.756  13.975
 9438POPC   D2A 7770  11.520  23.948  14.027
 9438POPC   C3A 7771  11.544  24.139  14.078
 9438POPC   C4A 7772  11.568  24.331  14.130
 9438POPC   C1B 7773  11.516  23.702  14.167
 9438POPC   C2B 7774  11.540  23.894  14.218
 9438POPC   C3B 7775  11.564  24.085  14.270
 9438POPC   C4B 7776  11.589  24.277  14.321
 9439POPC   NC3 7777  18.193  -1.061  10.573
 9439POPC   PO4 7778  18.311  -1.222  10.587
 9439POPC   GL1 7779  18.429  -1.383  10.601
 9439POPC   GL2 7780  18.461  -1.368  10.507
 9439POPC   C1A 7781  18.547  -1.544  10.615
 9439POPC   D2A 7782  18.665  -1.705  10.628
 9439POPC   C3A 7783  18.783  -1.866  10.642
 9439POPC   C4A 7784  18.901  -2.027  10.656
 9439POPC   C1B 7785  18.399  -1.659  10.545
 9439POPC   C2B 7786  18.517  -1.820  10.558
 9439POPC   C3B 7787  18.635  -1.981  10.572
 9439POPC   C4B 7788  18.753  -2.142  10.586
 9440POPC   NC3 7789  15.429  -2.594   8.536
 9440POPC   PO4 7790  15.509  -2.776   8.513
 9440POPC   GL1 7791  15.589  -2.958   8.490
 9440POPC   GL2 7792  15.680  -2.917   8.485
 9440POPC   C1A 7793  15.669  -3.140   8.467
 9440POPC   D2A 7794  15.749  -3.321   8.443
 9440POPC   C3A 7795  15.829  -3.503   8.420
 9440POPC   C4A 7796  15.909  -3.685   8.397
 9440POPC   C1B 7797  15.651  -3.122   8.268
 9440POPC   C2B 7798  15.731  -3.304   8.245
 9440POPC   C3B 7799  15.811  -3.486   8.222
 9440POPC   C4B 7800  15.891  -3.667   8.199
 9441POPC   NC3 7801  15.990   0.665  18.127
 9441POPC   PO4 7802  16.081   0.532  18.246
 9441POPC   GL1 7803  16.172   0.399  18.365
 9441POPC   GL2 7804  16.191   0.341  18.285
 9441POPC   C1A 7805  16.264   0.267  18.483
 9441POPC   D2A 7806  16.355   0.134  18.602
 9441POPC   C3A 7807  16.447   0.002  18.720
 9441POPC   C4A 7808  16.538  -0.131  18.839
 9441POPC   C1B 7809  16.090   0.172  18.512
 9441POPC   C2B 7810  16.181   0.040  18.630
 9441POPC   C3B 7811  16.273  -0.093  18.749
 9441POPC   C4B 7812  16.364  -0.225  18.868
 9442POPC   NC3 7813  16.502   9.691  -2.170
 9442POPC   PO4 7814  16.596   9.685  -2.346
 9442POPC   GL1 7815  16.690   9.679  -2.522
 9442POPC   GL2 7816  16.607   9.710  -2.568
 9442POPC   C1A 7817  16.785   9.674  -2.698
 9442POPC   D2A 7818  16.879   9.668  -2.875
 9442POPC   C3A 7819  16.974   9.663  -3.051
 9442POPC   C4A 7820  17.068   9.657  -3.227
 9442POPC   C1B 7821  16.728   9.484  -2.723
 9442POPC   C2B 7822  16.822   9.478  -2.899
 9442POPC   C3B 7823  16.917   9.472  -3.075
 9442POPC   C4B 7824  17.011   9.467  -3.251
 9443POPC   NC3 7825  12.357  22.543   4.831
 9443POPC   PO4 7826  12.398  22.725   4.759
 9443POPC   GL1 7827  12.439  22.907   4.687
 9443POPC   GL2 7828  12.512  22.869   4.631
 9443POPC   C1A 7829  12.480  23.089   4.616
 9443POPC   D2A 7830  12.520  23.272   4.544
 9443POPC   C3A 7831  12.561  23.454   4.473
 9443POPC   C4A 7832  12.602  23.636   4.401
 9443POPC   C1B 7833  12.610  23.119   4.764
 9443POPC   C2B 7834  12.651  23.301   4.693
 9443POPC   C3B 7835  12.692  23.483   4.621
 9443POPC   C4B 7836  12.733  23.665   4.550
 9444POPC   NC3 7837  18.932  14.763  19.109
 9444POPC   PO4 7838  19.059  14.827  19.250
 9444POPC   GL1 7839  19.186  14.891  19.391
 9444POPC   GL2 7840  19.235  14.945  19.322
 9444POPC   C1A 7841  19.313  14.955  19.531
 9444POPC   D2A 7842  19.440  15.020  19.672
 9444POPC   C3A 7843  19.567  15.084  19.812
 9444POPC   C4A 7844  19.694  15.148  19.953
 9444POPC   C1B 7845  19.433  14.800  19.494
 9444POPC   C2B 7846  19.560  14.864  19.634
 9444POPC   C3B 7847  19.687  14.928  19.775
 9444POPC   C4B 7848  19.814  14.993  19.915
 9445POPC   NC3 7849  -3.131   9.554   5.284
 9445POPC   PO4 7850  -3.320   9.552   5.220
 9445POPC   GL1 7851  -3.509   9.550   5.156
 9445POPC   GL2 7852  -3.530   9.475   5.219
 9445POPC   C1A 7853  -3.699   9.548   5.092
 9445POPC   D2A 7854  -3.888   9.545   5.028
 9445POPC   C3A 7855  -4.078   9.543   4.964
 9445POPC   C4A 7856  -4.267   9.541   4.900
 9445POPC   C1B 7857  -3.649   9.416   4.950
 9445POPC   C2B 7858  -3.839   9.414   4.886
 9445POPC   C3B 7859  -4.028   9.411   4.822
 9445POPC   C4B 7860  -4.217   9.409   4.758
 9446POPC   NC3 7861  -0.266   5.136  18.038
 9446POPC   PO4 7862  -0.403   5.064  18.165
 9446POPC   GL1 7863  -0.540   4.992  18.292
 9446POPC   GL2 7864  -0.499   4.901  18.284
 9446POPC   C1A 7865  -0.676   4.919  18.419
 9446POPC   D2A 7866  -0.813   4.847  18.546
 9446POPC   C3A 7867  -0.949   4.774  18.673
 9446POPC   C4A 7868  -1.086   4.702  18.800
 9446POPC   C1B 7869  -0.798   4.879  18.265
 9446POPC   C2B 7870  -0.934   4.806  18.392
 9446POPC   C3B 7871  -1.071   4.734  18.519
 9446POPC   C4B 7872  -1.207   4.662  18.646
 9447POPC   NC3 7873  16.620   6.017  -1.455
 9447POPC   PO4 7874  16.716   5.963  -1.622
 9447POPC   GL1 7875  16.812   5.909  -1.789
 9447POPC   GL2 7876  16.884   5.976  -1.769
 9447POPC   C1A 7877  16.908   5.855  -1.956
 9447POPC   D2A 7878  17.004   5.801  -2.123
 9447POPC   C3A 7879  17.100   5.747  -2.290
 9447POPC   C4A 7880  17.196   5.693  -2.457
 9447POPC   C1B 7881  16.807   5.994  -2.059
 9447POPC   C2B 7882  16.903   5.940  -2.226
 9447POPC   C3B 7883  16.999   5.886  -2.393
 9447POPC   C4B 7884  17.095   5.832  -2.560
 9448POPC   NC3 7885   1.763   1.414  17.231
 9448POPC   PO4 7886   1.646   1.293  17.339
 9448POPC   GL1 7887   1.529   1.172  17.447
 9448POPC   GL2 7888   1.608   1.142  17.500
 9448POPC   C1A 7889   1.411   1.051  17.555
 9448POPC   D2A 7890   1.294   0.931  17.662
 9448POPC   C3A 7891   1.176   0.810  17.770
 9448POPC   C4A 7892   1.059   0.689  17.878
 9448POPC   C1B 7893   1.443   0.903  17.424
 9448POPC   C2B 7894   1.326   0.783  17.532
 9448POPC   C3B 7895   1.208   0.662  17.639
 9448POPC   C4B 7896   1.091   0.541  17.747
 9449POPC   NC3 7897   0.811  19.740   6.259
 9449POPC   PO4 7898   0.687  19.888   6.205
 9449POPC   GL1 7899   0.563  20.036   6.151
 9449POPC   GL2 7900   0.642  20.097   6.140
 9449POPC   C1A 7901   0.440  20.184   6.097
 9449POPC   D2A 7902   0.316  20.331   6.044
 9449POPC   C3A 7903   0.193  20.479   5.990
 9449POPC   C4A 7904   0.069  20.627   5.936
 9449POPC   C1B 7905   0.423  20.239   6.289
 9449POPC   C2B 7906   0.300  20.387   6.235
 9449POPC   C3B 7907   0.176  20.535   6.181
 9449POPC   C4B 7908   0.052  20.683   6.127
 9450POPC   NC3 7909  14.841   1.626  19.781
 9450POPC   PO4 7910  14.909   1.501  19.922
 9450POPC   GL1 7911  14.977   1.376  20.063
 9450POPC   GL2 7912  14.995   1.307  19.993
 9450POPC   C1A 7913  15.044   1.251  20.204
 9450POPC   D2A 7914  15.112   1.127  20.344
 9450POPC   C3A 7915  15.179   1.002  20.485
 9450POPC   C4A 7916  15.247   0.877  20.626
 9450POPC   C1B 7917  14.860   1.178  20.227
 9450POPC   C2B 7918  14.927   1.053  20.368
 9450POPC   C3B 7919  14.995   0.928  20.509
 9450POPC   C4B 7920  15.062   0.804  20.650
 9451POPC   NC3 7921  13.996   0.982   0.283
 9451POPC   PO4 7922  14.053   0.849   0.145
 9451POPC   GL1 7923  14.110   0.716   0.007
 9451POPC   GL2 7924  14.200   0.758   0.003
 9451POPC   C1A 7925  14.166   0.583  -0.131
 9451POPC   D2A 7926  14.223   0.449  -0.269
 9451POPC   C3A 7927  14.279   0.316  -0.407
 9451POPC   C4A 7928  14.336   0.183  -0.545
 9451POPC   C1B 7929  14.102   0.705  -0.276
 9451POPC   C2B 7930  14.159   0.572  -0.414
 9451POPC   C3B 7931  14.215   0.438  -0.552
 9451POPC   C4B 7932  14.272   0.305  -0.690
 9452POPC   NC3 7933  23.359   6.953  10.456
 9452POPC   PO4 7934  23.556   6.918  10.461
 9452POPC   GL1 7935  23.753   6.883  10.466
 9452POPC   GL2 7936  23.744   6.823  10.387
 9452POPC   C1A 7937  23.950   6.847  10.471
 9452POPC   D2A 7938  24.146   6.812  10.477
 9452POPC   C3A 7939  24.343   6.776  10.482
 9452POPC   C4A 7940  24.540   6.741  10.487
 9452POPC   C1B 7941  23.918   6.691  10.592
 9452POPC   C2B 7942  24.115   6.656  10.598
 9452POPC   C3B 7943  24.312   6.620  10.603
 9452POPC   C4B 7944  24.509   6.585  10.608
 9453POPC   NC3 7945  11.316  22.152   3.492
 9453POPC   PO4 7946  11.344  22.329   3.403
 9453POPC   GL1 7947  11.372  22.506   3.314
 9453POPC   GL2 7948  11.467  22.482   3.296
 9453POPC   C1A 7949  11.399  22.683   3.225
 9453POPC   D2A 7950  11.427  22.859   3.135
 9453POPC   C3A 7951  11.454  23.036   3.046
 9453POPC   C4A 7952  11.482  23.213   2.957
 9453POPC   C1B 7953  11.453  22.763   3.400
 9453POPC   C2B 7954  11.481  22.939   3.311
 9453POPC   C3B 7955  11.508  23.116   3.221
 9453POPC   C4B 7956  11.536  23.293   3.132
 9454POPC   NC3 7957  -2.447  10.121   3.587
 9454POPC   PO4 7958  -2.627  10.121   3.500
 9454POPC   GL1 7959  -2.807  10.121   3.413
 9454POPC   GL2 7960  -2.834  10.043   3.470
 9454POPC   C1A 7961  -2.987  10.121   3.327
 9454POPC   D2A 7962  -3.168  10.120   3.240
 9454POPC   C3A 7963  -3.348  10.120   3.154
 9454POPC   C4A 7964  -3.528  10.120   3.067
 9454POPC   C1B 7965  -2.920   9.995   3.186
 9454POPC   C2B 7966  -3.100   9.995   3.100
 9454POPC   C3B 7967  -3.280   9.995   3.013
 9454POPC   C4B 7968  -3.460   9.995   2.926
 9455POPC   NC3 7969  15.336  18.018  19.858
 9455POPC   PO4 7970  15.414  18.130  20.004
 9455POPC   GL1 7971  15.492  18.242  20.150
 9455POPC   GL2 7972  15.568  18.268  20.090
 9455POPC   C1A 7973  15.571  18.354  20.296
 9455POPC   D2A 7974  15.649  18.467  20.441
 9455POPC   C3A 7975  15.728  18.579  20.587
 9455POPC   C4A 7976  15.806  18.691  20.733
 9455POPC   C1B 7977  15.676  18.197  20.360
 9455POPC   C2B 7978  15.754  18.309  20.506
 9455POPC   C3B 7979  15.833  18.421  20.652
 9455POPC   C4B 7980  15.911  18.534  20.798
 9456POPC   NC3 7981   2.648   1.591   1.735
 9456POPC   PO4 7982   2.549   1.469   1.611
 9456POPC   GL1 7983   2.450   1.347   1.487
 9456POPC   GL2 7984   2.397   1.312   1.564
 9456POPC   C1A 7985   2.352   1.224   1.363
 9456POPC   D2A 7986   2.253   1.102   1.240
 9456POPC   C3A 7987   2.155   0.979   1.116
 9456POPC   C4A 7988   2.056   0.857   0.992
 9456POPC   C1B 7989   2.489   1.082   1.394
 9456POPC   C2B 7990   2.391   0.960   1.270
 9456POPC   C3B 7991   2.292   0.837   1.146
 9456POPC   C4B 7992   2.194   0.715   1.023
 9457POPC   NC3 7993  20.820  13.493  17.705
 9457POPC   PO4 7994  20.974  13.542  17.823
 9457POPC   GL1 7995  21.128  13.591  17.941
 9457POPC   GL2 7996  21.151  13.494  17.951
 9457POPC   C1A 7997  21.282  13.639  18.059
 9457POPC   D2A 7998  21.436  13.688  18.177
 9457POPC   C3A 7999  21.590  13.736  18.295
 9457POPC   C4A 8000  21.744  13.785  18.413
 9457POPC   C1B 8001  21.163  13.628  18.219
 9457POPC   C2B 8002  21.317  13.676  18.337
 9457POPC   C3B 8003  21.471  13.725  18.455
 9457POPC   C4B 8004  21.625  13.774  18.573
 9458POPC   NC3 8005   1.199   0.390  15.027
 9458POPC   PO4 8006   1.074   0.254  15.103
 9458POPC   GL1 8007   0.949   0.118  15.179
 9458POPC   GL2 8008   1.018   0.047  15.166
 9458POPC   C1A 8009   0.823  -0.018  15.255
 9458POPC   D2A 8010   0.698  -0.155  15.330
 9458POPC   C3A 8011   0.572  -0.291  15.406
 9458POPC   C4A 8012   0.447  -0.427  15.482
 9458POPC   C1B 8013   0.753  -0.056  15.071
 9458POPC   C2B 8014   0.627  -0.192  15.147
 9458POPC   C3B 8015   0.502  -0.328  15.223
 9458POPC   C4B 8016   0.377  -0.464  15.299
 9459POPC   NC3 8017   7.123  15.458  22.442
 9459POPC   PO4 8018   7.091  15.539  22.622
 9459POPC   GL1 8019   7.059  15.620  22.802
 9459POPC   GL2 8020   7.086  15.534  22.845
 9459POPC   C1A 8021   7.027  15.701  22.982
 9459POPC   D2A 8022   6.996  15.782  23.162
 9459POPC   C3A 8023   6.964  15.863  23.342
 9459POPC   C4A 8024   6.932  15.944  23.522
 9459POPC   C1B 8025   6.838  15.638  22.977
 9459POPC   C2B 8026   6.806  15.719  23.157
 9459POPC   C3B 8027   6.774  15.800  23.337
 9459POPC   C4B 8028   6.742  15.881  23.517
 9460POPC   NC3 8029   8.617  23.737  11.085
 9460POPC   PO4 8030   8.606  23.936  11.099
 9460POPC   GL1 8031   8.595  24.135  11.113
 9460POPC   GL2 8032   8.690  24.143  11.084
 9460POPC   C1A 8033   8.583  24.334  11.127
 9460POPC   D2A 8034   8.572  24.534  11.141
 9460POPC   C3A 8035   8.560  24.733  11.155
 9460POPC   C4A 8036   8.549  24.932  11.169
 9460POPC   C1B 8037   8.642  24.324  11.318
 9460POPC   C2B 8038   8.631  24.524  11.332
 9460POPC   C3B 8039   8.620  24.723  11.346
 9460POPC   C4B 8040   8.608  24.922  11.360
 9461POPC   NC3 8041  23.551  10.918   8.321
 9461POPC   PO4 8042  23.750  10.925   8.301
 9461POPC   GL1 8043  23.949  10.932   8.281
 9461POPC   GL2 8044  23.944  11.032   8.270
 9461POPC   C1A 8045  24.148  10.939   8.261
 9461POPC   D2A 8046  24.346  10.947   8.241
 9461POPC   C3A 8047  24.545  10.954   8.221
 9461POPC   C4A 8048  24.744  10.961   8.201
 9461POPC   C1B 8049  24.129  10.916   8.063
 9461POPC   C2B 8050  24.327  10.923   8.043
 9461POPC   C3B 8051  24.526  10.931   8.023
 9461POPC   C4B 8052  24.725  10.938   8.003
 9462POPC   NC3 8053   3.678   9.302  22.390
 9462POPC   PO4 8054   3.595   9.299  22.572
 9462POPC   GL1 8055   3.512   9.296  22.754
 9462POPC   GL2 8056   3.585   9.236  22.786
 9462POPC   C1A 8057   3.429   9.292  22.936
 9462POPC   D2A 8058   3.346   9.289  23.118
 9462POPC   C3A 8059   3.263   9.285  23.300
 9462POPC   C4A 8060   3.180   9.282  23.482
 9462POPC   C1B 8061   3.321   9.132  22.884
 9462POPC   C2B 8062   3.238   9.128  23.066
 9462POPC   C3B 8063   3.155   9.125  23.248
 9462POPC   C4B 8064   3.072   9.122  23.430
 9463POPC   NC3 8065  -3.698   7.660   7.922
 9463POPC   PO4 8066  -3.893   7.627   7.891
 9463POPC   GL1 8067  -4.088   7.594   7.860
 9463POPC   GL2 8068  -4.109   7.637   7.948
 9463POPC   C1A 8069  -4.283   7.561   7.830
 9463POPC   D2A 8070  -4.477   7.529   7.799
 9463POPC   C3A 8071  -4.672   7.496   7.769
 9463POPC   C4A 8072  -4.867   7.463   7.738
 9463POPC   C1B 8073  -4.267   7.384   7.920
 9463POPC   C2B 8074  -4.462   7.351   7.889
 9463POPC   C3B 8075  -4.656   7.318   7.859
 9463POPC   C4B 8076  -4.851   7.285   7.828
 9464POPC   NC3 8077  10.513  -3.632  12.296
 9464POPC   PO4 8078  10.523  -3.829  12.326
 9464POPC   GL1 8079  10.533  -4.026  12.356
 9464POPC   GL2 8080  10.600  -4.034  12.283
 9464POPC   C1A 8081  10.543  -4.224  12.387
 9464POPC   D2A 8082  10.553  -4.421  12.417
 9464POPC   C3A 8083  10.563  -4.619  12.448
 9464POPC   C4A 8084  10.573  -4.816  12.478
 9464POPC   C1B 8085  10.395  -4.252  12.255
 9464POPC   C2B 8086  10.405  -4.449  12.285
 9464POPC   C3B 8087  10.415  -4.646  12.316
 9464POPC   C4B 8088  10.425  -4.844  12.346
 9465POPC   NC3 8089   6.495  12.188  23.070
 9465POPC   PO4 8090   6.448  12.213  23.263
 9465POPC   GL1 8091   6.401  12.238  23.456
 9465POPC   GL2 8092   6.479  12.182  23.482
 9465POPC   C1A 8093   6.353  12.262  23.649
 9465POPC   D2A 8094   6.306  12.287  23.841
 9465POPC   C3A 8095   6.258  12.311  24.034
 9465POPC   C4A 8096   6.211  12.336  24.227
 9465POPC   C1B 8097   6.239  12.098  23.641
 9465POPC   C2B 8098   6.191  12.123  23.834
 9465POPC   C3B 8099   6.144  12.148  24.027
 9465POPC   C4B 8100   6.096  12.172  24.220
 9466POPC   NC3 8101  15.896   2.347   0.021
 9466POPC   PO4 8102  15.985   2.235  -0.119
 9466POPC   GL1 8103  16.074   2.123  -0.259
 9466POPC   GL2 8104  16.037   2.183  -0.330
 9466POPC   C1A 8105  16.162   2.012  -0.399
 9466POPC   D2A 8106  16.251   1.900  -0.540
 9466POPC   C3A 8107  16.339   1.789  -0.680
 9466POPC   C4A 8108  16.428   1.677  -0.820
 9466POPC   C1B 8109  15.999   1.897  -0.412
 9466POPC   C2B 8110  16.087   1.786  -0.552
 9466POPC   C3B 8111  16.176   1.674  -0.692
 9466POPC   C4B 8112  16.265   1.562  -0.832
 9467POPC   NC3 8113  20.044   0.871  12.121
 9467POPC   PO4 8114  20.191   0.740  12.157
 9467POPC   GL1 8115  20.338   0.609  12.193
 9467POPC   GL2 8116  20.390   0.647  12.117
 9467POPC   C1A 8117  20.484   0.478  12.229
 9467POPC   D2A 8118  20.631   0.346  12.266
 9467POPC   C3A 8119  20.777   0.215  12.302
 9467POPC   C4A 8120  20.924   0.084  12.338
 9467POPC   C1B 8121  20.399   0.347  12.104
 9467POPC   C2B 8122  20.545   0.216  12.140
 9467POPC   C3B 8123  20.692   0.085  12.176
 9467POPC   C4B 8124  20.838  -0.046  12.213
 9468POPC   NC3 8125   8.699  22.708  15.345
 9468POPC   PO4 8126   8.681  22.891  15.423
 9468POPC   GL1 8127   8.663  23.074  15.501
 9468POPC   GL2 8128   8.696  23.114  15.416
 9468POPC   C1A 8129   8.644  23.257  15.580
 9468POPC   D2A 8130   8.626  23.440  15.658
 9468POPC   C3A 8131   8.607  23.623  15.737
 9468POPC   C4A 8132   8.589  23.806  15.815
 9468POPC   C1B 8133   8.832  23.246  15.648
 9468POPC   C2B 8134   8.813  23.429  15.727
 9468POPC   C3B 8135   8.795  23.612  15.805
 9468POPC   C4B 8136   8.777  23.795  15.884
 9469POPC   NC3 8137   4.720   5.754  22.114
 9469POPC   PO4 8138   4.643   5.695  22.289
 9469POPC   GL1 8139   4.566   5.636  22.464
 9469POPC   GL2 8140   4.566   5.730  22.496
 9469POPC   C1A 8141   4.490   5.576  22.639
 9469POPC   D2A 8142   4.413   5.517  22.814
 9469POPC   C3A 8143   4.337   5.457  22.989
 9469POPC   C4A 8144   4.260   5.398  23.164
 9469POPC   C1B 8145   4.675   5.552  22.712
 9469POPC   C2B 8146   4.598   5.493  22.887
 9469POPC   C3B 8147   4.521   5.433  23.062
 9469POPC   C4B 8148   4.445   5.374  23.237
 9470POPC   NC3 8149  19.486  16.792   2.669
 9470POPC   PO4 8150  19.622  16.898   2.568
 9470POPC   GL1 8151  19.758  17.004   2.467
 9470POPC   GL2 8152  19.717  16.974   2.381
 9470POPC   C1A 8153  19.894  17.110   2.366
 9470POPC   D2A 8154  20.031  17.216   2.265
 9470POPC   C3A 8155  20.167  17.322   2.164
 9470POPC   C4A 8156  20.303  17.428   2.063
 9470POPC   C1B 8157  20.016  16.951   2.363
 9470POPC   C2B 8158  20.152  17.057   2.262
 9470POPC   C3B 8159  20.288  17.163   2.161
 9470POPC   C4B 8160  20.425  17.269   2.060
 9471POPC   NC3 8161  14.562  20.795  17.178
 9471POPC   PO4 8162  14.630  20.952  17.281
 9471POPC   GL1 8163  14.698  21.109  17.384
 9471POPC   GL2 8164  14.742  21.048  17.449
 9471POPC   C1A 8165  14.766  21.267  17.487
 9471POPC   D2A 8166  14.835  21.424  17.589
 9471POPC   C3A 8167  14.903  21.582  17.692
 9471POPC   C4A 8168  14.971  21.739  17.795
 9471POPC   C1B 8169  14.600  21.266  17.598
 9471POPC   C2B 8170  14.669  21.423  17.701
 9471POPC   C3B 8171  14.737  21.581  17.804
 9471POPC   C4B 8172  14.805  21.738  17.907
 9472POPC   NC3 8173   7.510  -3.489  12.087
 9472POPC   PO4 8174   7.478  -3.685  12.114
 9472POPC   GL1 8175   7.446  -3.881  12.141
 9472POPC   GL2 8176   7.503  -3.878  12.224
 9472POPC   C1A 8177   7.415  -4.076  12.168
 9472POPC   D2A 8178   7.383  -4.272  12.196
 9472POPC   C3A 8179   7.352  -4.467  12.223
 9472POPC   C4A 8180   7.320  -4.663  12.250
 9472POPC   C1B 8181   7.577  -4.118  12.059
 9472POPC   C2B 8182   7.545  -4.313  12.086
 9472POPC   C3B 8183   7.514  -4.509  12.113
 9472POPC   C4B 8184   7.482  -4.704  12.141
 9473POPC   NC3 8185  -2.254   3.775   7.675
 9473POPC   PO4 8186  -2.431   3.688   7.642
 9473POPC   GL1 8187  -2.608   3.601   7.609
 9473POPC   GL2 8188  -2.615   3.578   7.706
 9473POPC   C1A 8189  -2.786   3.515   7.576
 9473POPC   D2A 8190  -2.963   3.428   7.544
 9473POPC   C3A 8191  -3.141   3.342   7.511
 9473POPC   C4A 8192  -3.318   3.255   7.478
 9473POPC   C1B 8193  -2.694   3.341   7.540
 9473POPC   C2B 8194  -2.872   3.254   7.507
 9473POPC   C3B 8195  -3.049   3.168   7.474
 9473POPC   C4B 8196  -3.226   3.081   7.441
 9474POPC   NC3 8197  17.830  -1.334  10.350
 9474POPC   PO4 8198  17.943  -1.499  10.360
 9474POPC   GL1 8199  18.056  -1.664  10.370
 9474POPC   GL2 8200  18.132  -1.614  10.330
 9474POPC   C1A 8201  18.169  -1.829  10.380
 9474POPC   D2A 8202  18.281  -1.993  10.391
 9474POPC   C3A 8203  18.394  -2.158  10.401
 9474POPC   C4A 8204  18.507  -2.323  10.411
 9474POPC   C1B 8205  18.108  -1.882  10.197
 9474POPC   C2B 8206  18.221  -2.046  10.208
 9474POPC   C3B 8207  18.333  -2.211  10.218
 9474POPC   C4B 8208  18.446  -2.376  10.228
 9475POPC   NC3 8209  -3.255   9.963  14.385
 9475POPC   PO4 8210  -3.444   9.964  14.452
 9475POPC   GL1 8211  -3.633   9.965  14.519
 9475POPC   GL2 8212  -3.627   9.867  14.537
 9475POPC   C1A 8213  -3.821   9.966  14.586
 9475POPC   D2A 8214  -4.010   9.968  14.652
 9475POPC   C3A 8215  -4.198   9.969  14.719
 9475POPC   C4A 8216  -4.387   9.970  14.786
 9475POPC   C1B 8217  -3.887   9.927  14.401
 9475POPC   C2B 8218  -4.076   9.928  14.468
 9475POPC   C3B 8219  -4.264   9.929  14.534
 9475POPC   C4B 8220  -4.453   9.931  14.601
 9476POPC   NC3 8221   6.965  -2.050   3.752
 9476POPC   PO4 8222   6.926  -2.225   3.663
 9476POPC   GL1 8223   6.887  -2.400   3.574
 9476POPC   GL2 8224   6.961  -2.443   3.625
 9476POPC   C1A 8225   6.848  -2.574   3.484
 9476POPC   D2A 8226   6.808  -2.749   3.395
 9476POPC   C3A 8227   6.769  -2.923   3.305
 9476POPC   C4A 8228   6.730  -3.098   3.216
 9476POPC   C1B 8229   6.975  -2.528   3.338
 9476POPC   C2B 8230   6.936  -2.702   3.248
 9476POPC   C3B 8231   6.897  -2.877   3.159
 9476POPC   C4B 8232   6.858  -3.052   3.069
 9477POPC   NC3 8233  -3.704  10.793   7.540
 9477POPC   PO4 8234  -3.899  10.807   7.499
 9477POPC   GL1 8235  -4.094  10.821   7.458
 9477POPC   GL2 8236  -4.116  10.777   7.546
 9477POPC   C1A 8237  -4.289  10.834   7.417
 9477POPC   D2A 8238  -4.485  10.848   7.376
 9477POPC   C3A 8239  -4.680  10.861   7.335
 9477POPC   C4A 8240  -4.875  10.875   7.294
 9477POPC   C1B 8241  -4.284  10.655   7.329
 9477POPC   C2B 8242  -4.479  10.668   7.288
 9477POPC   C3B 8243  -4.674  10.682   7.247
 9477POPC   C4B 8244  -4.869  10.695   7.206
 9478POPC   NC3 8245  17.334  21.045  13.545
 9478POPC   PO4 8246  17.449  21.196  13.608
 9478POPC   GL1 8247  17.564  21.347  13.671
 9478POPC   GL2 8248  17.592  21.365  13.576
 9478POPC   C1A 8249  17.679  21.498  13.734
 9478POPC   D2A 8250  17.793  21.650  13.796
 9478POPC   C3A 8251  17.908  21.801  13.859
 9478POPC   C4A 8252  18.023  21.952  13.922
 9478POPC   C1B 8253  17.833  21.373  13.755
 9478POPC   C2B 8254  17.948  21.524  13.817
 9478POPC   C3B 8255  18.062  21.675  13.880
 9478POPC   C4B 8256  18.177  21.826  13.943
 9479POPC   NC3 8257  20.585  18.808   9.907
 9479POPC   PO4 8258  20.745  18.929   9.905
 9479POPC   GL1 8259  20.905  19.050   9.903
 9479POPC   GL2 8260  20.858  19.110   9.838
 9479POPC   C1A 8261  21.064  19.170   9.902
 9479POPC   D2A 8262  21.224  19.291   9.900
 9479POPC   C3A 8263  21.383  19.411   9.899
 9479POPC   C4A 8264  21.543  19.532   9.897
 9479POPC   C1B 8265  21.142  19.065   9.750
 9479POPC   C2B 8266  21.302  19.186   9.749
 9479POPC   C3B 8267  21.461  19.307   9.747
 9479POPC   C4B 8268  21.621  19.427   9.745
 9480POPC   NC3 8269   8.010  17.813  -1.378
 9480POPC   PO4 8270   7.989  17.931  -1.538
 9480POPC   GL1 8271   7.968  18.049  -1.698
 9480POPC   GL2 8272   8.065  18.038  -1.719
 9480POPC   C1A 8273   7.947  18.167  -1.858
 9480POPC   D2A 8274   7.927  18.286  -2.018
 9480POPC   C3A 8275   7.906  18.404  -2.178
 9480POPC   C4A 8276   7.885  18.522  -2.338
 9480POPC   C1B 8277   7.990  18.327  -1.745
 9480POPC   C2B 8278   7.969  18.445  -1.905
 9480POPC   C3B 8279   7.948  18.564  -2.065
 9480POPC   C4B 8280   7.927  18.682  -2.225
 9481POPC   NC3 8281  22.308   6.451   4.867
 9481POPC   PO4 8282  22.490   6.405   4.798
 9481POPC   GL1 8283  22.672   6.359   4.729
 9481POPC   GL2 8284  22.645   6.389   4.638
 9481POPC   C1A 8285  22.854   6.312   4.660
 9481POPC   D2A 8286  23.035   6.266   4.590
 9481POPC   C3A 8287  23.217   6.219   4.521
 9481POPC   C4A 8288  23.399   6.173   4.452
 9481POPC   C1B 8289  22.790   6.128   4.616
 9481POPC   C2B 8290  22.972   6.081   4.547
 9481POPC   C3B 8291  23.154   6.035   4.477
 9481POPC   C4B 8292  23.335   5.989   4.408
 9482POPC   NC3 8293  21.815   7.129   3.464
 9482POPC   PO4 8294  21.988   7.092   3.371
 9482POPC   GL1 8295  22.161   7.055   3.278
 9482POPC   GL2 8296  22.111   7.028   3.196
 9482POPC   C1A 8297  22.334   7.019   3.185
 9482POPC   D2A 8298  22.508   6.982   3.091
 9482POPC   C3A 8299  22.681   6.946   2.998
 9482POPC   C4A 8300  22.854   6.909   2.905
 9482POPC   C1B 8301  22.330   6.830   3.250
 9482POPC   C2B 8302  22.503   6.793   3.157
 9482POPC   C3B 8303  22.676   6.757   3.064
 9482POPC   C4B 8304  22.849   6.720   2.971
 9483POPC   NC3 8305  18.632  13.613  -0.175
 9483POPC   PO4 8306  18.756  13.665  -0.323
 9483POPC   GL1 8307  18.880  13.717  -0.471
 9483POPC   GL2 8308  18.875  13.624  -0.507
 9483POPC   C1A 8309  19.005  13.769  -0.618
 9483POPC   D2A 8310  19.129  13.821  -0.766
 9483POPC   C3A 8311  19.254  13.873  -0.913
 9483POPC   C4A 8312  19.378  13.925  -1.061
 9483POPC   C1B 8313  19.161  13.716  -0.505
 9483POPC   C2B 8314  19.285  13.768  -0.653
 9483POPC   C3B 8315  19.410  13.820  -0.800
 9483POPC   C4B 8316  19.534  13.872  -0.948
 9484POPC   NC3 8317  -1.467  14.645  16.515
 9484POPC   PO4 8318  -1.631  14.713  16.607
 9484POPC   GL1 8319  -1.795  14.781  16.699
 9484POPC   GL2 8320  -1.749  14.775  16.787
 9484POPC   C1A 8321  -1.959  14.849  16.791
 9484POPC   D2A 8322  -2.124  14.916  16.882
 9484POPC   C3A 8323  -2.288  14.984  16.974
 9484POPC   C4A 8324  -2.452  15.052  17.066
 9484POPC   C1B 8325  -2.025  14.661  16.812
 9484POPC   C2B 8326  -2.189  14.729  16.904
 9484POPC   C3B 8327  -2.353  14.796  16.995
 9484POPC   C4B 8328  -2.518  14.864  17.087
 9485POPC   NC3 8329   2.352  14.320  -0.844
 9485POPC   PO4 8330   2.244  14.380  -1.001
 9485POPC   GL1 8331   2.136  14.440  -1.158
 9485POPC   GL2 8332   2.058  14.458  -1.098
 9485POPC   C1A 8333   2.028  14.499  -1.315
 9485POPC   D2A 8334   1.919  14.559  -1.473
 9485POPC   C3A 8335   1.811  14.618  -1.630
 9485POPC   C4A 8336   1.703  14.678  -1.787
 9485POPC   C1B 8337   1.962  14.312  -1.341
 9485POPC   C2B 8338   1.854  14.372  -1.498
 9485POPC   C3B 8339   1.746  14.431  -1.656
 9485POPC   C4B 8340   1.638  14.491  -1.813
 9486POPC   NC3 8341  22.379  12.746  15.132
 9486POPC   PO4 8342  22.562  12.786  15.201
 9486POPC   GL1 8343  22.745  12.826  15.270
 9486POPC   GL2 8344  22.776  12.736  15.240
 9486POPC   C1A 8345  22.929  12.866  15.339
 9486POPC   D2A 8346  23.112  12.906  15.408
 9486POPC   C3A 8347  23.296  12.946  15.477
 9486POPC   C4A 8348  23.479  12.986  15.546
 9486POPC   C1B 8349  22.879  12.789  15.517
 9486POPC   C2B 8350  23.062  12.829  15.586
 9486POPC   C3B 8351  23.246  12.869  15.655
 9486POPC   C4B 8352  23.429  12.909  15.724
 9487POPC   NC3 8353   8.874   8.783  -3.809
 9487POPC   PO4 8354   8.861   8.763  -4.007
 9487POPC   GL1 8355   8.848   8.743  -4.205
 9487POPC   GL2 8356   8.940   8.780  -4.216
 9487POPC   C1A 8357   8.834   8.722  -4.404
 9487POPC   D2A 8358   8.821   8.702  -4.602
 9487POPC   C3A 8359   8.807   8.681  -4.801
 9487POPC   C4A 8360   8.794   8.661  -4.999
 9487POPC   C1B 8361   8.757   8.906  -4.418
 9487POPC   C2B 8362   8.744   8.886  -4.616
 9487POPC   C3B 8363   8.730   8.865  -4.814
 9487POPC   C4B 8364   8.717   8.845  -5.013
 9488POPC   NC3 8365  20.641   1.912   6.732
 9488POPC   PO4 8366  20.798   1.796   6.688
 9488POPC   GL1 8367  20.955   1.680   6.644
 9488POPC   GL2 8368  20.989   1.750   6.580
 9488POPC   C1A 8369  21.113   1.565   6.601
 9488POPC   D2A 8370  21.270   1.449   6.557
 9488POPC   C3A 8371  21.428   1.334   6.514
 9488POPC   C4A 8372  21.585   1.218   6.470
 9488POPC   C1B 8373  21.009   1.479   6.453
 9488POPC   C2B 8374  21.166   1.363   6.410
 9488POPC   C3B 8375  21.324   1.248   6.366
 9488POPC   C4B 8376  21.481   1.132   6.322
 9489POPC   NC3 8377  15.102  21.749   4.883
 9489POPC   PO4 8378  15.170  21.924   4.816
 9489POPC   GL1 8379  15.238  22.099   4.749
 9489POPC   GL2 8380  15.322  22.087   4.801
 9489POPC   C1A 8381  15.306  22.275   4.681
 9489POPC   D2A 8382  15.375  22.450   4.614
 9489POPC   C3A 8383  15.443  22.626   4.546
 9489POPC   C4A 8384  15.511  22.801   4.479
 9489POPC   C1B 8385  15.222  22.368   4.837
 9489POPC   C2B 8386  15.290  22.543   4.770
 9489POPC   C3B 8387  15.358  22.718   4.702
 9489POPC   C4B 8388  15.427  22.894   4.635
 9490POPC   NC3 8389   6.002   7.783  23.062
 9490POPC   PO4 8390   5.954   7.748  23.253
 9490POPC   GL1 8391   5.906   7.713  23.444
 9490POPC   GL2 8392   6.003   7.708  23.468
 9490POPC   C1A 8393   5.857   7.678  23.635
 9490POPC   D2A 8394   5.809   7.644  23.826
 9490POPC   C3A 8395   5.760   7.609  24.017
 9490POPC   C4A 8396   5.712   7.574  24.208
 9490POPC   C1B 8397   5.855   7.482  23.599
 9490POPC   C2B 8398   5.807   7.447  23.790
 9490POPC   C3B 8399   5.758   7.412  23.981
 9490POPC   C4B 8400   5.710   7.377  24.172
 9491POPC   NC3 8401   4.964   7.927  -2.893
 9491POPC   PO4 8402   4.895   7.900  -3.079
 9491POPC   GL1 8403   4.826   7.873  -3.265
 9491POPC   GL2 8404   4.816   7.775  -3.247
 9491POPC   C1A 8405   4.756   7.847  -3.450
 9491POPC   D2A 8406   4.687   7.820  -3.636
 9491POPC   C3A 8407   4.617   7.794  -3.821
 9491POPC   C4A 8408   4.548   7.767  -4.007
 9491POPC   C1B 8409   4.943   7.817  -3.516
 9491POPC   C2B 8410   4.873   7.790  -3.701
 9491POPC   C3B 8411   4.804   7.764  -3.887
 9491POPC   C4B 8412   4.735   7.737  -4.072
 9492POPC   NC3 8413  18.976  20.451  10.323
 9492POPC   PO4 8414  19.104  20.605  10.329
 9492POPC   GL1 8415  19.232  20.759  10.335
 9492POPC   GL2 8416  19.281  20.721  10.257
 9492POPC   C1A 8417  19.359  20.913  10.341
 9492POPC   D2A 8418  19.487  21.066  10.348
 9492POPC   C3A 8419  19.614  21.220  10.354
 9492POPC   C4A 8420  19.742  21.374  10.360
 9492POPC   C1B 8421  19.478  20.809  10.465
 9492POPC   C2B 8422  19.605  20.963  10.471
 9492POPC   C3B 8423  19.733  21.117  10.477
 9492POPC   C4B 8424  19.861  21.271  10.484
 9493POPC   NC3 8425  -1.748  14.638   4.107
 9493POPC   PO4 8426  -1.918  14.708   4.028
 9493POPC   GL1 8427  -2.088  14.778   3.949
 9493POPC   GL2 8428  -2.102  14.835   4.030
 9493POPC   C1A 8429  -2.258  14.847   3.871
 9493POPC   D2A 8430  -2.429  14.917   3.792
 9493POPC   C3A 8431  -2.599  14.986   3.714
 9493POPC   C4A 8432  -2.769  15.056   3.635
 9493POPC   C1B 8433  -2.360  14.698   3.958
 9493POPC   C2B 8434  -2.530  14.768   3.880
 9493POPC   C3B 8435  -2.700  14.838   3.801
 9493POPC   C4B 8436  -2.870  14.907   3.722
 9494POPC   NC3 8437  15.616   3.084  -0.692
 9494POPC   PO4 8438  15.702   2.984  -0.842
 9494POPC   GL1 8439  15.788   2.884  -0.992
 9494POPC   GL2 8440  15.876   2.890  -0.946
 9494POPC   C1A 8441  15.874   2.784  -1.143
 9494POPC   D2A 8442  15.960   2.685  -1.293
 9494POPC   C3A 8443  16.046   2.585  -1.444
 9494POPC   C4A 8444  16.132   2.485  -1.594
 9494POPC   C1B 8445  15.912   2.957  -1.236
 9494POPC   C2B 8446  15.998   2.857  -1.386
 9494POPC   C3B 8447  16.084   2.758  -1.537
 9494POPC   C4B 8448  16.170   2.658  -1.687
 9495POPC   NC3 8449  14.573   8.404  -2.943
 9495POPC   PO4 8450  14.648   8.378  -3.127
 9495POPC   GL1 8451  14.723   8.352  -3.311
 9495POPC   GL2 8452  14.632   8.327  -3.344
 9495POPC   C1A 8453  14.798   8.326  -3.494
 9495POPC   D2A 8454  14.872   8.299  -3.678
 9495POPC   C3A 8455  14.947   8.273  -3.861
 9495POPC   C4A 8456  15.022   8.247  -4.045
 9495POPC   C1B 8457  14.835   8.134  -3.452
 9495POPC   C2B 8458  14.910   8.108  -3.635
 9495POPC   C3B 8459  14.985   8.081  -3.819
 9495POPC   C4B 8460  15.059   8.055  -4.002
 9496POPC   NC3 8461  -0.117  13.751  18.802
 9496POPC   PO4 8462  -0.253  13.806  18.938
 9496POPC   GL1 8463  -0.389  13.861  19.074
 9496POPC   GL2 8464  -0.355  13.791  19.136
 9496POPC   C1A 8465  -0.525  13.917  19.210
 9496POPC   D2A 8466  -0.660  13.972  19.346
 9496POPC   C3A 8467  -0.796  14.028  19.482
 9496POPC   C4A 8468  -0.932  14.083  19.618
 9496POPC   C1B 8469  -0.655  13.786  19.133
 9496POPC   C2B 8470  -0.791  13.842  19.269
 9496POPC   C3B 8471  -0.927  13.897  19.405
 9496POPC   C4B 8472  -1.062  13.952  19.541
 9497POPC   NC3 8473   1.034  17.591   2.383
 9497POPC   PO4 8474   0.906  17.703   2.278
 9497POPC   GL1 8475   0.778  17.815   2.173
 9497POPC   GL2 8476   0.724  17.831   2.256
 9497POPC   C1A 8477   0.649  17.926   2.068
 9497POPC   D2A 8478   0.521  18.038   1.962
 9497POPC   C3A 8479   0.392  18.149   1.857
 9497POPC   C4A 8480   0.264  18.261   1.752
 9497POPC   C1B 8481   0.539  17.764   2.030
 9497POPC   C2B 8482   0.411  17.875   1.924
 9497POPC   C3B 8483   0.282  17.987   1.819
 9497POPC   C4B 8484   0.154  18.098   1.714
 9498POPC   NC3 8485  13.211   3.776  -2.017
 9498POPC   PO4 8486  13.254   3.686  -2.190
 9498POPC   GL1 8487  13.297   3.596  -2.363
 9498POPC   GL2 8488  13.389   3.576  -2.330
 9498POPC   C1A 8489  13.339   3.506  -2.537
 9498POPC   D2A 8490  13.382   3.416  -2.710
 9498POPC   C3A 8491  13.424   3.326  -2.884
 9498POPC   C4A 8492  13.467   3.236  -3.057
 9498POPC   C1B 8493  13.404   3.680  -2.611
 9498POPC   C2B 8494  13.447   3.590  -2.784
 9498POPC   C3B 8495  13.490   3.500  -2.958
 9498POPC   C4B 8496  13.532   3.410  -3.131
 9499POPC   NC3 8497  13.054  -0.242  18.596
 9499POPC   PO4 8498  13.092  -0.389  18.726
 9499POPC   GL1 8499  13.130  -0.536  18.856
 9499POPC   GL2 8500  13.142  -0.600  18.780
 9499POPC   C1A 8501  13.168  -0.683  18.986
 9499POPC   D2A 8502  13.205  -0.830  19.117
 9499POPC   C3A 8503  13.243  -0.977  19.247
 9499POPC   C4A 8504  13.281  -1.124  19.377
 9499POPC   C1B 8505  12.973  -0.728  18.992
 9499POPC   C2B 8506  13.011  -0.875  19.122
 9499POPC   C3B 8507  13.048  -1.022  19.253
 9499POPC   C4B 8508  13.086  -1.169  19.383
 9500POPC   NC3 8509  23.592   9.245   9.122
 9500POPC   PO4 8510  23.792   9.234   9.113
 9500POPC   GL1 8511  23.992   9.223   9.104
 9500POPC   GL2 8512  23.994   9.312   9.057
 9500POPC   C1A 8513  24.191   9.213   9.095
 9500POPC   D2A 8514  24.391   9.202   9.085
 9500POPC   C3A 8515  24.590   9.192   9.076
 9500POPC   C4A 8516  24.790   9.181   9.067
 9500POPC   C1B 8517  24.178   9.120   8.918
 9500POPC   C2B 8518  24.378   9.109   8.909
 9500POPC   C3B 8519  24.577   9.098   8.900
 9500POPC   C4B 8520  24.777   9.088   8.891
 9501POPC   NC3 8521   8.034  22.573   4.326
 9501POPC   PO4 8522   8.005  22.753   4.243
 9501POPC   GL1 8523   7.976  22.933   4.160
 9501POPC   GL2 8524   8.072  22.935   4.131
 9501POPC   C1A 8525   7.947  23.113   4.077
 9501POPC   D2A 8526   7.919  23.292   3.995
 9501POPC   C3A 8527   7.890  23.472   3.912
 9501POPC   C4A 8528   7.861  23.652   3.829
 9501POPC   C1B 8529   7.997  23.200   4.250
 9501POPC   C2B 8530   7.969  23.380   4.167
 9501POPC   C3B 8531   7.940  23.560   4.085
 9501POPC   C4B 8532   7.911  23.739   4.002
 9502POPC   NC3 8533  21.349  17.676   9.515
 9502POPC   PO4 8534  21.516  17.785   9.504
 9502POPC   GL1 8535  21.683  17.894   9.493
 9502POPC   GL2 8536  21.737  17.811   9.479
 9502POPC   C1A 8537  21.850  18.004   9.482
 9502POPC   D2A 8538  22.018  18.113   9.472
 9502POPC   C3A 8539  22.185  18.223   9.461
 9502POPC   C4A 8540  22.352  18.332   9.450
 9502POPC   C1B 8541  21.875  17.986   9.680
 9502POPC   C2B 8542  22.042  18.095   9.669
 9502POPC   C3B 8543  22.209  18.205   9.658
 9502POPC   C4B 8544  22.377  18.314   9.648
 9503POPC   NC3 8545  -1.311  16.457   5.011
 9503POPC   PO4 8546  -1.477  16.542   4.938
 9503POPC   GL1 8547  -1.643  16.627   4.865
 9503POPC   GL2 8548  -1.657  16.674   4.952
 9503POPC   C1A 8549  -1.809  16.711   4.792
 9503POPC   D2A 8550  -1.975  16.796   4.720
 9503POPC   C3A 8551  -2.141  16.880   4.647
 9503POPC   C4A 8552  -2.307  16.965   4.574
 9503POPC   C1B 8553  -1.917  16.557   4.859
 9503POPC   C2B 8554  -2.083  16.641   4.787
 9503POPC   C3B 8555  -2.249  16.726   4.714
 9503POPC   C4B 8556  -2.415  16.811   4.641
 9504POPC   NC3 8557  20.968  16.127  15.619
 9504POPC   PO4 8558  21.128  16.219  15.696
 9504POPC   GL1 8559  21.288  16.311  15.773
 9504POPC   GL2 8560  21.324  16.326  15.681
 9504POPC   C1A 8561  21.448  16.403  15.850
 9504POPC   D2A 8562  21.607  16.496  15.927
 9504POPC   C3A 8563  21.767  16.588  16.004
 9504POPC   C4A 8564  21.927  16.680  16.081
 9504POPC   C1B 8565  21.544  16.228  15.859
 9504POPC   C2B 8566  21.704  16.321  15.936
 9504POPC   C3B 8567  21.864  16.413  16.013
 9504POPC   C4B 8568  22.023  16.505  16.090
 9505POPC   NC3 8569  10.788  13.596  -3.391
 9505POPC   PO4 8570  10.803  13.651  -3.583
 9505POPC   GL1 8571  10.818  13.706  -3.775
 9505POPC   GL2 8572  10.879  13.628  -3.792
 9505POPC   C1A 8573  10.833  13.760  -3.967
 9505POPC   D2A 8574  10.849  13.815  -4.158
 9505POPC   C3A 8575  10.864  13.869  -4.350
 9505POPC   C4A 8576  10.879  13.924  -4.542
 9505POPC   C1B 8577  10.991  13.875  -3.922
 9505POPC   C2B 8578  11.006  13.929  -4.113
 9505POPC   C3B 8579  11.022  13.984  -4.305
 9505POPC   C4B 8580  11.037  14.038  -4.497
 9506POPC   NC3 8581  10.582  12.325  23.570
 9506POPC   PO4 8582  10.593  12.363  23.766
 9506POPC   GL1 8583  10.604  12.401  23.962
 9506POPC   GL2 8584  10.672  12.329  23.972
 9506POPC   C1A 8585  10.615  12.439  24.158
 9506POPC   D2A 8586  10.626  12.476  24.355
 9506POPC   C3A 8587  10.637  12.514  24.551
 9506POPC   C4A 8588  10.648  12.552  24.747
 9506POPC   C1B 8589  10.470  12.305  24.192
 9506POPC   C2B 8590  10.481  12.343  24.388
 9506POPC   C3B 8591  10.492  12.381  24.585
 9506POPC   C4B 8592  10.503  12.419  24.781
 9507POPC   NC3 8593  -1.860  17.107   7.604
 9507POPC   PO4 8594  -2.031  17.203   7.565
 9507POPC   GL1 8595  -2.202  17.299   7.526
 9507POPC   GL2 8596  -2.251  17.236   7.586
 9507POPC   C1A 8597  -2.373  17.395   7.487
 9507POPC   D2A 8598  -2.544  17.492   7.449
 9507POPC   C3A 8599  -2.715  17.588   7.410
 9507POPC   C4A 8600  -2.886  17.684   7.371
 9507POPC   C1B 8601  -2.407  17.273   7.333
 9507POPC   C2B 8602  -2.578  17.369   7.294
 9507POPC   C3B 8603  -2.749  17.466   7.255
 9507POPC   C4B 8604  -2.920  17.562   7.216
 9508POPC   NC3 8605  12.619  -3.615   9.026
 9508POPC   PO4 8606  12.660  -3.810   9.014
 9508POPC   GL1 8607  12.701  -4.005   9.002
 9508POPC   GL2 8608  12.739  -4.003   9.094
 9508POPC   C1A 8609  12.742  -4.201   8.990
 9508POPC   D2A 8610  12.784  -4.396   8.977
 9508POPC   C3A 8611  12.825  -4.592   8.965
 9508POPC   C4A 8612  12.866  -4.787   8.953
 9508POPC   C1B 8613  12.923  -4.158   8.914
 9508POPC   C2B 8614  12.964  -4.353   8.902
 9508POPC   C3B 8615  13.005  -4.549   8.890
 9508POPC   C4B 8616  13.046  -4.744   8.877
 9509POPC   NC3 8617  22.008  16.055  12.672
 9509POPC   PO4 8618  22.183  16.145  12.710
 9509POPC   GL1 8619  22.358  16.235  12.748
 9509POPC   GL2 8620  22.344  16.295  12.669
 9509POPC   C1A 8621  22.533  16.325  12.785
 9509POPC   D2A 8622  22.707  16.414  12.823
 9509POPC   C3A 8623  22.882  16.504  12.860
 9509POPC   C4A 8624  23.057  16.594  12.898
 9509POPC   C1B 8625  22.626  16.193  12.667
 9509POPC   C2B 8626  22.800  16.283  12.704
 9509POPC   C3B 8627  22.975  16.373  12.742
 9509POPC   C4B 8628  23.150  16.463  12.779
 9510POPC   NC3 8629   7.763   1.641  20.836
 9510POPC   PO4 8630   7.736   1.523  20.996
 9510POPC   GL1 8631   7.709   1.405  21.156
 9510POPC   GL2 8632   7.808   1.397  21.166
 9510POPC   C1A 8633   7.682   1.288  21.315
 9510POPC   D2A 8634   7.656   1.170  21.475
 9510POPC   C3A 8635   7.629   1.053  21.634
 9510POPC   C4A 8636   7.602   0.935  21.794
 9510POPC   C1B 8637   7.682   1.127  21.197
 9510POPC   C2B 8638   7.655   1.009  21.356
 9510POPC   C3B 8639   7.629   0.892  21.516
 9510POPC   C4B 8640   7.602   0.774  21.675
 9511POPC   NC3 8641   2.672   5.151  -0.858
 9511POPC   PO4 8642   2.565   5.075  -1.009
 9511POPC   GL1 8643   2.458   4.999  -1.160
 9511POPC   GL2 8644   2.377   4.997  -1.102
 9511POPC   C1A 8645   2.351   4.923  -1.311
 9511POPC   D2A 8646   2.244   4.848  -1.462
 9511POPC   C3A 8647   2.137   4.772  -1.613
 9511POPC   C4A 8648   2.030   4.696  -1.764
 9511POPC   C1B 8649   2.398   4.738  -1.252
 9511POPC   C2B 8650   2.291   4.663  -1.403
 9511POPC   C3B 8651   2.184   4.587  -1.554
 9511POPC   C4B 8652   2.077   4.511  -1.705
 9512POPC   NC3 8653  -3.060   7.542  14.326
 9512POPC   PO4 8654  -3.249   7.506  14.382
 9512POPC   GL1 8655  -3.438   7.470  14.438
 9512POPC   GL2 8656  -3.409   7.383  14.477
 9512POPC   C1A 8657  -3.627   7.434  14.493
 9512POPC   D2A 8658  -3.815   7.398  14.549
 9512POPC   C3A 8659  -4.004   7.362  14.604
 9512POPC   C4A 8660  -4.193   7.326  14.660
 9512POPC   C1B 8661  -3.661   7.344  14.318
 9512POPC   C2B 8662  -3.850   7.308  14.374
 9512POPC   C3B 8663  -4.038   7.272  14.429
 9512POPC   C4B 8664  -4.227   7.236  14.485
 9513POPC   NC3 8665  12.260  23.622   9.373
 9513POPC   PO4 8666  12.292  23.819   9.366
 9513POPC   GL1 8667  12.324  24.016   9.359
 9513POPC   GL2 8668  12.379  24.010   9.442
 9513POPC   C1A 8669  12.357  24.213   9.351
 9513POPC   D2A 8670  12.389  24.411   9.344
 9513POPC   C3A 8671  12.422  24.608   9.336
 9513POPC   C4A 8672  12.454  24.805   9.329
 9513POPC   C1B 8673  12.192  24.244   9.461
 9513POPC   C2B 8674  12.225  24.442   9.453
 9513POPC   C3B 8675  12.257  24.639   9.446
 9513POPC   C4B 8676  12.290  24.836   9.439
 9514POPC   NC3 8677  19.728  14.276   1.155
 9514POPC   PO4 8678  19.871  14.334   1.027
 9514POPC   GL1 8679  20.014  14.392   0.899
 9514POPC   GL2 8680  20.004  14.306   0.849
 9514POPC   C1A 8681  20.157  14.450   0.772
 9514POPC   D2A 8682  20.299  14.508   0.644
 9514POPC   C3A 8683  20.442  14.566   0.517
 9514POPC   C4A 8684  20.585  14.624   0.389
 9514POPC   C1B 8685  20.295  14.366   0.889
 9514POPC   C2B 8686  20.438  14.424   0.761
 9514POPC   C3B 8687  20.581  14.482   0.634
 9514POPC   C4B 8688  20.724  14.540   0.506
 9515POPC   NC3 8689  12.736  -1.703  16.831
 9515POPC   PO4 8690  12.778  -1.869  16.935
 9515POPC   GL1 8691  12.820  -2.035  17.039
 9515POPC   GL2 8692  12.917  -2.022  17.020
 9515POPC   C1A 8693  12.862  -2.201  17.142
 9515POPC   D2A 8694  12.904  -2.366  17.246
 9515POPC   C3A 8695  12.946  -2.532  17.349
 9515POPC   C4A 8696  12.988  -2.698  17.453
 9515POPC   C1B 8697  12.844  -2.309  16.975
 9515POPC   C2B 8698  12.886  -2.475  17.079
 9515POPC   C3B 8699  12.928  -2.641  17.183
 9515POPC   C4B 8700  12.970  -2.807  17.286
 9516POPC   NC3 8701  21.363  11.174   2.399
 9516POPC   PO4 8702  21.527  11.188   2.285
 9516POPC   GL1 8703  21.691  11.202   2.171
 9516POPC   GL2 8704  21.657  11.289   2.134
 9516POPC   C1A 8705  21.854  11.216   2.057
 9516POPC   D2A 8706  22.018  11.229   1.942
 9516POPC   C3A 8707  22.181  11.243   1.828
 9516POPC   C4A 8708  22.345  11.257   1.714
 9516POPC   C1B 8709  21.760  11.117   1.910
 9516POPC   C2B 8710  21.924  11.131   1.796
 9516POPC   C3B 8711  22.088  11.145   1.682
 9516POPC   C4B 8712  22.251  11.158   1.567
 9517POPC   NC3 8713   5.677   9.236  23.103
 9517POPC   PO4 8714   5.622   9.238  23.295
 9517POPC   GL1 8715   5.567   9.240  23.487
 9517POPC   GL2 8716   5.663   9.245  23.515
 9517POPC   C1A 8717   5.512   9.242  23.680
 9517POPC   D2A 8718   5.458   9.245  23.872
 9517POPC   C3A 8719   5.403   9.247  24.065
 9517POPC   C4A 8720   5.348   9.249  24.257
 9517POPC   C1B 8721   5.521   9.043  23.685
 9517POPC   C2B 8722   5.466   9.045  23.877
 9517POPC   C3B 8723   5.411   9.047  24.069
 9517POPC   C4B 8724   5.356   9.049  24.262
 9518POPC   NC3 8725  -1.244  16.834  14.573
 9518POPC   PO4 8726  -1.404  16.935  14.638
 9518POPC   GL1 8727  -1.564  17.036  14.703
 9518POPC   GL2 8728  -1.504  17.101  14.749
 9518POPC   C1A 8729  -1.724  17.137  14.768
 9518POPC   D2A 8730  -1.884  17.237  14.833
 9518POPC   C3A 8731  -2.044  17.338  14.898
 9518POPC   C4A 8732  -2.204  17.439  14.963
 9518POPC   C1B 8733  -1.728  17.024  14.933
 9518POPC   C2B 8734  -1.888  17.125  14.998
 9518POPC   C3B 8735  -2.048  17.226  15.063
 9518POPC   C4B 8736  -2.208  17.327  15.128
 9519POPC   NC3 8737  21.915   5.087  14.769
 9519POPC   PO4 8738  22.091   5.021  14.837
 9519POPC   GL1 8739  22.267   4.955  14.905
 9519POPC   GL2 8740  22.314   5.012  14.838
 9519POPC   C1A 8741  22.443   4.889  14.974
 9519POPC   D2A 8742  22.619   4.824  15.042
 9519POPC   C3A 8743  22.795   4.758  15.111
 9519POPC   C4A 8744  22.971   4.692  15.179
 9519POPC   C1B 8745  22.438   4.738  14.843
 9519POPC   C2B 8746  22.614   4.673  14.911
 9519POPC   C3B 8747  22.790   4.607  14.980
 9519POPC   C4B 8748  22.966   4.541  15.048
 9520POPC   NC3 8749  10.711  -0.535   0.938
 9520POPC   PO4 8750  10.723  -0.687   0.809
 9520POPC   GL1 8751  10.735  -0.839   0.680
 9520POPC   GL2 8752  10.806  -0.882   0.737
 9520POPC   C1A 8753  10.747  -0.991   0.551
 9520POPC   D2A 8754  10.760  -1.144   0.421
 9520POPC   C3A 8755  10.772  -1.296   0.292
 9520POPC   C4A 8756  10.784  -1.448   0.163
 9520POPC   C1B 8757  10.889  -0.894   0.449
 9520POPC   C2B 8758  10.901  -1.046   0.320
 9520POPC   C3B 8759  10.913  -1.198   0.190
 9520POPC   C4B 8760  10.926  -1.350   0.061
 9521POPC   NC3 8761  11.988  -3.177   5.924
 9521POPC   PO4 8762  12.024  -3.365   5.865
 9521POPC   GL1 8763  12.060  -3.553   5.806
 9521POPC   GL2 8764  12.057  -3.523   5.711
 9521POPC   C1A 8765  12.095  -3.741   5.747
 9521POPC   D2A 8766  12.131  -3.928   5.689
 9521POPC   C3A 8767  12.166  -4.116   5.630
 9521POPC   C4A 8768  12.202  -4.304   5.571
 9521POPC   C1B 8769  11.898  -3.776   5.741
 9521POPC   C2B 8770  11.934  -3.964   5.682
 9521POPC   C3B 8771  11.970  -4.151   5.623
 9521POPC   C4B 8772  12.005  -4.339   5.564
 9522POPC   NC3 8773   5.171  21.880   4.568
 9522POPC   PO4 8774   5.096  22.047   4.487
 9522POPC   GL1 8775   5.021  22.214   4.406
 9522POPC   GL2 8776   5.067  22.269   4.476
 9522POPC   C1A 8777   4.946  22.381   4.326
 9522POPC   D2A 8778   4.870  22.548   4.245
 9522POPC   C3A 8779   4.795  22.715   4.165
 9522POPC   C4A 8780   4.720  22.882   4.084
 9522POPC   C1B 8781   4.785  22.366   4.445
 9522POPC   C2B 8782   4.710  22.533   4.364
 9522POPC   C3B 8783   4.635  22.700   4.283
 9522POPC   C4B 8784   4.560  22.867   4.203
 9523POPC   NC3 8785   0.872  20.117  13.063
 9523POPC   PO4 8786   0.740  20.258  13.113
 9523POPC   GL1 8787   0.608  20.399  13.163
 9523POPC   GL2 8788   0.626  20.381  13.260
 9523POPC   C1A 8789   0.475  20.540  13.214
 9523POPC   D2A 8790   0.343  20.681  13.264
 9523POPC   C3A 8791   0.210  20.822  13.315
 9523POPC   C4A 8792   0.078  20.963  13.365
 9523POPC   C1B 8793   0.330  20.403  13.216
 9523POPC   C2B 8794   0.197  20.544  13.266
 9523POPC   C3B 8795   0.065  20.685  13.317
 9523POPC   C4B 8796  -0.067  20.826  13.367
 9524POPC   NC3 8797   1.621  16.144   0.597
 9524POPC   PO4 8798   1.503  16.230   0.460
 9524POPC   GL1 8799   1.385  16.316   0.323
 9524POPC   GL2 8800   1.445  16.396   0.321
 9524POPC   C1A 8801   1.267  16.402   0.187
 9524POPC   D2A 8802   1.148  16.488   0.050
 9524POPC   C3A 8803   1.030  16.574  -0.086
 9524POPC   C4A 8804   0.912  16.660  -0.223
 9524POPC   C1B 8805   1.160  16.487   0.333
 9524POPC   C2B 8806   1.041  16.573   0.196
 9524POPC   C3B 8807   0.923  16.659   0.060
 9524POPC   C4B 8808   0.805  16.745  -0.077
 9525POPC   NC3 8809   9.657  22.035   3.073
 9525POPC   PO4 8810   9.652  22.205   2.968
 9525POPC   GL1 8811   9.647  22.375   2.863
 9525POPC   GL2 8812   9.722  22.341   2.805
 9525POPC   C1A 8813   9.643  22.545   2.757
 9525POPC   D2A 8814   9.638  22.715   2.652
 9525POPC   C3A 8815   9.634  22.885   2.546
 9525POPC   C4A 8816   9.629  23.055   2.441
 9525POPC   C1B 8817   9.776  22.626   2.882
 9525POPC   C2B 8818   9.772  22.796   2.777
 9525POPC   C3B 8819   9.767  22.966   2.671
 9525POPC   C4B 8820   9.763  23.136   2.566
 9526POPC   NC3 8821  17.200  14.382  20.675
 9526POPC   PO4 8822  17.313  14.443  20.828
 9526POPC   GL1 8823  17.426  14.504  20.981
 9526POPC   GL2 8824  17.504  14.514  20.919
 9526POPC   C1A 8825  17.540  14.565  21.134
 9526POPC   D2A 8826  17.653  14.627  21.287
 9526POPC   C3A 8827  17.767  14.688  21.440
 9526POPC   C4A 8828  17.880  14.749  21.593
 9526POPC   C1B 8829  17.593  14.376  21.170
 9526POPC   C2B 8830  17.707  14.437  21.323
 9526POPC   C3B 8831  17.820  14.498  21.476
 9526POPC   C4B 8832  17.933  14.560  21.629
 9527POPC   NC3 8833  22.144   9.886  16.361
 9527POPC   PO4 8834  22.318   9.881  16.459
 9527POPC   GL1 8835  22.492   9.876  16.557
 9527POPC   GL2 8836  22.536   9.834  16.477
 9527POPC   C1A 8837  22.667   9.871  16.654
 9527POPC   D2A 8838  22.841   9.866  16.752
 9527POPC   C3A 8839  23.016   9.861  16.849
 9527POPC   C4A 8840  23.190   9.856  16.947
 9527POPC   C1B 8841  22.622   9.690  16.726
 9527POPC   C2B 8842  22.796   9.685  16.823
 9527POPC   C3B 8843  22.970   9.680  16.921
 9527POPC   C4B 8844  23.145   9.675  17.019
 9528POPC   NC3 8845  20.281  15.216   2.404
 9528POPC   PO4 8846  20.433  15.292   2.298
 9528POPC   GL1 8847  20.585  15.368   2.192
 9528POPC   GL2 8848  20.526  15.374   2.112
 9528POPC   C1A 8849  20.737  15.443   2.087
 9528POPC   D2A 8850  20.890  15.519   1.981
 9528POPC   C3A 8851  21.042  15.594   1.876
 9528POPC   C4A 8852  21.194  15.670   1.770
 9528POPC   C1B 8853  20.792  15.258   2.033
 9528POPC   C2B 8854  20.944  15.334   1.928
 9528POPC   C3B 8855  21.096  15.410   1.822
 9528POPC   C4B 8856  21.249  15.485   1.716
 9529POPC   NC3 8857  15.180  20.723  16.832
 9529POPC   PO4 8858  15.259  20.879  16.929
 9529POPC   GL1 8859  15.338  21.035  17.026
 9529POPC   GL2 8860  15.343  21.086  16.940
 9529POPC   C1A 8861  15.417  21.191  17.123
 9529POPC   D2A 8862  15.496  21.347  17.220
 9529POPC   C3A 8863  15.575  21.503  17.317
 9529POPC   C4A 8864  15.654  21.659  17.414
 9529POPC   C1B 8865  15.600  21.118  17.091
 9529POPC   C2B 8866  15.679  21.274  17.188
 9529POPC   C3B 8867  15.758  21.430  17.285
 9529POPC   C4B 8868  15.837  21.586  17.382
 9530POPC   NC3 8869   8.560   8.782  -3.784
 9530POPC   PO4 8870   8.543   8.762  -3.982
 9530POPC   GL1 8871   8.526   8.742  -4.180
 9530POPC   GL2 8872   8.452   8.676  -4.167
 9530POPC   C1A 8873   8.508   8.722  -4.378
 9530POPC   D2A 8874   8.491   8.702  -4.577
 9530POPC   C3A 8875   8.473   8.682  -4.775
 9530POPC   C4A 8876   8.456   8.662  -4.973
 9530POPC   C1B 8877   8.642   8.574  -4.375
 9530POPC   C2B 8878   8.625   8.554  -4.573
 9530POPC   C3B 8879   8.608   8.534  -4.771
 9530POPC   C4B 8880   8.590   8.514  -4.970
 9531POPC   NC3 8881  18.711  17.019  17.936
 9531POPC   PO4 8882  18.838  17.118  18.054
 9531POPC   GL1 8883  18.965  17.217  18.172
 9531POPC   GL2 8884  19.040  17.158  18.141
 9531POPC   C1A 8885  19.092  17.316  18.291
 9531POPC   D2A 8886  19.220  17.415  18.409
 9531POPC   C3A 8887  19.347  17.514  18.528
 9531POPC   C4A 8888  19.474  17.613  18.646
 9531POPC   C1B 8889  19.054  17.188  18.439
 9531POPC   C2B 8890  19.181  17.287  18.558
 9531POPC   C3B 8891  19.308  17.386  18.676
 9531POPC   C4B 8892  19.436  17.485  18.794
 9532POPC   NC3 8893   3.978  22.351   8.116
 9532POPC   PO4 8894   3.880  22.523   8.087
 9532POPC   GL1 8895   3.782  22.695   8.058
 9532POPC   GL2 8896   3.860  22.731   8.007
 9532POPC   C1A 8897   3.683  22.866   8.029
 9532POPC   D2A 8898   3.585  23.038   7.999
 9532POPC   C3A 8899   3.486  23.209   7.970
 9532POPC   C4A 8900   3.388  23.381   7.941
 9532POPC   C1B 8901   3.760  22.939   8.198
 9532POPC   C2B 8902   3.662  23.111   8.169
 9532POPC   C3B 8903   3.564  23.282   8.140
 9532POPC   C4B 8904   3.465  23.454   8.110
 9533POPC   NC3 8905  17.211  -1.720   8.994
 9533POPC   PO4 8906  17.314  -1.891   8.981
 9533POPC   GL1 8907  17.417  -2.062   8.968
 9533POPC   GL2 8908  17.494  -2.012   8.928
 9533POPC   C1A 8909  17.520  -2.233   8.956
 9533POPC   D2A 8910  17.624  -2.403   8.943
 9533POPC   C3A 8911  17.727  -2.574   8.931
 9533POPC   C4A 8912  17.830  -2.745   8.918
 9533POPC   C1B 8913  17.445  -2.265   8.774
 9533POPC   C2B 8914  17.548  -2.436   8.761
 9533POPC   C3B 8915  17.651  -2.606   8.748
 9533POPC   C4B 8916  17.754  -2.777   8.736
 9534POPC   NC3 8917  21.993  11.484   3.455
 9534POPC   PO4 8918  22.167  11.504   3.358
 9534POPC   GL1 8919  22.341  11.524   3.261
 9534POPC   GL2 8920  22.348  11.424   3.253
 9534POPC   C1A 8921  22.515  11.544   3.164
 9534POPC   D2A 8922  22.689  11.563   3.068
 9534POPC   C3A 8923  22.863  11.583   2.971
 9534POPC   C4A 8924  23.037  11.603   2.874
 9534POPC   C1B 8925  22.613  11.536   3.339
 9534POPC   C2B 8926  22.787  11.555   3.242
 9534POPC   C3B 8927  22.961  11.575   3.145
 9534POPC   C4B 8928  23.135  11.595   3.048
 9535POPC   NC3 8929   7.493   6.855  -3.331
 9535POPC   PO4 8930   7.464   6.811  -3.524
 9535POPC   GL1 8931   7.435   6.767  -3.717
 9535POPC   GL2 8932   7.364   6.701  -3.691
 9535POPC   C1A 8933   7.406   6.723  -3.910
 9535POPC   D2A 8934   7.378   6.678  -4.103
 9535POPC   C3A 8935   7.349   6.634  -4.296
 9535POPC   C4A 8936   7.320   6.590  -4.489
 9535POPC   C1B 8937   7.545   6.579  -3.898
 9535POPC   C2B 8938   7.516   6.534  -4.091
 9535POPC   C3B 8939   7.487   6.490  -4.284
 9535POPC   C4B 8940   7.458   6.446  -4.477
 9536POPC   NC3 8941   7.562   6.818  23.172
 9536POPC   PO4 8942   7.528   6.763  23.361
 9536POPC   GL1 8943   7.494   6.708  23.550
 9536POPC   GL2 8944   7.592   6.716  23.570
 9536POPC   C1A 8945   7.461   6.654  23.740
 9536POPC   D2A 8946   7.427   6.599  23.929
 9536POPC   C3A 8947   7.394   6.545  24.119
 9536POPC   C4A 8948   7.360   6.490  24.308
 9536POPC   C1B 8949   7.485   6.462  23.689
 9536POPC   C2B 8950   7.452   6.407  23.878
 9536POPC   C3B 8951   7.418   6.353  24.068
 9536POPC   C4B 8952   7.384   6.298  24.257
 9537POPC   NC3 8953  13.480  21.563   3.259
 9537POPC   PO4 8954  13.529  21.735   3.169
 9537POPC   GL1 8955  13.578  21.907   3.079
 9537POPC   GL2 8956  13.657  21.916   3.140
 9537POPC   C1A 8957  13.627  22.079   2.989
 9537POPC   D2A 8958  13.676  22.250   2.900
 9537POPC   C3A 8959  13.725  22.422   2.810
 9537POPC   C4A 8960  13.774  22.594   2.720
 9537POPC   C1B 8961  13.514  22.179   3.120
 9537POPC   C2B 8962  13.563  22.351   3.030
 9537POPC   C3B 8963  13.612  22.523   2.941
 9537POPC   C4B 8964  13.661  22.695   2.851
 9538POPC   NC3 8965  -0.542   9.764   0.882
 9538POPC   PO4 8966  -0.691   9.759   0.749
 9538POPC   GL1 8967  -0.840   9.754   0.616
 9538POPC   GL2 8968  -0.896   9.810   0.677
 9538POPC   C1A 8969  -0.989   9.749   0.483
 9538POPC   D2A 8970  -1.138   9.744   0.349
 9538POPC   C3A 8971  -1.287   9.739   0.216
 9538POPC   C4A 8972  -1.436   9.734   0.083
 9538POPC   C1B 8973  -1.060   9.583   0.568
 9538POPC   C2B 8974  -1.209   9.578   0.435
 9538POPC   C3B 8975  -1.358   9.573   0.302
 9538POPC   C4B 8976  -1.507   9.568   0.169
 9539POPC   NC3 8977  11.646  16.172  -2.297
 9539POPC   PO4 8978  11.673  16.260  -2.474
 9539POPC   GL1 8979  11.700  16.348  -2.651
 9539POPC   GL2 8980  11.797  16.326  -2.648
 9539POPC   C1A 8981  11.727  16.436  -2.829
 9539POPC   D2A 8982  11.754  16.525  -3.006
 9539POPC   C3A 8983  11.781  16.613  -3.184
 9539POPC   C4A 8984  11.808  16.701  -3.361
 9539POPC   C1B 8985  11.763  16.610  -2.737
 9539POPC   C2B 8986  11.790  16.699  -2.914
 9539POPC   C3B 8987  11.817  16.787  -3.092
 9539POPC   C4B 8988  11.844  16.875  -3.269
 9540POPC   NC3 8989  13.622  -3.118   7.491
 9540POPC   PO4 8990  13.686  -3.304   7.454
 9540POPC   GL1 8991  13.750  -3.490   7.417
 9540POPC   GL2 8992  13.843  -3.455   7.405
 9540POPC   C1A 8993  13.814  -3.676   7.380
 9540POPC   D2A 8994  13.877  -3.861   7.342
 9540POPC   C3A 8995  13.941  -4.047   7.305
 9540POPC   C4A 8996  14.005  -4.233   7.268
 9540POPC   C1B 8997  13.779  -3.648   7.185
 9540POPC   C2B 8998  13.843  -3.834   7.147
 9540POPC   C3B 8999  13.906  -4.020   7.110
 9540POPC   C4B 9000  13.970  -4.206   7.073
 9541POPC   NC3 9001   4.743  14.576  22.021
 9541POPC   PO4 9002   4.661  14.637  22.193
 9541POPC   GL1 9003   4.579  14.698  22.365
 9541POPC   GL2 9004   4.649  14.769  22.373
 9541POPC   C1A 9005   4.498  14.759  22.537
 9541POPC   D2A 9006   4.416  14.821  22.709
 9541POPC   C3A 9007   4.335  14.882  22.881
 9541POPC   C4A 9008   4.253  14.943  23.053
 9541POPC   C1B 9009   4.615  14.632  22.638
 9541POPC   C2B 9010   4.533  14.693  22.810
 9541POPC   C3B 9011   4.452  14.755  22.982
 9541POPC   C4B 9012   4.370  14.816  23.154
 9542POPC   NC3 9013   2.935  21.943  10.851
 9542POPC   PO4 9014   2.836  22.117  10.855
 9542POPC   GL1 9015   2.737  22.291  10.859
 9542POPC   GL2 9016   2.810  22.334  10.806
 9542POPC   C1A 9017   2.637  22.464  10.863
 9542POPC   D2A 9018   2.538  22.638  10.866
 9542POPC   C3A 9019   2.438  22.811  10.870
 9542POPC   C4A 9020   2.339  22.985  10.874
 9542POPC   C1B 9021   2.730  22.514  11.033
 9542POPC   C2B 9022   2.631  22.687  11.036
 9542POPC   C3B 9023   2.531  22.861  11.040
 9542POPC   C4B 9024   2.432  23.034  11.044
 9543POPC   NC3 9025  12.677  23.520   8.966
 9543POPC   PO4 9026  12.718  23.715   8.949
 9543POPC   GL1 9027  12.759  23.910   8.932
 9543POPC   GL2 9028  12.833  23.900   8.999
 9543POPC   C1A 9029  12.800  24.105   8.915
 9543POPC   D2A 9030  12.841  24.300   8.898
 9543POPC   C3A 9031  12.882  24.495   8.881
 9543POPC   C4A 9032  12.923  24.690   8.864
 9543POPC   C1B 9033  12.671  24.145   9.063
 9543POPC   C2B 9034  12.712  24.340   9.046
 9543POPC   C3B 9035  12.753  24.535   9.029
 9543POPC   C4B 9036  12.794  24.730   9.012
 9544POPC   NC3 9037  23.606  10.332  10.713
 9544POPC   PO4 9038  23.806  10.336  10.723
 9544POPC   GL1 9039  24.006  10.340  10.733
 9544POPC   GL2 9040  24.008  10.415  10.667
 9544POPC   C1A 9041  24.206  10.344  10.743
 9544POPC   D2A 9042  24.405  10.348  10.754
 9544POPC   C3A 9043  24.605  10.352  10.764
 9544POPC   C4A 9044  24.805  10.356  10.774
 9544POPC   C1B 9045  24.216  10.212  10.594
 9544POPC   C2B 9046  24.416  10.216  10.604
 9544POPC   C3B 9047  24.615  10.220  10.614
 9544POPC   C4B 9048  24.815  10.224  10.625
 9545POPC   NC3 9049   6.439  21.689  16.545
 9545POPC   PO4 9050   6.390  21.859  16.638
 9545POPC   GL1 9051   6.341  22.029  16.731
 9545POPC   GL2 9052   6.406  22.079  16.675
 9545POPC   C1A 9053   6.291  22.199  16.824
 9545POPC   D2A 9054   6.242  22.368  16.918
 9545POPC   C3A 9055   6.192  22.538  17.011
 9545POPC   C4A 9056   6.143  22.708  17.104
 9545POPC   C1B 9057   6.434  22.165  16.961
 9545POPC   C2B 9058   6.385  22.335  17.054
 9545POPC   C3B 9059   6.335  22.505  17.147
 9545POPC   C4B 9060   6.286  22.675  17.240
 9546POPC   NC3 9061   5.073  21.688   4.272
 9546POPC   PO4 9062   4.997  21.853   4.188
 9546POPC   GL1 9063   4.921  22.018   4.104
 9546POPC   GL2 9064   4.969  22.074   4.171
 9546POPC   C1A 9065   4.846  22.183   4.019
 9546POPC   D2A 9066   4.770  22.347   3.935
 9546POPC   C3A 9067   4.695  22.512   3.850
 9546POPC   C4A 9068   4.619  22.677   3.766
 9546POPC   C1B 9069   4.687  22.172   4.140
 9546POPC   C2B 9070   4.611  22.337   4.056
 9546POPC   C3B 9071   4.536  22.501   3.971
 9546POPC   C4B 9072   4.460  22.666   3.887
 9547POPC   NC3 9073   7.102  10.289  23.396
 9547POPC   PO4 9074   7.059  10.306  23.591
 9547POPC   GL1 9075   7.016  10.323  23.786
 9547POPC   GL2 9076   7.066  10.409  23.789
 9547POPC   C1A 9077   6.972  10.340  23.980
 9547POPC   D2A 9078   6.929  10.356  24.175
 9547POPC   C3A 9079   6.885  10.373  24.369
 9547POPC   C4A 9080   6.842  10.390  24.564
 9547POPC   C1B 9081   7.139  10.240  24.026
 9547POPC   C2B 9082   7.096  10.257  24.221
 9547POPC   C3B 9083   7.052  10.273  24.415
 9547POPC   C4B 9084   7.009  10.290  24.610
 9548POPC   NC3 9085   4.648  19.303  18.752
 9548POPC   PO4 9086   4.578  19.439  18.881
 9548POPC   GL1 9087   4.508  19.575  19.010
 9548POPC   GL2 9088   4.517  19.508  19.085
 9548POPC   C1A 9089   4.438  19.710  19.139
 9548POPC   D2A 9090   4.367  19.846  19.269
 9548POPC   C3A 9091   4.297  19.981  19.398
 9548POPC   C4A 9092   4.227  20.117  19.527
 9548POPC   C1B 9093   4.251  19.647  19.105
 9548POPC   C2B 9094   4.181  19.782  19.234
 9548POPC   C3B 9095   4.111  19.918  19.363
 9548POPC   C4B 9096   4.041  20.053  19.493
 9549POPC   NC3 9097   1.050  17.395   2.163
 9549POPC   PO4 9098   0.921  17.503   2.055
 9549POPC   GL1 9099   0.792  17.611   1.947
 9549POPC   GL2 9100   0.733  17.621   2.027
 9549POPC   C1A 9101   0.663  17.720   1.839
 9549POPC   D2A 9102   0.535  17.828   1.731
 9549POPC   C3A 9103   0.406  17.937   1.623
 9549POPC   C4A 9104   0.277  18.045   1.515
 9549POPC   C1B 9105   0.567  17.553   1.787
 9549POPC   C2B 9106   0.438  17.661   1.679
 9549POPC   C3B 9107   0.309  17.770   1.571
 9549POPC   C4B 9108   0.180  17.878   1.463
 9550POPC   NC3 9109   5.302  21.895  15.334
 9550POPC   PO4 9110   5.236  22.068  15.410
 9550POPC   GL1 9111   5.170  22.241  15.486
 9550POPC   GL2 9112   5.198  22.211  15.577
 9550POPC   C1A 9113   5.105  22.414  15.562
 9550POPC   D2A 9114   5.039  22.587  15.638
 9550POPC   C3A 9115   4.974  22.760  15.714
 9550POPC   C4A 9116   4.908  22.933  15.790
 9550POPC   C1B 9117   4.924  22.333  15.591
 9550POPC   C2B 9118   4.859  22.506  15.667
 9550POPC   C3B 9119   4.793  22.679  15.743
 9550POPC   C4B 9120   4.728  22.852  15.819
 9551POPC   NC3 9121  20.778  18.519   9.562
 9551POPC   PO4 9122  20.942  18.633   9.551
 9551POPC   GL1 9123  21.106  18.747   9.540
 9551POPC   GL2 9124  21.161  18.666   9.519
 9551POPC   C1A 9125  21.270  18.861   9.529
 9551POPC   D2A 9126  21.434  18.975   9.517
 9551POPC   C3A 9127  21.598  19.089   9.506
 9551POPC   C4A 9128  21.762  19.203   9.495
 9551POPC   C1B 9129  21.303  18.833   9.724
 9551POPC   C2B 9130  21.467  18.947   9.713
 9551POPC   C3B 9131  21.631  19.061   9.701
 9551POPC   C4B 9132  21.795  19.175   9.690
 9552POPC   NC3 9133  20.512  18.407   7.447
 9552POPC   PO4 9134  20.670  18.523   7.406
 9552POPC   GL1 9135  20.828  18.639   7.365
 9552POPC   GL2 9136  20.873  18.562   7.321
 9552POPC   C1A 9137  20.986  18.755   7.324
 9552POPC   D2A 9138  21.143  18.871   7.284
 9552POPC   C3A 9139  21.301  18.987   7.243
 9552POPC   C4A 9140  21.459  19.103   7.202
 9552POPC   C1B 9141  21.068  18.705   7.500
 9552POPC   C2B 9142  21.226  18.821   7.459
 9552POPC   C3B 9143  21.384  18.937   7.418
 9552POPC   C4B 9144  21.541  19.053   7.377
 9553POPC   NC3 9145  -0.022  19.498   7.936
 9553POPC   PO4 9146  -0.155  19.644   7.906
 9553POPC   GL1 9147  -0.288  19.790   7.876
 9553POPC   GL2 9148  -0.256  19.837   7.959
 9553POPC   C1A 9149  -0.422  19.936   7.846
 9553POPC   D2A 9150  -0.555  20.082   7.816
 9553POPC   C3A 9151  -0.689  20.228   7.786
 9553POPC   C4A 9152  -0.822  20.374   7.756
 9553POPC   C1B 9153  -0.556  19.836   7.955
 9553POPC   C2B 9154  -0.690  19.982   7.925
 9553POPC   C3B 9155  -0.823  20.128   7.895
 9553POPC   C4B 9156  -0.956  20.274   7.865
 9554POPC   NC3 9157  21.431   5.037   4.023
 9554POPC   PO4 9158  21.595   4.962   3.937
 9554POPC   GL1 9159  21.759   4.887   3.851
 9554POPC   GL2 9160  21.776   4.975   3.806
 9554POPC   C1A 9161  21.923   4.812   3.765
 9554POPC   D2A 9162  22.088   4.738   3.679
 9554POPC   C3A 9163  22.252   4.663   3.593
 9554POPC   C4A 9164  22.416   4.588   3.507
 9554POPC   C1B 9165  21.814   4.753   3.608
 9554POPC   C2B 9166  21.978   4.678   3.522
 9554POPC   C3B 9167  22.143   4.603   3.436
 9554POPC   C4B 9168  22.307   4.529   3.350
 9555POPC   NC3 9169   7.900  -2.209   3.712
 9555POPC   PO4 9170   7.872  -2.385   3.621
 9555POPC   GL1 9171   7.844  -2.561   3.530
 9555POPC   GL2 9172   7.886  -2.524   3.447
 9555POPC   C1A 9173   7.817  -2.737   3.439
 9555POPC   D2A 9174   7.789  -2.912   3.347
 9555POPC   C3A 9175   7.762  -3.088   3.256
 9555POPC   C4A 9176   7.734  -3.264   3.165
 9555POPC   C1B 9177   7.637  -2.675   3.375
 9555POPC   C2B 9178   7.610  -2.851   3.284
 9555POPC   C3B 9179   7.582  -3.027   3.192
 9555POPC   C4B 9180   7.555  -3.203   3.101
 9556POPC   NC3 9181  -3.869   7.925   9.702
 9556POPC   PO4 9182  -4.066   7.889   9.705
 9556POPC   GL1 9183  -4.263   7.853   9.708
 9556POPC   GL2 9184  -4.265   7.874   9.805
 9556POPC   C1A 9185  -4.460   7.817   9.710
 9556POPC   D2A 9186  -4.656   7.781   9.713
 9556POPC   C3A 9187  -4.853   7.745   9.715
 9556POPC   C4A 9188  -5.050   7.709   9.718
 9556POPC   C1B 9189  -4.424   7.625   9.752
 9556POPC   C2B 9190  -4.621   7.589   9.755
 9556POPC   C3B 9191  -4.818   7.553   9.757
 9556POPC   C4B 9192  -5.014   7.517   9.760
 9557POPC   NC3 9193  10.270  19.186  20.290
 9557POPC   PO4 9194  10.274  19.320  20.439
 9557POPC   GL1 9195  10.278  19.454  20.588
 9557POPC   GL2 9196  10.303  19.381  20.652
 9557POPC   C1A 9197  10.282  19.587  20.737
 9557POPC   D2A 9198  10.287  19.721  20.885
 9557POPC   C3A 9199  10.291  19.854  21.034
 9557POPC   C4A 9200  10.295  19.988  21.183
 9557POPC   C1B 9201  10.089  19.553  20.772
 9557POPC   C2B 9202  10.093  19.687  20.921
 9557POPC   C3B 9203  10.097  19.820  21.070
 9557POPC   C4B 9204  10.101  19.954  21.219
 9558POPC   NC3 9205   3.950  22.414  11.605
 9558POPC   PO4 9206   3.866  22.594  11.631
 9558POPC   GL1 9207   3.782  22.774  11.657
 9558POPC   GL2 9208   3.871  22.817  11.646
 9558POPC   C1A 9209   3.698  22.953  11.683
 9558POPC   D2A 9210   3.613  23.133  11.709
 9558POPC   C3A 9211   3.529  23.312  11.735
 9558POPC   C4A 9212   3.445  23.492  11.761
 9558POPC   C1B 9213   3.729  22.939  11.880
 9558POPC   C2B 9214   3.645  23.119  11.906
 9558POPC   C3B 9215   3.561  23.298  11.932
 9558POPC   C4B 9216   3.476  23.478  11.958
 9559POPC   NC3 9217  -2.167   8.836   3.167
 9559POPC   PO4 9218  -2.342   8.819   3.072
 9559POPC   GL1 9219  -2.517   8.802   2.977
 9559POPC   GL2 9220  -2.520   8.704   2.999
 9559POPC   C1A 9221  -2.692   8.785   2.882
 9559POPC   D2A 9222  -2.868   8.768   2.787
 9559POPC   C3A 9223  -3.043   8.751   2.692
 9559POPC   C4A 9224  -3.218   8.734   2.597
 9559POPC   C1B 9225  -2.596   8.744   2.712
 9559POPC   C2B 9226  -2.771   8.727   2.617
 9559POPC   C3B 9227  -2.946   8.710   2.522
 9559POPC   C4B 9228  -3.122   8.693   2.427
 9560POPC   NC3 9229  20.472   4.966   2.577
 9560POPC   PO4 9230  20.618   4.886   2.466
 9560POPC   GL1 9231  20.764   4.806   2.355
 9560POPC   GL2 9232  20.815   4.892   2.360
 9560POPC   C1A 9233  20.909   4.726   2.243
 9560POPC   D2A 9234  21.055   4.647   2.132
 9560POPC   C3A 9235  21.200   4.567   2.020
 9560POPC   C4A 9236  21.346   4.487   1.909
 9560POPC   C1B 9237  20.818   4.792   2.077
 9560POPC   C2B 9238  20.964   4.712   1.966
 9560POPC   C3B 9239  21.109   4.632   1.855
 9560POPC   C4B 9240  21.255   4.552   1.743
 9561POPC   NC3 9241  22.231  14.123   5.141
 9561POPC   PO4 9242  22.408  14.185   5.072
 9561POPC   GL1 9243  22.585  14.247   5.003
 9561POPC   GL2 9244  22.539  14.311   4.941
 9561POPC   C1A 9245  22.762  14.309   4.934
 9561POPC   D2A 9246  22.939  14.372   4.864
 9561POPC   C3A 9247  23.116  14.434   4.795
 9561POPC   C4A 9248  23.293  14.496   4.726
 9561POPC   C1B 9249  22.757  14.168   4.793
 9561POPC   C2B 9250  22.934  14.230   4.724
 9561POPC   C3B 9251  23.111  14.292   4.654
 9561POPC   C4B 9252  23.288  14.354   4.585
 9562POPC   NC3 9253   1.529  13.425  20.357
 9562POPC   PO4 9254   1.410  13.477  20.509
 9562POPC   GL1 9255   1.291  13.529  20.661
 9562POPC   GL2 9256   1.368  13.518  20.725
 9562POPC   C1A 9257   1.173  13.581  20.814
 9562POPC   D2A 9258   1.054  13.633  20.966
 9562POPC   C3A 9259   0.936  13.685  21.119
 9562POPC   C4A 9260   0.817  13.737  21.271
 9562POPC   C1B 9261   1.122  13.389  20.840
 9562POPC   C2B 9262   1.004  13.441  20.992
 9562POPC   C3B 9263   0.885  13.493  21.145
 9562POPC   C4B 9264   0.767  13.545  21.297
 9563POPC   NC3 9265   3.000  17.115   0.159
 9563POPC   PO4 9266   2.901  17.213   0.016
 9563POPC   GL1 9267   2.802  17.311  -0.127
 9563POPC   GL2 9268   2.886  17.357  -0.155
 9563POPC   C1A 9269   2.702  17.409  -0.270
 9563POPC   D2A 9270   2.603  17.508  -0.413
 9563POPC   C3A 9271   2.503  17.606  -0.556
 9563POPC   C4A 9272   2.404  17.704  -0.699
 9563POPC   C1B 9273   2.665  17.558  -0.142
 9563POPC   C2B 9274   2.565  17.656  -0.285
 9563POPC   C3B 9275   2.466  17.755  -0.428
 9563POPC   C4B 9276   2.366  17.853  -0.571
 9564POPC   NC3 9277   9.520  23.089   5.344
 9564POPC   PO4 9278   9.519  23.279   5.281
 9564POPC   GL1 9279   9.518  23.469   5.218
 9564POPC   GL2 9280   9.537  23.438   5.125
 9564POPC   C1A 9281   9.516  23.659   5.156
 9564POPC   D2A 9282   9.515  23.849   5.093
 9564POPC   C3A 9283   9.513  24.039   5.031
 9564POPC   C4A 9284   9.512  24.229   4.968
 9564POPC   C1B 9285   9.712  23.672   5.192
 9564POPC   C2B 9286   9.711  23.862   5.130
 9564POPC   C3B 9287   9.710  24.052   5.067
 9564POPC   C4B 9288   9.708  24.242   5.005
 9565POPC   NC3 9289   3.349   7.056  21.826
 9565POPC   PO4 9290   3.252   7.007  21.994
 9565POPC   GL1 9291   3.155   6.958  22.162
 9565POPC   GL2 9292   3.193   6.866  22.157
 9565POPC   C1A 9293   3.057   6.909  22.329
 9565POPC   D2A 9294   2.960   6.859  22.497
 9565POPC   C3A 9295   2.862   6.810  22.664
 9565POPC   C4A 9296   2.765   6.761  22.832
 9565POPC   C1B 9297   2.900   6.848  22.221
 9565POPC   C2B 9298   2.803   6.799  22.388
 9565POPC   C3B 9299   2.706   6.750  22.556
 9565POPC   C4B 9300   2.608   6.701  22.723
 9566POPC   NC3 9301  -2.030   5.775  15.862
 9566POPC   PO4 9302  -2.201   5.707  15.940
 9566POPC   GL1 9303  -2.372   5.639  16.018
 9566POPC   GL2 9304  -2.321   5.572  16.072
 9566POPC   C1A 9305  -2.543   5.571  16.096
 9566POPC   D2A 9306  -2.715   5.503  16.175
 9566POPC   C3A 9307  -2.886   5.435  16.253
 9566POPC   C4A 9308  -3.057   5.367  16.331
 9566POPC   C1B 9309  -2.559   5.439  15.947
 9566POPC   C2B 9310  -2.730   5.371  16.025
 9566POPC   C3B 9311  -2.901   5.303  16.104
 9566POPC   C4B 9312  -3.073   5.235  16.182
 9567POPC   NC3 9313  14.208  23.076  11.175
 9567POPC   PO4 9314  14.278  23.263  11.191
 9567POPC   GL1 9315  14.348  23.450  11.207
 9567POPC   GL2 9316  14.380  23.430  11.299
 9567POPC   C1A 9317  14.418  23.636  11.222
 9567POPC   D2A 9318  14.489  23.823  11.238
 9567POPC   C3A 9319  14.559  24.009  11.253
 9567POPC   C4A 9320  14.629  24.196  11.269
 9567POPC   C1B 9321  14.242  23.696  11.296
 9567POPC   C2B 9322  14.313  23.883  11.311
 9567POPC   C3B 9323  14.383  24.069  11.327
 9567POPC   C4B 9324  14.453  24.256  11.343
 9568POPC   NC3 9325  18.074  -0.915  12.234
 9568POPC   PO4 9326  18.191  -1.074  12.268
 9568POPC   GL1 9327  18.308  -1.233  12.302
 9568POPC   GL2 9328  18.371  -1.201  12.231
 9568POPC   C1A 9329  18.425  -1.392  12.336
 9568POPC   D2A 9330  18.541  -1.550  12.370
 9568POPC   C3A 9331  18.658  -1.709  12.404
 9568POPC   C4A 9332  18.775  -1.868  12.438
 9568POPC   C1B 9333  18.323  -1.496  12.199
 9568POPC   C2B 9334  18.439  -1.655  12.233
 9568POPC   C3B 9335  18.556  -1.814  12.267
 9568POPC   C4B 9336  18.673  -1.972  12.301
 9569POPC   NC3 9337   3.970  22.481  11.069
 9569POPC   PO4 9338   3.884  22.661  11.084
 9569POPC   GL1 9339   3.798  22.841  11.099
 9569POPC   GL2 9340   3.866  22.878  11.035
 9569POPC   C1A 9341   3.712  23.021  11.113
 9569POPC   D2A 9342   3.627  23.201  11.128
 9569POPC   C3A 9343   3.541  23.381  11.142
 9569POPC   C4A 9344   3.455  23.561  11.157
 9569POPC   C1B 9345   3.833  23.066  11.266
 9569POPC   C2B 9346   3.747  23.246  11.281
 9569POPC   C3B 9347   3.661  23.426  11.296
 9569POPC   C4B 9348   3.575  23.606  11.310
 9570POPC   NC3 9349  11.169  15.850  -2.515
 9570POPC   PO4 9350  11.191  15.934  -2.695
 9570POPC   GL1 9351  11.213  16.018  -2.875
 9570POPC   GL2 9352  11.302  15.974  -2.885
 9570POPC   C1A 9353  11.234  16.102  -3.055
 9570POPC   D2A 9354  11.256  16.186  -3.236
 9570POPC   C3A 9355  11.277  16.270  -3.416
 9570POPC   C4A 9356  11.299  16.354  -3.596
 9570POPC   C1B 9357  11.322  16.261  -2.971
 9570POPC   C2B 9358  11.343  16.345  -3.151
 9570POPC   C3B 9359  11.365  16.429  -3.331
 9570POPC   C4B 9360  11.387  16.513  -3.512
 9571POPC   NC3 9361  20.314  19.150   9.741
 9571POPC   PO4 9362  20.468  19.277   9.738
 9571POPC   GL1 9363  20.622  19.404   9.735
 9571POPC   GL2 9364  20.578  19.456   9.661
 9571POPC   C1A 9365  20.776  19.531   9.732
 9571POPC   D2A 9366  20.931  19.659   9.728
 9571POPC   C3A 9367  21.085  19.786   9.725
 9571POPC   C4A 9368  21.239  19.913   9.722
 9571POPC   C1B 9369  20.868  19.417   9.596
 9571POPC   C2B 9370  21.022  19.544   9.593
 9571POPC   C3B 9371  21.177  19.671   9.589
 9571POPC   C4B 9372  21.331  19.798   9.586
 9572POPC   NC3 9373  -1.986   8.196   2.982
 9572POPC   PO4 9374  -2.158   8.171   2.883
 9572POPC   GL1 9375  -2.330   8.146   2.784
 9572POPC   GL2 9376  -2.328   8.048   2.805
 9572POPC   C1A 9377  -2.502   8.120   2.685
 9572POPC   D2A 9378  -2.674   8.095   2.586
 9572POPC   C3A 9379  -2.846   8.069   2.487
 9572POPC   C4A 9380  -3.018   8.044   2.388
 9572POPC   C1B 9381  -2.400   8.086   2.516
 9572POPC   C2B 9382  -2.572   8.061   2.417
 9572POPC   C3B 9383  -2.744   8.036   2.318
 9572POPC   C4B 9384  -2.916   8.010   2.219
 9573POPC   NC3 9385  13.043  10.130  -3.595
 9573POPC   PO4 9386  13.094  10.135  -3.788
 9573POPC   GL1 9387  13.145  10.140  -3.981
 9573POPC   GL2 9388  13.063  10.088  -4.004
 9573POPC   C1A 9389  13.196  10.145  -4.174
 9573POPC   D2A 9390  13.248  10.150  -4.368
 9573POPC   C3A 9391  13.299  10.155  -4.561
 9573POPC   C4A 9392  13.350  10.160  -4.754
 9573POPC   C1B 9393  13.299   9.975  -4.152
 9573POPC   C2B 9394  13.350   9.980  -4.345
 9573POPC   C3B 9395  13.401   9.985  -4.538
 9573POPC   C4B 9396  13.452   9.990  -4.731
 9574POPC   NC3 9397  19.383  15.175   1.246
 9574POPC   PO4 9398  19.519  15.249   1.120
 9574POPC   GL1 9399  19.655  15.323   0.994
 9574POPC   GL2 9400  19.667  15.233   0.953
 9574POPC   C1A 9401  19.791  15.398   0.867
 9574POPC   D2A 9402  19.927  15.472   0.741
 9574POPC   C3A 9403  20.063  15.547   0.614
 9574POPC   C4A 9404  20.199  15.621   0.488
 9574POPC   C1B 9405  19.936  15.357   0.999
 9574POPC   C2B 9406  20.072  15.431   0.873
 9574POPC   C3B 9407  20.208  15.506   0.746
 9574POPC   C4B 9408  20.344  15.580   0.620
 9575POPC   NC3 9409  -0.858  17.383   5.178
 9575POPC   PO4 9410  -1.015  17.484   5.107
 9575POPC   GL1 9411  -1.172  17.585   5.036
 9575POPC   GL2 9412  -1.203  17.602   5.129
 9575POPC   C1A 9413  -1.329  17.686   4.965
 9575POPC   D2A 9414  -1.487  17.788   4.893
 9575POPC   C3A 9415  -1.644  17.889   4.822
 9575POPC   C4A 9416  -1.801  17.990   4.751
 9575POPC   C1B 9417  -1.436  17.517   4.960
 9575POPC   C2B 9418  -1.593  17.619   4.889
 9575POPC   C3B 9419  -1.751  17.720   4.818
 9575POPC   C4B 9420  -1.908  17.821   4.747
 9576POPC   NC3 9421  -2.139   8.255   3.242
 9576POPC   PO4 9422  -2.314   8.231   3.147
 9576POPC   GL1 9423  -2.489   8.207   3.052
 9576POPC   GL2 9424  -2.500   8.118   3.097
 9576POPC   C1A 9425  -2.663   8.183   2.958
 9576POPC   D2A 9426  -2.838   8.158   2.863
 9576POPC   C3A 9427  -3.012   8.134   2.769
 9576POPC   C4A 9428  -3.187   8.110   2.674
 9576POPC   C1B 9429  -2.568   8.094   2.806
 9576POPC   C2B 9430  -2.743   8.070   2.711
 9576POPC   C3B 9431  -2.918   8.046   2.616
 9576POPC   C4B 9432  -3.092   8.021   2.522
 9577POPC   NC3 9433   2.633   3.519  19.739
 9577POPC   PO4 9434   2.523   3.432  19.882
 9577POPC   GL1 9435   2.413   3.345  20.025
 9577POPC   GL2 9436   2.496   3.327  20.078
 9577POPC   C1A 9437   2.303   3.258  20.168
 9577POPC   D2A 9438   2.193   3.172  20.310
 9577POPC   C3A 9439   2.083   3.085  20.453
 9577POPC   C4A 9440   1.973   2.998  20.596
 9577POPC   C1B 9441   2.323   3.082  20.076
 9577POPC   C2B 9442   2.213   2.995  20.219
 9577POPC   C3B 9443   2.103   2.908  20.361
 9577POPC   C4B 9444   1.993   2.821  20.504
 9578POPC   NC3 9445  17.302  21.586   9.886
 9578POPC   PO4 9446  17.405  21.758   9.884
 9578POPC   GL1 9447  17.508  21.930   9.882
 9578POPC   GL2 9448  17.567  21.895   9.955
 9578POPC   C1A 9449  17.611  22.101   9.880
 9578POPC   D2A 9450  17.713  22.273   9.878
 9578POPC   C3A 9451  17.816  22.444   9.876
 9578POPC   C4A 9452  17.919  22.616   9.874
 9578POPC   C1B 9453  17.486  22.177  10.017
 9578POPC   C2B 9454  17.589  22.349  10.015
 9578POPC   C3B 9455  17.692  22.520  10.013
 9578POPC   C4B 9456  17.795  22.692  10.011
 9579POPC   NC3 9457  14.231  21.350  16.496
 9579POPC   PO4 9458  14.295  21.514  16.590
 9579POPC   GL1 9459  14.359  21.678  16.684
 9579POPC   GL2 9460  14.397  21.621  16.758
 9579POPC   C1A 9461  14.424  21.842  16.779
 9579POPC   D2A 9462  14.488  22.006  16.873
 9579POPC   C3A 9463  14.553  22.170  16.968
 9579POPC   C4A 9464  14.617  22.334  17.062
 9579POPC   C1B 9465  14.250  21.854  16.877
 9579POPC   C2B 9466  14.314  22.018  16.971
 9579POPC   C3B 9467  14.379  22.182  17.065
 9579POPC   C4B 9468  14.443  22.346  17.160
 9580POPC   NC3 9469  20.754  18.139  12.394
 9580POPC   PO4 9470  20.908  18.261  12.432
 9580POPC   GL1 9471  21.062  18.383  12.470
 9580POPC   GL2 9472  21.030  18.446  12.400
 9580POPC   C1A 9473  21.216  18.505  12.509
 9580POPC   D2A 9474  21.370  18.626  12.547
 9580POPC   C3A 9475  21.524  18.748  12.586
 9580POPC   C4A 9476  21.678  18.870  12.624
 9580POPC   C1B 9477  21.326  18.409  12.372
 9580POPC   C2B 9478  21.480  18.530  12.411
 9580POPC   C3B 9479  21.634  18.652  12.449
 9580POPC   C4B 9480  21.788  18.774  12.487
 9581POPC   NC3 9481   7.982  13.427  -3.381
 9581POPC   PO4 9482   7.957  13.476  -3.573
 9581POPC   GL1 9483   7.932  13.525  -3.765
 9581POPC   GL2 9484   7.903  13.617  -3.738
 9581POPC   C1A 9485   7.908  13.575  -3.957
 9581POPC   D2A 9486   7.883  13.624  -4.150
 9581POPC   C3A 9487   7.859  13.674  -4.342
 9581POPC   C4A 9488   7.834  13.723  -4.534
 9581POPC   C1B 9489   7.718  13.511  -3.950
 9581POPC   C2B 9490   7.694  13.560  -4.142
 9581POPC   C3B 9491   7.669  13.610  -4.334
 9581POPC   C4B 9492   7.645  13.659  -4.526
 9582POPC   NC3 9493   0.159  19.057   5.984
 9582POPC   PO4 9494   0.028  19.196   5.925
 9582POPC   GL1 9495  -0.103  19.335   5.866
 9582POPC   GL2 9496  -0.157  19.319   5.948
 9582POPC   C1A 9497  -0.233  19.475   5.807
 9582POPC   D2A 9498  -0.364  19.614   5.748
 9582POPC   C3A 9499  -0.494  19.754   5.689
 9582POPC   C4A 9500  -0.625  19.893   5.630
 9582POPC   C1B 9501  -0.338  19.335   5.709
 9582POPC   C2B 9502  -0.469  19.475   5.650
 9582POPC   C3B 9503  -0.599  19.614   5.591
 9582POPC   C4B 9504  -0.730  19.753   5.532
 9583POPC   NC3 9505  11.941  10.908  -3.781
 9583POPC   PO4 9506  11.973  10.927  -3.977
 9583POPC   GL1 9507  12.005  10.946  -4.173
 9583POPC   GL2 9508  12.063  10.864  -4.172
 9583POPC   C1A 9509  12.037  10.965  -4.370
 9583POPC   D2A 9510  12.070  10.985  -4.566
 9583POPC   C3A 9511  12.102  11.004  -4.763
 9583POPC   C4A 9512  12.134  11.023  -4.959
 9583POPC   C1B 9513  12.198  11.078  -4.332
 9583POPC   C2B 9514  12.230  11.098  -4.529
 9583POPC   C3B 9515  12.262  11.117  -4.725
 9583POPC   C4B 9516  12.295  11.136  -4.922
 9584POPC   NC3 9517  17.793  18.156   2.145
 9584POPC   PO4 9518  17.909  18.281   2.040
 9584POPC   GL1 9519  18.025  18.406   1.935
 9584POPC   GL2 9520  18.004  18.355   1.852
 9584POPC   C1A 9521  18.141  18.531   1.831
 9584POPC   D2A 9522  18.256  18.656   1.726
 9584POPC   C3A 9523  18.372  18.781   1.622
 9584POPC   C4A 9524  18.488  18.906   1.517
 9584POPC   C1B 9525  18.298  18.412   1.864
 9584POPC   C2B 9526  18.414  18.537   1.759
 9584POPC   C3B 9527  18.530  18.662   1.654
 9584POPC   C4B 9528  18.646  18.787   1.550
 9585POPC   NC3 9529   9.243  22.828   4.642
 9585POPC   PO4 9530   9.237  23.013   4.567
 9585POPC   GL1 9531   9.231  23.198   4.492
 9585POPC   GL2 9532   9.321  23.217   4.531
 9585POPC   C1A 9533   9.224  23.383   4.417
 9585POPC   D2A 9534   9.218  23.569   4.342
 9585POPC   C3A 9535   9.211  23.754   4.267
 9585POPC   C4A 9536   9.205  23.939   4.192
 9585POPC   C1B 9537   9.137  23.448   4.585
 9585POPC   C2B 9538   9.131  23.634   4.510
 9585POPC   C3B 9539   9.125  23.819   4.435
 9585POPC   C4B 9540   9.118  24.004   4.360
 9586POPC   NC3 9541   2.219  17.300   0.899
 9586POPC   PO4 9542   2.108  17.404   0.769
 9586POPC   GL1 9543   1.997  17.508   0.639
 9586POPC   GL2 9544   2.080  17.549   0.601
 9586POPC   C1A 9545   1.886  17.612   0.510
 9586POPC   D2A 9546   1.775  17.717   0.380
 9586POPC   C3A 9547   1.664  17.821   0.251
 9586POPC   C4A 9548   1.553  17.925   0.121
 9586POPC   C1B 9549   1.873  17.762   0.641
 9586POPC   C2B 9550   1.762  17.867   0.512
 9586POPC   C3B 9551   1.651  17.971   0.382
 9586POPC   C4B 9552   1.540  18.075   0.253
 9587POPC   NC3 9553   8.185   7.659  23.465
 9587POPC   PO4 9554   8.159   7.624  23.660
 9587POPC   GL1 9555   8.133   7.589  23.855
 9587POPC   GL2 9556   8.232   7.586  23.868
 9587POPC   C1A 9557   8.107   7.554  24.050
 9587POPC   D2A 9558   8.082   7.518  24.246
 9587POPC   C3A 9559   8.056   7.483  24.441
 9587POPC   C4A 9560   8.030   7.448  24.636
 9587POPC   C1B 9561   8.106   7.357  24.015
 9587POPC   C2B 9562   8.080   7.322  24.210
 9587POPC   C3B 9563   8.054   7.286  24.405
 9587POPC   C4B 9564   8.028   7.251  24.600
 9588POPC   NC3 9565  -0.540  13.956   1.548
 9588POPC   PO4 9566  -0.687  14.016   1.427
 9588POPC   GL1 9567  -0.834  14.076   1.306
 9588POPC   GL2 9568  -0.790  14.164   1.295
 9588POPC   C1A 9569  -0.982  14.135   1.184
 9588POPC   D2A 9570  -1.129  14.195   1.063
 9588POPC   C3A 9571  -1.277  14.254   0.941
 9588POPC   C4A 9572  -1.424  14.314   0.820
 9588POPC   C1B 9573  -1.083  14.205   1.342
 9588POPC   C2B 9574  -1.231  14.264   1.220
 9588POPC   C3B 9575  -1.378  14.324   1.099
 9588POPC   C4B 9576  -1.526  14.383   0.978
 9589POPC   NC3 9577  11.268  16.535  22.042
 9589POPC   PO4 9578  11.294  16.624  22.219
 9589POPC   GL1 9579  11.320  16.713  22.396
 9589POPC   GL2 9580  11.419  16.701  22.387
 9589POPC   C1A 9581  11.347  16.802  22.573
 9589POPC   D2A 9582  11.373  16.891  22.751
 9589POPC   C3A 9583  11.400  16.980  22.928
 9589POPC   C4A 9584  11.426  17.069  23.105
 9589POPC   C1B 9585  11.333  16.624  22.665
 9589POPC   C2B 9586  11.360  16.713  22.842
 9589POPC   C3B 9587  11.386  16.802  23.019
 9589POPC   C4B 9588  11.412  16.891  23.196
 9590POPC   NC3 9589  12.712  10.523  -3.659
 9590POPC   PO4 9590  12.758  10.535  -3.853
 9590POPC   GL1 9591  12.804  10.547  -4.047
 9590POPC   GL2 9592  12.732  10.480  -4.068
 9590POPC   C1A 9593  12.849  10.560  -4.242
 9590POPC   D2A 9594  12.895  10.572  -4.436
 9590POPC   C3A 9595  12.940  10.585  -4.631
 9590POPC   C4A 9596  12.986  10.597  -4.825
 9590POPC   C1B 9597  12.982  10.412  -4.220
 9590POPC   C2B 9598  13.028  10.424  -4.415
 9590POPC   C3B 9599  13.073  10.437  -4.609
 9590POPC   C4B 9600  13.119  10.449  -4.803
 9591POPC   NC3 9601  -3.558  12.184  12.774
 9591POPC   PO4 9602  -3.751  12.213  12.818
 9591POPC   GL1 9603  -3.944  12.242  12.862
 9591POPC   GL2 9604  -3.919  12.266  12.956
 9591POPC   C1A 9605  -4.137  12.271  12.905
 9591POPC   D2A 9606  -4.330  12.301  12.949
 9591POPC   C3A 9607  -4.523  12.330  12.992
 9591POPC   C4A 9608  -4.716  12.359  13.036
 9591POPC   C1B 9609  -4.154  12.079  12.958
 9591POPC   C2B 9610  -4.347  12.109  13.002
 9591POPC   C3B 9611  -4.540  12.138  13.046
 9591POPC   C4B 9612  -4.733  12.167  13.089
 9592POPC   NC3 9613   9.217  -2.661  15.609
 9592POPC   PO4 9614   9.204  -2.843  15.690
 9592POPC   GL1 9615   9.191  -3.025  15.771
 9592POPC   GL2 9616   9.283  -3.015  15.809
 9592POPC   C1A 9617   9.178  -3.208  15.852
 9592POPC   D2A 9618   9.166  -3.390  15.933
 9592POPC   C3A 9619   9.153  -3.573  16.014
 9592POPC   C4A 9620   9.140  -3.755  16.095
 9592POPC   C1B 9621   9.257  -3.287  15.686
 9592POPC   C2B 9622   9.244  -3.469  15.767
 9592POPC   C3B 9623   9.231  -3.652  15.848
 9592POPC   C4B 9624   9.218  -3.834  15.929
 9593POPC   NC3 9625  -1.714   5.162  15.974
 9593POPC   PO4 9626  -1.880   5.086  16.056
 9593POPC   GL1 9627  -2.046   5.010  16.138
 9593POPC   GL2 9628  -2.018   4.918  16.109
 9593POPC   C1A 9629  -2.212   4.934  16.220
 9593POPC   D2A 9630  -2.377   4.857  16.301
 9593POPC   C3A 9631  -2.543   4.781  16.383
 9593POPC   C4A 9632  -2.709   4.705  16.465
 9593POPC   C1B 9633  -2.309   4.959  16.047
 9593POPC   C2B 9634  -2.474   4.883  16.128
 9593POPC   C3B 9635  -2.640   4.807  16.210
 9593POPC   C4B 9636  -2.806   4.730  16.292
 9594POPC   NC3 9637  17.105   0.440   2.965
 9594POPC   PO4 9638  17.209   0.302   2.865
 9594POPC   GL1 9639  17.313   0.164   2.765
 9594POPC   GL2 9640  17.251   0.173   2.687
 9594POPC   C1A 9641  17.417   0.025   2.665
 9594POPC   D2A 9642  17.522  -0.113   2.566
 9594POPC   C3A 9643  17.626  -0.252   2.466
 9594POPC   C4A 9644  17.730  -0.390   2.366
 9594POPC   C1B 9645  17.300  -0.118   2.741
 9594POPC   C2B 9646  17.404  -0.256   2.641
 9594POPC   C3B 9647  17.508  -0.395   2.541
 9594POPC   C4B 9648  17.612  -0.533   2.442
 9595POPC   NC3 9649  13.130  20.142   0.985
 9595POPC   PO4 9650  13.176  20.288   0.857
 9595POPC   GL1 9651  13.222  20.434   0.729
 9595POPC   GL2 9652  13.271  20.369   0.671
 9595POPC   C1A 9653  13.268  20.580   0.600
 9595POPC   D2A 9654  13.314  20.727   0.472
 9595POPC   C3A 9655  13.360  20.873   0.343
 9595POPC   C4A 9656  13.406  21.019   0.215
 9595POPC   C1B 9657  13.436  20.617   0.702
 9595POPC   C2B 9658  13.482  20.764   0.574
 9595POPC   C3B 9659  13.528  20.910   0.446
 9595POPC   C4B 9660  13.574  21.056   0.317
 9596POPC   NC3 9661  22.670  12.716  14.303
 9596POPC   PO4 9662  22.857  12.756  14.363
 9596POPC   GL1 9663  23.044  12.796  14.423
 9596POPC   GL2 9664  23.065  12.832  14.332
 9596POPC   C1A 9665  23.230  12.835  14.483
 9596POPC   D2A 9666  23.417  12.875  14.542
 9596POPC   C3A 9667  23.603  12.914  14.602
 9596POPC   C4A 9668  23.790  12.954  14.662
 9596POPC   C1B 9669  23.288  12.653  14.423
 9596POPC   C2B 9670  23.475  12.693  14.482
 9596POPC   C3B 9671  23.661  12.733  14.542
 9596POPC   C4B 9672  23.848  12.772  14.602
 9597POPC   NC3 9673  12.900  22.828  14.150
 9597POPC   PO4 9674  12.942  23.014  14.209
 9597POPC   GL1 9675  12.984  23.200  14.268
 9597POPC   GL2 9676  13.076  23.192  14.230
 9597POPC   C1A 9677  13.026  23.387  14.327
 9597POPC   D2A 9678  13.069  23.573  14.385
 9597POPC   C3A 9679  13.111  23.760  14.444
 9597POPC   C4A 9680  13.153  23.946  14.503
 9597POPC   C1B 9681  13.093  23.317  14.502
 9597POPC   C2B 9682  13.135  23.503  14.561
 9597POPC   C3B 9683  13.177  23.689  14.619
 9597POPC   C4B 9684  13.219  23.876  14.678
 9598POPC   NC3 9685   6.871  20.947   2.105
 9598POPC   PO4 9686   6.830  21.104   1.989
 9598POPC   GL1 9687   6.789  21.261   1.873
 9598POPC   GL2 9688   6.816  21.323   1.946
 9598POPC   C1A 9689   6.747  21.419   1.756
 9598POPC   D2A 9690   6.706  21.576   1.640
 9598POPC   C3A 9691   6.664  21.734   1.523
 9598POPC   C4A 9692   6.623  21.891   1.407
 9598POPC   C1B 9693   6.560  21.421   1.826
 9598POPC   C2B 9694   6.518  21.578   1.709
 9598POPC   C3B 9695   6.477  21.736   1.593
 9598POPC   C4B 9696   6.435  21.893   1.477
 9599POPC   NC3 9697  -0.716  18.811   7.980
 9599POPC   PO4 9698  -0.863  18.943   7.953
 9599POPC   GL1 9699  -1.010  19.075   7.926
 9599POPC   GL2 9700  -1.025  19.080   8.025
 9599POPC   C1A 9701  -1.158  19.208   7.899
 9599POPC   D2A 9702  -1.305  19.340   7.872
 9599POPC   C3A 9703  -1.453  19.473   7.845
 9599POPC   C4A 9704  -1.600  19.605   7.818
 9599POPC   C1B 9705  -1.290  19.058   7.886
 9599POPC   C2B 9706  -1.437  19.190   7.859
 9599POPC   C3B 9707  -1.585  19.323   7.832
 9599POPC   C4B 9708  -1.732  19.455   7.805
 9600POPC   NC3 9709   2.752   1.906  18.642
 9600POPC   PO4 9710   2.646   1.794  18.770
 9600POPC   GL1 9711   2.540   1.682  18.898
 9600POPC   GL2 9712   2.612   1.693  18.966
 9600POPC   C1A 9713   2.434   1.570  19.025
 9600POPC   D2A 9714   2.329   1.459  19.153
 9600POPC   C3A 9715   2.223   1.347  19.280
 9600POPC   C4A 9716   2.117   1.235  19.408
 9600POPC   C1B 9717   2.525   1.406  18.956
 9600POPC   C2B 9718   2.419   1.294  19.084
 9600POPC   C3B 9719   2.313   1.182  19.211
 9600POPC   C4B 9720   2.207   1.071  19.339
 9601POPC   NC3 9721   3.304  21.616   6.563
 9601POPC   PO4 9722   3.203  21.782   6.516
 9601POPC   GL1 9723   3.102  21.948   6.469
 9601POPC   GL2 9724   3.188  21.997   6.457
 9601POPC   C1A 9725   3.001  22.114   6.422
 9601POPC   D2A 9726   2.900  22.281   6.376
 9601POPC   C3A 9727   2.799  22.447   6.329
 9601POPC   C4A 9728   2.698  22.613   6.282
 9601POPC   C1B 9729   2.999  22.167   6.615
 9601POPC   C2B 9730   2.898  22.334   6.568
 9601POPC   C3B 9731   2.797  22.500   6.522
 9601POPC   C4B 9732   2.696  22.666   6.475
 9602POPC   NC3 9733  12.357   8.681  -3.688
 9602POPC   PO4 9734  12.393   8.660  -3.884
 9602POPC   GL1 9735  12.429   8.639  -4.080
 9602POPC   GL2 9736  12.478   8.726  -4.080
 9602POPC   C1A 9737  12.465   8.618  -4.275
 9602POPC   D2A 9738  12.500   8.598  -4.471
 9602POPC   C3A 9739  12.536   8.577  -4.666
 9602POPC   C4A 9740  12.572   8.556  -4.862
 9602POPC   C1B 9741  12.294   8.715  -4.317
 9602POPC   C2B 9742  12.330   8.694  -4.512
 9602POPC   C3B 9743  12.366   8.673  -4.708
 9602POPC   C4B 9744  12.402   8.653  -4.903
 9603POPC   NC3 9745  16.855   3.475  -0.109
 9603POPC   PO4 9746  16.966   3.385  -0.249
 9603POPC   GL1 9747  17.077   3.295  -0.389
 9603POPC   GL2 9748  17.062   3.373  -0.450
 9603POPC   C1A 9749  17.188   3.206  -0.529
 9603POPC   D2A 9750  17.299   3.116  -0.670
 9603POPC   C3A 9751  17.410   3.027  -0.810
 9603POPC   C4A 9752  17.521   2.937  -0.950
 9603POPC   C1B 9753  17.024   3.117  -0.603
 9603POPC   C2B 9754  17.135   3.028  -0.743
 9603POPC   C3B 9755  17.246   2.938  -0.883
 9603POPC   C4B 9756  17.357   2.849  -1.023
 9604POPC   NC3 9757   7.560  23.671  10.088
 9604POPC   PO4 9758   7.533  23.869  10.088
 9604POPC   GL1 9759   7.506  24.067  10.088
 9604POPC   GL2 9760   7.534  24.071  10.184
 9604POPC   C1A 9761   7.478  24.265  10.088
 9604POPC   D2A 9762   7.451  24.464  10.089
 9604POPC   C3A 9763   7.423  24.662  10.089
 9604POPC   C4A 9764   7.396  24.860  10.089
 9604POPC   C1B 9765   7.288  24.239  10.145
 9604POPC   C2B 9766   7.261  24.437  10.145
 9604POPC   C3B 9767   7.233  24.635  10.145
 9604POPC   C4B 9768   7.206  24.834  10.145
 9605POPC   NC3 9769  17.552  21.429   9.637
 9605POPC   PO4 9770  17.657  21.599   9.632
 9605POPC   GL1 9771  17.762  21.769   9.627
 9605POPC   GL2 9772  17.809  21.742   9.711
 9605POPC   C1A 9773  17.868  21.939   9.623
 9605POPC   D2A 9774  17.973  22.109   9.618
 9605POPC   C3A 9775  18.079  22.279   9.614
 9605POPC   C4A 9776  18.184  22.449   9.609
 9605POPC   C1B 9777  17.726  22.030   9.731
 9605POPC   C2B 9778  17.831  22.200   9.726
 9605POPC   C3B 9779  17.937  22.370   9.722
 9605POPC   C4B 9780  18.042  22.540   9.717
 9606POPC   NC3 9781  20.352   8.024   1.075
 9606POPC   PO4 9782  20.506   8.005   0.949
 9606POPC   GL1 9783  20.660   7.986   0.823
 9606POPC   GL2 9784  20.599   8.007   0.746
 9606POPC   C1A 9785  20.814   7.968   0.696
 9606POPC   D2A 9786  20.968   7.949   0.570
 9606POPC   C3A 9787  21.122   7.931   0.443
 9606POPC   C4A 9788  21.276   7.912   0.317
 9606POPC   C1B 9789  20.774   7.773   0.676
 9606POPC   C2B 9790  20.928   7.754   0.549
 9606POPC   C3B 9791  21.082   7.736   0.423
 9606POPC   C4B 9792  21.236   7.717   0.297
 9607POPC   NC3 9793   8.339  -3.432   6.839
 9607POPC   PO4 9794   8.317  -3.626   6.795
 9607POPC   GL1 9795   8.295  -3.820   6.751
 9607POPC   GL2 9796   8.393  -3.828   6.738
 9607POPC   C1A 9797   8.272  -4.014   6.708
 9607POPC   D2A 9798   8.250  -4.207   6.664
 9607POPC   C3A 9799   8.227  -4.401   6.621
 9607POPC   C4A 9800   8.205  -4.595   6.577
 9607POPC   C1B 9801   8.249  -3.967   6.515
 9607POPC   C2B 9802   8.227  -4.161   6.471
 9607POPC   C3B 9803   8.204  -4.355   6.427
 9607POPC   C4B 9804   8.182  -4.549   6.384
 9608POPC   NC3 9805   0.334  18.617  15.116
 9608POPC   PO4 9806   0.196  18.741  15.191
 9608POPC   GL1 9807   0.058  18.865  15.266
 9608POPC   GL2 9808   0.128  18.935  15.279
 9608POPC   C1A 9809  -0.080  18.989  15.340
 9608POPC   D2A 9810  -0.218  19.113  15.415
 9608POPC   C3A 9811  -0.356  19.237  15.489
 9608POPC   C4A 9812  -0.494  19.361  15.564
 9608POPC   C1B 9813  -0.045  18.918  15.524
 9608POPC   C2B 9814  -0.183  19.042  15.598
 9608POPC   C3B 9815  -0.321  19.166  15.673
 9608POPC   C4B 9816  -0.459  19.290  15.748
 9609POPC   NC3 9817  -2.715   9.084   4.257
 9609POPC   PO4 9818  -2.898   9.071   4.178
 9609POPC   GL1 9819  -3.081   9.058   4.099
 9609POPC   GL2 9820  -3.102   8.981   4.159
 9609POPC   C1A 9821  -3.264   9.046   4.020
 9609POPC   D2A 9822  -3.448   9.033   3.940
 9609POPC   C3A 9823  -3.631   9.021   3.861
 9609POPC   C4A 9824  -3.814   9.008   3.782
 9609POPC   C1B 9825  -3.196   8.919   3.881
 9609POPC   C2B 9826  -3.379   8.906   3.802
 9609POPC   C3B 9827  -3.562   8.894   3.723
 9609POPC   C4B 9828  -3.745   8.881   3.643
 9610POPC   NC3 9829  17.885   3.641   0.667
 9610POPC   PO4 9830  18.006   3.552   0.535
 9610POPC   GL1 9831  18.127   3.463   0.403
 9610POPC   GL2 9832  18.203   3.521   0.434
 9610POPC   C1A 9833  18.249   3.374   0.271
 9610POPC   D2A 9834  18.370   3.285   0.140
 9610POPC   C3A 9835  18.492   3.196   0.008
 9610POPC   C4A 9836  18.613   3.107  -0.124
 9610POPC   C1B 9837  18.199   3.510   0.134
 9610POPC   C2B 9838  18.321   3.421   0.002
 9610POPC   C3B 9839  18.442   3.332  -0.130
 9610POPC   C4B 9840  18.564   3.243  -0.262
 9611POPC   NC3 9841   7.634  -3.171  13.756
 9611POPC   PO4 9842   7.599  -3.360  13.812
 9611POPC   GL1 9843   7.564  -3.549  13.868
 9611POPC   GL2 9844   7.657  -3.574  13.839
 9611POPC   C1A 9845   7.529  -3.738  13.924
 9611POPC   D2A 9846   7.495  -3.926  13.979
 9611POPC   C3A 9847   7.460  -4.115  14.035
 9611POPC   C4A 9848   7.425  -4.304  14.091
 9611POPC   C1B 9849   7.461  -3.779  13.740
 9611POPC   C2B 9850   7.427  -3.968  13.796
 9611POPC   C3B 9851   7.392  -4.157  13.852
 9611POPC   C4B 9852   7.357  -4.346  13.908
 9612POPC   NC3 9853  14.630  -2.497  13.530
 9612POPC   PO4 9854  14.699  -2.677  13.583
 9612POPC   GL1 9855  14.768  -2.857  13.636
 9612POPC   GL2 9856  14.844  -2.814  13.684
 9612POPC   C1A 9857  14.836  -3.037  13.689
 9612POPC   D2A 9858  14.905  -3.218  13.742
 9612POPC   C3A 9859  14.973  -3.398  13.795
 9612POPC   C4A 9860  15.042  -3.578  13.848
 9612POPC   C1B 9861  14.946  -3.045  13.522
 9612POPC   C2B 9862  15.015  -3.225  13.575
 9612POPC   C3B 9863  15.083  -3.405  13.628
 9612POPC   C4B 9864  15.152  -3.585  13.681
 9613POPC   NC3 9865  23.621  10.604  10.064
 9613POPC   PO4 9866  23.821  10.610  10.068
 9613POPC   GL1 9867  24.021  10.616  10.072
 9613POPC   GL2 9868  24.020  10.696  10.012
 9613POPC   C1A 9869  24.221  10.622  10.075
 9613POPC   D2A 9870  24.420  10.628  10.079
 9613POPC   C3A 9871  24.620  10.634  10.082
 9613POPC   C4A 9872  24.820  10.640  10.086
 9613POPC   C1B 9873  24.227  10.502   9.915
 9613POPC   C2B 9874  24.427  10.508   9.919
 9613POPC   C3B 9875  24.627  10.514   9.923
 9613POPC   C4B 9876  24.826  10.520   9.926
 9614POPC   NC3 9877  16.141   8.753  -2.284
 9614POPC   PO4 9878  16.230   8.731  -2.462
 9614POPC   GL1 9879  16.319   8.709  -2.640
 9614POPC   GL2 9880  16.261   8.781  -2.678
 9614POPC   C1A 9881  16.408   8.687  -2.818
 9614POPC   D2A 9882  16.497   8.666  -2.995
 9614POPC   C3A 9883  16.586   8.644  -3.173
 9614POPC   C4A 9884  16.675   8.622  -3.351
 9614POPC   C1B 9885  16.272   8.550  -2.869
 9614POPC   C2B 9886  16.361   8.529  -3.047
 9614POPC   C3B 9887  16.450   8.507  -3.225
 9614POPC   C4B 9888  16.539   8.485  -3.402
 9615POPC   NC3 9889   6.602  23.244  12.480
 9615POPC   PO4 9890   6.551  23.433  12.520
 9615POPC   GL1 9891   6.500  23.622  12.560
 9615POPC   GL2 9892   6.559  23.621  12.641
 9615POPC   C1A 9893   6.450  23.811  12.600
 9615POPC   D2A 9894   6.399  24.001  12.640
 9615POPC   C3A 9895   6.349  24.190  12.680
 9615POPC   C4A 9896   6.298  24.379  12.720
 9615POPC   C1B 9897   6.296  23.747  12.710
 9615POPC   C2B 9898   6.245  23.936  12.750
 9615POPC   C3B 9899   6.195  24.125  12.790
 9615POPC   C4B 9900   6.144  24.315  12.830
 9616POPC   NC3 9901  23.179  13.692   8.819
 9616POPC   PO4 9902  23.369  13.751   8.803
 9616POPC   GL1 9903  23.559  13.810   8.787
 9616POPC   GL2 9904  23.557  13.791   8.689
 9616POPC   C1A 9905  23.750  13.870   8.771
 9616POPC   D2A 9906  23.940  13.929   8.755
 9616POPC   C3A 9907  24.131  13.989   8.739
 9616POPC   C4A 9908  24.321  14.048   8.723
 9616POPC   C1B 9909  23.811  13.683   8.807
 9616POPC   C2B 9910  24.002  13.742   8.791
 9616POPC   C3B 9911  24.192  13.802   8.775
 9616POPC   C4B 9912  24.382  13.861   8.759
 9617POPC   NC3 9913  22.412   4.106   9.677
 9617POPC   PO4 9914  22.592   4.018   9.669
 9617POPC   GL1 9915  22.772   3.930   9.661
 9617POPC   GL2 9916  22.805   4.004   9.602
 9617POPC   C1A 9917  22.951   3.842   9.653
 9617POPC   D2A 9918  23.131   3.755   9.645
 9617POPC   C3A 9919  23.310   3.667   9.637
 9617POPC   C4A 9920  23.490   3.579   9.629
 9617POPC   C1B 9921  22.893   3.739   9.492
 9617POPC   C2B 9922  23.073   3.651   9.484
 9617POPC   C3B 9923  23.253   3.564   9.476
 9617POPC   C4B 9924  23.432   3.476   9.468
 9618POPC   NC3 9925  -1.014  16.644   4.577
 9618POPC   PO4 9926  -1.176  16.732   4.499
 9618POPC   GL1 9927  -1.338  16.820   4.421
 9618POPC   GL2 9928  -1.363  16.853   4.512
 9618POPC   C1A 9929  -1.500  16.908   4.343
 9618POPC   D2A 9930  -1.661  16.997   4.266
 9618POPC   C3A 9931  -1.823  17.085   4.188
 9618POPC   C4A 9932  -1.985  17.173   4.110
 9618POPC   C1B 9933  -1.605  16.742   4.374
 9618POPC   C2B 9934  -1.767  16.830   4.297
 9618POPC   C3B 9935  -1.929  16.918   4.219
 9618POPC   C4B 9936  -2.091  17.006   4.141
 9619POPC   NC3 9937   2.210  20.097  15.539
 9619POPC   PO4 9938   2.102  20.247  15.616
 9619POPC   GL1 9939   1.994  20.397  15.693
 9619POPC   GL2 9940   2.054  20.399  15.773
 9619POPC   C1A 9941   1.885  20.546  15.770
 9619POPC   D2A 9942   1.777  20.696  15.846
 9619POPC   C3A 9943   1.668  20.845  15.923
 9619POPC   C4A 9944   1.560  20.995  16.000
 9619POPC   C1B 9945   1.767  20.413  15.862
 9619POPC   C2B 9946   1.659  20.563  15.939
 9619POPC   C3B 9947   1.551  20.713  16.015
 9619POPC   C4B 9948   1.442  20.862  16.092
 9620POPC   NC3 9949  14.883  17.221  -0.780
 9620POPC   PO4 9950  14.955  17.322  -0.937
 9620POPC   GL1 9951  15.027  17.423  -1.094
 9620POPC   GL2 9952  15.042  17.337  -1.142
 9620POPC   C1A 9953  15.100  17.524  -1.251
 9620POPC   D2A 9954  15.172  17.624  -1.407
 9620POPC   C3A 9955  15.245  17.725  -1.564
 9620POPC   C4A 9956  15.317  17.826  -1.721
 9620POPC   C1B 9957  15.284  17.512  -1.173
 9620POPC   C2B 9958  15.356  17.613  -1.330
 9620POPC   C3B 9959  15.429  17.714  -1.487
 9620POPC   C4B 9960  15.501  17.814  -1.644
 9621POPC   NC3 9961  11.055   4.655  -2.779
 9621POPC   PO4 9962  11.069   4.582  -2.965
 9621POPC   GL1 9963  11.083   4.509  -3.151
 9621POPC   GL2 9964  11.143   4.584  -3.176
 9621POPC   C1A 9965  11.096   4.436  -3.336
 9621POPC   D2A 9966  11.110   4.362  -3.522
 9621POPC   C3A 9967  11.123   4.289  -3.707
 9621POPC   C4A 9968  11.137   4.216  -3.893
 9621POPC   C1B 9969  10.938   4.545  -3.391
 9621POPC   C2B 9970  10.951   4.471  -3.576
 9621POPC   C3B 9971  10.965   4.398  -3.762
 9621POPC   C4B 9972  10.978   4.325  -3.948
 9622POPC   NC3 9973   7.087  -0.469   1.286
 9622POPC   PO4 9974   7.048  -0.619   1.160
 9622POPC   GL1 9975   7.009  -0.769   1.034
 9622POPC   GL2 9976   7.092  -0.748   0.983
 9622POPC   C1A 9977   6.970  -0.919   0.908
 9622POPC   D2A 9978   6.931  -1.070   0.781
 9622POPC   C3A 9979   6.892  -1.220   0.655
 9622POPC   C4A 9980   6.853  -1.370   0.529
 9622POPC   C1B 9981   6.866  -0.794   0.791
 9622POPC   C2B 9982   6.827  -0.945   0.665
 9622POPC   C3B 9983   6.788  -1.095   0.539
 9622POPC   C4B 9984   6.749  -1.245   0.412
 9623POPC   NC3 9985   9.591   2.348  -1.627
 9623POPC   PO4 9986   9.594   2.241  -1.796
 9623POPC   GL1 9987   9.597   2.134  -1.965
 9623POPC   GL2 9988   9.691   2.164  -1.982
 9623POPC   C1A 9989   9.600   2.027  -2.134
 9623POPC   D2A 9990   9.603   1.919  -2.302
 9623POPC   C3A 9991   9.606   1.812  -2.471
 9623POPC   C4A 9992   9.609   1.705  -2.640
 9623POPC   C1B 9993   9.530   2.184  -2.235
 9623POPC   C2B 9994   9.533   2.077  -2.404
 9623POPC   C3B 9995   9.536   1.970  -2.573
 9623POPC   C4B 9996   9.539   1.863  -2.741
 9624POPC   NC3 9997   9.381  -1.343   1.990
 9624POPC   PO4 9998   9.372  -1.507   1.876
 9624POPC   GL1 9999   9.363  -1.671   1.762
 9624POPC   GL210000   9.431  -1.715   1.821
 9624POPC   C1A10001   9.355  -1.835   1.648
 9624POPC   D2A10002   9.346  -2.000   1.535
 9624POPC   C3A10003   9.338  -2.164   1.421
 9624POPC   C4A10004   9.329  -2.328   1.307
 9624POPC   C1B10005   9.501  -1.763   1.533
 9624POPC   C2B10006   9.493  -1.927   1.419
 9624POPC   C3B10007   9.484  -2.092   1.305
 9624POPC   C4B10008   9.475  -2.256   1.192
 9625POPC   NC310009   9.524  12.868  23.470
 9625POPC   PO410010   9.516  12.910  23.665
 9625POPC   GL110011   9.508  12.952  23.860
 9625POPC   GL210012   9.566  12.873  23.880
 9625POPC   C1A10013   9.500  12.994  24.056
 9625POPC   D2A10014   9.492  13.036  24.251
 9625POPC   C3A10015   9.484  13.078  24.447
 9625POPC   C4A10016   9.476  13.120  24.642
 9625POPC   C1B10017   9.337  12.879  24.074
 9625POPC   C2B10018   9.329  12.921  24.269
 9625POPC   C3B10019   9.321  12.963  24.465
 9625POPC   C4B10020   9.313  13.005  24.660
 9626POPC   NC310021  -0.988  13.585   1.955
 9626POPC   PO410022  -1.145  13.640   1.844
 9626POPC   GL110023  -1.302  13.695   1.733
 9626POPC   GL210024  -1.257  13.781   1.712
 9626POPC   C1A10025  -1.459  13.750   1.623
 9626POPC   D2A10026  -1.617  13.804   1.512
 9626POPC   C3A10027  -1.774  13.859   1.402
 9626POPC   C4A10028  -1.931  13.914   1.291
 9626POPC   C1B10029  -1.543  13.834   1.784
 9626POPC   C2B10030  -1.701  13.889   1.673
 9626POPC   C3B10031  -1.858  13.943   1.562
 9626POPC   C4B10032  -2.015  13.998   1.452
 9627POPC   NC310033   0.244  10.987  19.841
 9627POPC   PO410034   0.102  10.999  19.981
 9627POPC   GL110035  -0.040  11.011  20.121
 9627POPC   GL210036   0.009  10.944  20.177
 9627POPC   C1A10037  -0.182  11.024  20.262
 9627POPC   D2A10038  -0.324  11.036  20.402
 9627POPC   C3A10039  -0.466  11.049  20.543
 9627POPC   C4A10040  -0.608  11.061  20.683
 9627POPC   C1B10041  -0.284  10.877  20.172
 9627POPC   C2B10042  -0.426  10.890  20.312
 9627POPC   C3B10043  -0.568  10.902  20.452
 9627POPC   C4B10044  -0.710  10.914  20.593
 9628POPC   NC310045   5.130   5.126  22.045
 9628POPC   PO410046   5.068   5.058  22.223
 9628POPC   GL110047   5.006   4.990  22.401
 9628POPC   GL210048   5.016   4.896  22.368
 9628POPC   C1A10049   4.944   4.922  22.578
 9628POPC   D2A10050   4.882   4.853  22.756
 9628POPC   C3A10051   4.820   4.785  22.933
 9628POPC   C4A10052   4.758   4.717  23.111
 9628POPC   C1B10053   4.755   4.923  22.513
 9628POPC   C2B10054   4.693   4.855  22.691
 9628POPC   C3B10055   4.631   4.787  22.868
 9628POPC   C4B10056   4.569   4.719  23.046
 9629POPC   NC310057   8.872  16.286  22.287
 9629POPC   PO410058   8.859  16.375  22.466
 9629POPC   GL110059   8.846  16.464  22.645
 9629POPC   GL210060   8.931  16.514  22.626
 9629POPC   C1A10061   8.834  16.553  22.824
 9629POPC   D2A10062   8.821  16.641  23.002
 9629POPC   C3A10063   8.809  16.730  23.181
 9629POPC   C4A10064   8.796  16.819  23.360
 9629POPC   C1B10065   8.941  16.405  22.905
 9629POPC   C2B10066   8.929  16.493  23.084
 9629POPC   C3B10067   8.916  16.582  23.262
 9629POPC   C4B10068   8.903  16.671  23.441
 9630POPC   NC310069  -3.267   7.981   5.970
 9630POPC   PO410070  -3.457   7.962   5.910
 9630POPC   GL110071  -3.647   7.943   5.850
 9630POPC   GL210072  -3.661   7.871   5.918
 9630POPC   C1A10073  -3.837   7.924   5.790
 9630POPC   D2A10074  -4.026   7.904   5.729
 9630POPC   C3A10075  -4.216   7.885   5.669
 9630POPC   C4A10076  -4.406   7.866   5.609
 9630POPC   C1B10077  -3.780   7.785   5.656
 9630POPC   C2B10078  -3.970   7.766   5.596
 9630POPC   C3B10079  -4.160   7.747   5.536
 9630POPC   C4B10080  -4.350   7.728   5.476
 9631POPC   NC310081  12.216  16.676  21.798
 9631POPC   PO410082  12.252  16.769  21.971
 9631POPC   GL110083  12.288  16.862  22.144
 9631POPC   GL210084  12.385  16.871  22.119
 9631POPC   C1A10085  12.324  16.955  22.318
 9631POPC   D2A10086  12.361  17.047  22.491
 9631POPC   C3A10087  12.397  17.140  22.665
 9631POPC   C4A10088  12.433  17.233  22.838
 9631POPC   C1B10089  12.363  16.778  22.404
 9631POPC   C2B10090  12.400  16.871  22.577
 9631POPC   C3B10091  12.436  16.964  22.751
 9631POPC   C4B10092  12.472  17.057  22.924
 9632POPC   NC310093  -3.020  10.860  15.006
 9632POPC   PO410094  -3.208  10.863  15.075
 9632POPC   GL110095  -3.396  10.866  15.144
 9632POPC   GL210096  -3.383  10.775  15.183
 9632POPC   C1A10097  -3.583  10.870  15.214
 9632POPC   D2A10098  -3.771  10.873  15.283
 9632POPC   C3A10099  -3.958  10.877  15.353
 9632POPC   C4A10100  -4.146  10.880  15.422
 9632POPC   C1B10101  -3.648  10.788  15.043
 9632POPC   C2B10102  -3.835  10.792  15.112
 9632POPC   C3B10103  -4.023  10.795  15.182
 9632POPC   C4B10104  -4.211  10.798  15.251
 9633POPC   NC310105  23.343   8.405   7.433
 9633POPC   PO410106  23.539   8.385   7.398
 9633POPC   GL110107  23.735   8.365   7.363
 9633POPC   GL210108  23.739   8.459   7.332
 9633POPC   C1A10109  23.931   8.344   7.328
 9633POPC   D2A10110  24.127   8.324   7.294
 9633POPC   C3A10111  24.323   8.303   7.259
 9633POPC   C4A10112  24.519   8.283   7.224
 9633POPC   C1B10113  23.892   8.284   7.142
 9633POPC   C2B10114  24.088   8.263   7.107
 9633POPC   C3B10115  24.284   8.243   7.072
 9633POPC   C4B10116  24.480   8.222   7.037
 9634POPC   NC310117  19.647   0.781  13.279
 9634POPC   PO410118  19.792   0.651  13.326
 9634POPC   GL110119  19.937   0.521  13.373
 9634POPC   GL210120  19.941   0.491  13.278
 9634POPC   C1A10121  20.081   0.391  13.420
 9634POPC   D2A10122  20.226   0.262  13.468
 9634POPC   C3A10123  20.370   0.132  13.515
 9634POPC   C4A10124  20.515   0.002  13.562
 9634POPC   C1B10125  19.943   0.252  13.459
 9634POPC   C2B10126  20.088   0.122  13.506
 9634POPC   C3B10127  20.233  -0.008  13.553
 9634POPC   C4B10128  20.377  -0.138  13.600
 9635POPC   NC310129   6.457   7.425  23.101
 9635POPC   PO410130   6.412   7.381  23.291
 9635POPC   GL110131   6.367   7.337  23.481
 9635POPC   GL210132   6.464   7.327  23.501
 9635POPC   C1A10133   6.322   7.293  23.671
 9635POPC   D2A10134   6.278   7.249  23.860
 9635POPC   C3A10135   6.233   7.205  24.050
 9635POPC   C4A10136   6.188   7.161  24.240
 9635POPC   C1B10137   6.312   7.099  23.623
 9635POPC   C2B10138   6.267   7.055  23.813
 9635POPC   C3B10139   6.222   7.011  24.003
 9635POPC   C4B10140   6.178   6.967  24.193
 9636POPC   NC310141  -3.067  13.103   6.320
 9636POPC   PO410142  -3.254  13.148   6.266
 9636POPC   GL110143  -3.441  13.193   6.212
 9636POPC   GL210144  -3.458  13.232   6.303
 9636POPC   C1A10145  -3.628  13.238   6.158
 9636POPC   D2A10146  -3.816  13.284   6.105
 9636POPC   C3A10147  -4.003  13.329   6.051
 9636POPC   C4A10148  -4.190  13.374   5.997
 9636POPC   C1B10149  -3.690  13.059   6.223
 9636POPC   C2B10150  -3.877  13.104   6.169
 9636POPC   C3B10151  -4.064  13.150   6.115
 9636POPC   C4B10152  -4.252  13.195   6.061
 9637POPC   NC310153   0.458   3.914   1.750
 9637POPC   PO410154   0.330   3.824   1.625
 9637POPC   GL110155   0.202   3.734   1.500
 9637POPC   GL210156   0.168   3.677   1.576
 9637POPC   C1A10157   0.075   3.643   1.376
 9637POPC   D2A10158  -0.053   3.553   1.251
 9637POPC   C3A10159  -0.180   3.462   1.127
 9637POPC   C4A10160  -0.308   3.372   1.002
 9637POPC   C1B10161   0.213   3.505   1.335
 9637POPC   C2B10162   0.085   3.414   1.210
 9637POPC   C3B10163  -0.042   3.324   1.086
 9637POPC   C4B10164  -0.170   3.233   0.961
 9638POPC   NC310165  -3.688  12.312  12.010
 9638POPC   PO410166  -3.883  12.345  12.042
 9638POPC   GL110167  -4.078  12.378  12.074
 9638POPC   GL210168  -4.056  12.424  12.160
 9638POPC   C1A10169  -4.272  12.411  12.106
 9638POPC   D2A10170  -4.467  12.443  12.138
 9638POPC   C3A10171  -4.661  12.476  12.170
 9638POPC   C4A10172  -4.856  12.509  12.202
 9638POPC   C1B10173  -4.286  12.236  12.203
 9638POPC   C2B10174  -4.480  12.269  12.235
 9638POPC   C3B10175  -4.675  12.302  12.267
 9638POPC   C4B10176  -4.870  12.334  12.299
 9639POPC   NC310177   7.075   9.645  -3.623
 9639POPC   PO410178   7.036   9.639  -3.819
 9639POPC   GL110179   6.997   9.633  -4.015
 9639POPC   GL210180   6.932   9.559  -4.000
 9639POPC   C1A10181   6.959   9.628  -4.211
 9639POPC   D2A10182   6.920   9.622  -4.408
 9639POPC   C3A10183   6.882   9.617  -4.604
 9639POPC   C4A10184   6.843   9.611  -4.800
 9639POPC   C1B10185   7.105   9.493  -4.236
 9639POPC   C2B10186   7.066   9.488  -4.433
 9639POPC   C3B10187   7.028   9.482  -4.629
 9639POPC   C4B10188   6.989   9.477  -4.825
 9640POPC   NC310189   7.369  23.347   7.052
 9640POPC   PO410190   7.340  23.541   7.012
 9640POPC   GL110191   7.311  23.735   6.972
 9640POPC   GL210192   7.402  23.740   6.933
 9640POPC   C1A10193   7.282  23.929   6.933
 9640POPC   D2A10194   7.252  24.122   6.893
 9640POPC   C3A10195   7.223  24.316   6.854
 9640POPC   C4A10196   7.194  24.510   6.814
 9640POPC   C1B10197   7.356  23.977   7.112
 9640POPC   C2B10198   7.327  24.170   7.073
 9640POPC   C3B10199   7.298  24.364   7.033
 9640POPC   C4B10200   7.268  24.558   6.993
 9641POPC   NC310201  -3.832   8.666  11.517
 9641POPC   PO410202  -4.029   8.643  11.545
 9641POPC   GL110203  -4.226   8.620  11.573
 9641POPC   GL210204  -4.208   8.586  11.666
 9641POPC   C1A10205  -4.422   8.597  11.601
 9641POPC   D2A10206  -4.619   8.573  11.629
 9641POPC   C3A10207  -4.815   8.550  11.657
 9641POPC   C4A10208  -5.012   8.527  11.685
 9641POPC   C1B10209  -4.410   8.410  11.530
 9641POPC   C2B10210  -4.607   8.387  11.558
 9641POPC   C3B10211  -4.804   8.363  11.586
 9641POPC   C4B10212  -5.000   8.340  11.614
 9642POPC   NC310213  20.701  14.156  17.569
 9642POPC   PO410214  20.852  14.213  17.687
 9642POPC   GL110215  21.003  14.270  17.805
 9642POPC   GL210216  21.000  14.362  17.765
 9642POPC   C1A10217  21.155  14.327  17.922
 9642POPC   D2A10218  21.306  14.384  18.040
 9642POPC   C3A10219  21.458  14.441  18.157
 9642POPC   C4A10220  21.609  14.498  18.275
 9642POPC   C1B10221  21.285  14.271  17.781
 9642POPC   C2B10222  21.437  14.328  17.899
 9642POPC   C3B10223  21.588  14.385  18.017
 9642POPC   C4B10224  21.740  14.442  18.134
 9643POPC   NC310225  10.026  12.603  -3.673
 9643POPC   PO410226  10.030  12.643  -3.869
 9643POPC   GL110227  10.034  12.683  -4.065
 9643POPC   GL210228  10.116  12.626  -4.075
 9643POPC   C1A10229  10.038  12.723  -4.261
 9643POPC   D2A10230  10.042  12.763  -4.457
 9643POPC   C3A10231  10.046  12.803  -4.653
 9643POPC   C4A10232  10.050  12.843  -4.849
 9643POPC   C1B10233  10.154  12.882  -4.226
 9643POPC   C2B10234  10.158  12.922  -4.422
 9643POPC   C3B10235  10.162  12.962  -4.618
 9643POPC   C4B10236  10.166  13.002  -4.814
 9644POPC   NC310237   7.360  20.193   1.006
 9644POPC   PO410238   7.325  20.343   0.878
 9644POPC   GL110239   7.290  20.493   0.750
 9644POPC   GL210240   7.385  20.523   0.760
 9644POPC   C1A10241   7.255  20.642   0.622
 9644POPC   D2A10242   7.221  20.792   0.494
 9644POPC   C3A10243   7.186  20.941   0.366
 9644POPC   C4A10244   7.151  21.091   0.238
 9644POPC   C1B10245   7.202  20.760   0.774
 9644POPC   C2B10246   7.167  20.910   0.646
 9644POPC   C3B10247   7.132  21.059   0.518
 9644POPC   C4B10248   7.098  21.209   0.390
 9645POPC   NC310249  -3.139   5.305   9.722
 9645POPC   PO410250  -3.327   5.236   9.715
 9645POPC   GL110251  -3.515   5.167   9.708
 9645POPC   GL210252  -3.483   5.077   9.737
 9645POPC   C1A10253  -3.703   5.099   9.701
 9645POPC   D2A10254  -3.890   5.030   9.695
 9645POPC   C3A10255  -4.078   4.962   9.688
 9645POPC   C4A10256  -4.266   4.893   9.681
 9645POPC   C1B10257  -3.677   5.048   9.510
 9645POPC   C2B10258  -3.865   4.979   9.503
 9645POPC   C3B10259  -4.053   4.910   9.496
 9645POPC   C4B10260  -4.240   4.842   9.489
 9646POPC   NC310261   2.984   3.703  20.111
 9646POPC   PO410262   2.876   3.618  20.257
 9646POPC   GL110263   2.768   3.533  20.403
 9646POPC   GL210264   2.832   3.570  20.471
 9646POPC   C1A10265   2.661   3.448  20.548
 9646POPC   D2A10266   2.553   3.364  20.694
 9646POPC   C3A10267   2.446   3.279  20.839
 9646POPC   C4A10268   2.338   3.194  20.985
 9646POPC   C1B10269   2.772   3.283  20.534
 9646POPC   C2B10270   2.664   3.198  20.679
 9646POPC   C3B10271   2.557   3.113  20.825
 9646POPC   C4B10272   2.449   3.028  20.971
 9647POPC   NC310273  18.463  19.955  13.904
 9647POPC   PO410274  18.589  20.096  13.968
 9647POPC   GL110275  18.715  20.237  14.032
 9647POPC   GL210276  18.758  20.171  14.093
 9647POPC   C1A10277  18.842  20.378  14.096
 9647POPC   D2A10278  18.968  20.519  14.161
 9647POPC   C3A10279  19.095  20.660  14.225
 9647POPC   C4A10280  19.221  20.801  14.289
 9647POPC   C1B10281  18.713  20.428  14.241
 9647POPC   C2B10282  18.839  20.569  14.305
 9647POPC   C3B10283  18.966  20.710  14.369
 9647POPC   C4B10284  19.092  20.851  14.434
 9648POPC   NC310285  15.373  21.734   5.130
 9648POPC   PO410286  15.444  21.909   5.065
 9648POPC   GL110287  15.515  22.084   5.000
 9648POPC   GL210288  15.577  22.089   5.079
 9648POPC   C1A10289  15.587  22.260   4.936
 9648POPC   D2A10290  15.658  22.435   4.871
 9648POPC   C3A10291  15.730  22.611   4.807
 9648POPC   C4A10292  15.801  22.786   4.742
 9648POPC   C1B10293  15.445  22.356   5.040
 9648POPC   C2B10294  15.517  22.531   4.975
 9648POPC   C3B10295  15.588  22.706   4.911
 9648POPC   C4B10296  15.660  22.882   4.846
 9649POPC   NC310297   4.054  -0.978   3.669
 9649POPC   PO410298   3.970  -1.134   3.576
 9649POPC   GL110299   3.886  -1.290   3.483
 9649POPC   GL210300   3.977  -1.326   3.461
 9649POPC   C1A10301   3.802  -1.446   3.391
 9649POPC   D2A10302   3.718  -1.603   3.298
 9649POPC   C3A10303   3.634  -1.759   3.206
 9649POPC   C4A10304   3.550  -1.915   3.113
 9649POPC   C1B10305   3.799  -1.343   3.219
 9649POPC   C2B10306   3.715  -1.500   3.127
 9649POPC   C3B10307   3.631  -1.656   3.034
 9649POPC   C4B10308   3.547  -1.812   2.942
 9650POPC   NC310309  18.397  -0.060  14.159
 9650POPC   PO410310  18.518  -0.207  14.220
 9650POPC   GL110311  18.639  -0.354  14.281
 9650POPC   GL210312  18.668  -0.370  14.187
 9650POPC   C1A10313  18.761  -0.500  14.343
 9650POPC   D2A10314  18.882  -0.647  14.404
 9650POPC   C3A10315  19.004  -0.793  14.466
 9650POPC   C4A10316  19.125  -0.940  14.527
 9650POPC   C1B10317  18.612  -0.632  14.321
 9650POPC   C2B10318  18.734  -0.779  14.383
 9650POPC   C3B10319  18.855  -0.925  14.444
 9650POPC   C4B10320  18.976  -1.072  14.505
 9651POPC   NC310321   5.849  -0.399  18.195
 9651POPC   PO410322   5.791  -0.549  18.314
 9651POPC   GL110323   5.733  -0.699  18.433
 9651POPC   GL210324   5.798  -0.760  18.388
 9651POPC   C1A10325   5.675  -0.849  18.552
 9651POPC   D2A10326   5.618  -0.999  18.672
 9651POPC   C3A10327   5.560  -1.149  18.791
 9651POPC   C4A10328   5.502  -1.299  18.910
 9651POPC   C1B10329   5.535  -0.900  18.420
 9651POPC   C2B10330   5.477  -1.050  18.539
 9651POPC   C3B10331   5.419  -1.200  18.658
 9651POPC   C4B10332   5.361  -1.350  18.777
 9652POPC   NC310333  12.840  17.556  -1.266
 9652POPC   PO410334  12.880  17.663  -1.430
 9652POPC   GL110335  12.920  17.770  -1.594
 9652POPC   GL210336  13.001  17.808  -1.549
 9652POPC   C1A10337  12.960  17.877  -1.758
 9652POPC   D2A10338  13.001  17.983  -1.923
 9652POPC   C3A10339  13.041  18.090  -2.087
 9652POPC   C4A10340  13.081  18.197  -2.251
 9652POPC   C1B10341  12.850  18.027  -1.687
 9652POPC   C2B10342  12.890  18.134  -1.852
 9652POPC   C3B10343  12.930  18.241  -2.016
 9652POPC   C4B10344  12.970  18.348  -2.180
 9653POPC   NC310345  -2.601  16.052   8.973
 9653POPC   PO410346  -2.783  16.134   8.958
 9653POPC   GL110347  -2.965  16.216   8.943
 9653POPC   GL210348  -2.923  16.307   8.933
 9653POPC   C1A10349  -3.146  16.299   8.927
 9653POPC   D2A10350  -3.328  16.381   8.912
 9653POPC   C3A10351  -3.509  16.464   8.896
 9653POPC   C4A10352  -3.691  16.546   8.881
 9653POPC   C1B10353  -3.152  16.323   9.126
 9653POPC   C2B10354  -3.334  16.406   9.110
 9653POPC   C3B10355  -3.515  16.488   9.095
 9653POPC   C4B10356  -3.697  16.570   9.079
 9654POPC   NC310357   0.559   2.750   2.590
 9654POPC   PO410358   0.432   2.646   2.476
 9654POPC   GL110359   0.305   2.542   2.362
 9654POPC   GL210360   0.362   2.460   2.373
 9654POPC   C1A10361   0.178   2.437   2.248
 9654POPC   D2A10362   0.052   2.333   2.133
 9654POPC   C3A10363  -0.075   2.228   2.019
 9654POPC   C4A10364  -0.202   2.124   1.905
 9654POPC   C1B10365   0.283   2.488   2.085
 9654POPC   C2B10366   0.156   2.383   1.971
 9654POPC   C3B10367   0.030   2.279   1.857
 9654POPC   C4B10368  -0.097   2.174   1.742
 9655POPC   NC310369   9.851  -1.319  17.944
 9655POPC   PO410370   9.853  -1.480  18.063
 9655POPC   GL110371   9.855  -1.641  18.182
 9655POPC   GL210372   9.923  -1.684  18.122
 9655POPC   C1A10373   9.858  -1.802  18.301
 9655POPC   D2A10374   9.860  -1.962  18.419
 9655POPC   C3A10375   9.863  -2.123  18.538
 9655POPC   C4A10376   9.865  -2.284  18.657
 9655POPC   C1B10377   9.710  -1.883  18.193
 9655POPC   C2B10378   9.713  -2.044  18.312
 9655POPC   C3B10379   9.715  -2.205  18.431
 9655POPC   C4B10380   9.717  -2.366  18.550
 9656POPC   NC310381  15.816  21.553  14.640
 9656POPC   PO410382  15.905  21.717  14.713
 9656POPC   GL110383  15.994  21.881  14.786
 9656POPC   GL210384  16.015  21.911  14.692
 9656POPC   C1A10385  16.083  22.045  14.858
 9656POPC   D2A10386  16.172  22.208  14.931
 9656POPC   C3A10387  16.261  22.372  15.003
 9656POPC   C4A10388  16.350  22.536  15.076
 9656POPC   C1B10389  16.257  21.946  14.866
 9656POPC   C2B10390  16.346  22.110  14.939
 9656POPC   C3B10391  16.435  22.274  15.011
 9656POPC   C4B10392  16.524  22.438  15.084
 9657POPC   NC310393  -2.710  15.292  12.422
 9657POPC   PO410394  -2.892  15.368  12.456
 9657POPC   GL110395  -3.074  15.444  12.490
 9657POPC   GL210396  -3.041  15.535  12.463
 9657POPC   C1A10397  -3.255  15.521  12.524
 9657POPC   D2A10398  -3.437  15.597  12.558
 9657POPC   C3A10399  -3.618  15.674  12.592
 9657POPC   C4A10400  -3.800  15.750  12.626
 9657POPC   C1B10401  -3.204  15.559  12.714
 9657POPC   C2B10402  -3.385  15.635  12.748
 9657POPC   C3B10403  -3.567  15.711  12.782
 9657POPC   C4B10404  -3.749  15.788  12.816
 9658POPC   NC310405  17.885  -1.303   9.226
 9658POPC   PO410406  17.998  -1.468   9.217
 9658POPC   GL110407  18.111  -1.633   9.208
 9658POPC   GL210408  18.192  -1.577   9.194
 9658POPC   C1A10409  18.223  -1.798   9.199
 9658POPC   D2A10410  18.336  -1.963   9.190
 9658POPC   C3A10411  18.448  -2.128   9.181
 9658POPC   C4A10412  18.561  -2.293   9.172
 9658POPC   C1B10413  18.196  -1.806   9.001
 9658POPC   C2B10414  18.308  -1.971   8.992
 9658POPC   C3B10415  18.421  -2.136   8.983
 9658POPC   C4B10416  18.534  -2.301   8.974
 9659POPC   NC310417   0.175   9.542   0.124
 9659POPC   PO410418   0.034   9.537  -0.017
 9659POPC   GL110419  -0.107   9.532  -0.158
 9659POPC   GL210420  -0.139   9.623  -0.130
 9659POPC   C1A10421  -0.249   9.527  -0.299
 9659POPC   D2A10422  -0.390   9.523  -0.441
 9659POPC   C3A10423  -0.532   9.518  -0.582
 9659POPC   C4A10424  -0.673   9.513  -0.723
 9659POPC   C1B10425  -0.375   9.442  -0.170
 9659POPC   C2B10426  -0.517   9.438  -0.311
 9659POPC   C3B10427  -0.658   9.433  -0.452
 9659POPC   C4B10428  -0.799   9.428  -0.593
 9660POPC   NC310429  -2.206   3.198  10.327
 9660POPC   PO410430  -2.382   3.103  10.331
 9660POPC   GL110431  -2.558   3.008  10.335
 9660POPC   GL210432  -2.511   2.920  10.340
 9660POPC   C1A10433  -2.734   2.913  10.338
 9660POPC   D2A10434  -2.910   2.818  10.342
 9660POPC   C3A10435  -3.086   2.723  10.345
 9660POPC   C4A10436  -3.262   2.628  10.349
 9660POPC   C1B10437  -2.732   2.902  10.139
 9660POPC   C2B10438  -2.908   2.807  10.142
 9660POPC   C3B10439  -3.084   2.712  10.146
 9660POPC   C4B10440  -3.260   2.617  10.149
 9661POPC   NC310441   7.263  -3.592  10.448
 9661POPC   PO410442   7.229  -3.789  10.454
 9661POPC   GL110443   7.195  -3.986  10.460
 9661POPC   GL210444   7.245  -3.992  10.547
 9661POPC   C1A10445   7.162  -4.183  10.466
 9661POPC   D2A10446   7.128  -4.380  10.473
 9661POPC   C3A10447   7.095  -4.577  10.479
 9661POPC   C4A10448   7.061  -4.774  10.485
 9661POPC   C1B10449   7.332  -4.215  10.367
 9661POPC   C2B10450   7.299  -4.412  10.373
 9661POPC   C3B10451   7.265  -4.609  10.379
 9661POPC   C4B10452   7.231  -4.806  10.385
 9662POPC   NC310453   7.430  18.561  -0.675
 9662POPC   PO410454   7.402  18.692  -0.824
 9662POPC   GL110455   7.374  18.823  -0.973
 9662POPC   GL210456   7.401  18.897  -0.912
 9662POPC   C1A10457   7.346  18.953  -1.122
 9662POPC   D2A10458   7.317  19.084  -1.270
 9662POPC   C3A10459   7.289  19.214  -1.419
 9662POPC   C4A10460   7.261  19.345  -1.568
 9662POPC   C1B10461   7.155  18.977  -1.065
 9662POPC   C2B10462   7.127  19.107  -1.214
 9662POPC   C3B10463   7.099  19.238  -1.363
 9662POPC   C4B10464   7.071  19.369  -1.511
 9663POPC   NC310465  -2.525  16.088  11.297
 9663POPC   PO410466  -2.704  16.175  11.319
 9663POPC   GL110467  -2.883  16.262  11.341
 9663POPC   GL210468  -2.893  16.218  11.430
 9663POPC   C1A10469  -3.061  16.349  11.363
 9663POPC   D2A10470  -3.240  16.437  11.386
 9663POPC   C3A10471  -3.418  16.524  11.408
 9663POPC   C4A10472  -3.597  16.611  11.430
 9663POPC   C1B10473  -3.149  16.193  11.274
 9663POPC   C2B10474  -3.327  16.280  11.296
 9663POPC   C3B10475  -3.506  16.368  11.319
 9663POPC   C4B10476  -3.684  16.455  11.341
 9664POPC   NC310477  11.063  22.292  16.224
 9664POPC   PO410478  11.084  22.468  16.316
 9664POPC   GL110479  11.105  22.644  16.408
 9664POPC   GL210480  11.128  22.687  16.321
 9664POPC   C1A10481  11.126  22.821  16.500
 9664POPC   D2A10482  11.146  22.997  16.593
 9664POPC   C3A10483  11.167  23.174  16.685
 9664POPC   C4A10484  11.188  23.350  16.777
 9664POPC   C1B10485  11.319  22.782  16.532
 9664POPC   C2B10486  11.340  22.958  16.624
 9664POPC   C3B10487  11.361  23.134  16.716
 9664POPC   C4B10488  11.382  23.311  16.808
 9665POPC   NC310489  -2.249   6.506  15.901
 9665POPC   PO410490  -2.426   6.460  15.982
 9665POPC   GL110491  -2.603   6.414  16.063
 9665POPC   GL210492  -2.556   6.360  16.134
 9665POPC   C1A10493  -2.780   6.367  16.144
 9665POPC   D2A10494  -2.956   6.321  16.225
 9665POPC   C3A10495  -3.133   6.274  16.306
 9665POPC   C4A10496  -3.310   6.228  16.387
 9665POPC   C1B10497  -2.790   6.205  16.028
 9665POPC   C2B10498  -2.967   6.158  16.109
 9665POPC   C3B10499  -3.144   6.112  16.190
 9665POPC   C4B10500  -3.320   6.065  16.271
 9666POPC   NC310501  14.192  -1.017   2.707
 9666POPC   PO410502  14.253  -1.174   2.600
 9666POPC   GL110503  14.314  -1.331   2.493
 9666POPC   GL210504  14.405  -1.289   2.483
 9666POPC   C1A10505  14.376  -1.488   2.385
 9666POPC   D2A10506  14.437  -1.645   2.278
 9666POPC   C3A10507  14.499  -1.802   2.170
 9666POPC   C4A10508  14.560  -1.959   2.063
 9666POPC   C1B10509  14.316  -1.397   2.218
 9666POPC   C2B10510  14.377  -1.554   2.110
 9666POPC   C3B10511  14.438  -1.711   2.003
 9666POPC   C4B10512  14.500  -1.868   1.895
 9667POPC   NC310513  20.344  17.210   4.496
 9667POPC   PO410514  20.495  17.318   4.423
 9667POPC   GL110515  20.646  17.426   4.350
 9667POPC   GL210516  20.687  17.344   4.311
 9667POPC   C1A10517  20.797  17.535   4.277
 9667POPC   D2A10518  20.949  17.643   4.204
 9667POPC   C3A10519  21.100  17.752   4.131
 9667POPC   C4A10520  21.251  17.860   4.058
 9667POPC   C1B10521  20.900  17.506   4.446
 9667POPC   C2B10522  21.051  17.614   4.373
 9667POPC   C3B10523  21.202  17.723   4.300
 9667POPC   C4B10524  21.354  17.831   4.227
 9668POPC   NC310525  12.680   1.520  20.456
 9668POPC   PO410526  12.716   1.390  20.604
 9668POPC   GL110527  12.752   1.260  20.752
 9668POPC   GL210528  12.782   1.192  20.685
 9668POPC   C1A10529  12.787   1.130  20.900
 9668POPC   D2A10530  12.823   1.001  21.047
 9668POPC   C3A10531  12.858   0.871  21.195
 9668POPC   C4A10532  12.894   0.741  21.343
 9668POPC   C1B10533  12.600   1.061  20.884
 9668POPC   C2B10534  12.636   0.931  21.032
 9668POPC   C3B10535  12.671   0.801  21.179
 9668POPC   C4B10536  12.707   0.672  21.327
 9669POPC   NC310537  -3.928  11.099   8.949
 9669POPC   PO410538  -4.125  11.119   8.923
 9669POPC   GL110539  -4.322  11.139   8.897
 9669POPC   GL210540  -4.316  11.235   8.924
 9669POPC   C1A10541  -4.520  11.159   8.871
 9669POPC   D2A10542  -4.717  11.178   8.845
 9669POPC   C3A10543  -4.915  11.198   8.819
 9669POPC   C4A10544  -5.112  11.218   8.793
 9669POPC   C1B10545  -4.550  11.106   9.062
 9669POPC   C2B10546  -4.748  11.126   9.036
 9669POPC   C3B10547  -4.945  11.146   9.010
 9669POPC   C4B10548  -5.142  11.165   8.984
 9670POPC   NC310549   8.352   4.307  -2.604
 9670POPC   PO410550   8.339   4.230  -2.788
 9670POPC   GL110551   8.326   4.153  -2.972
 9670POPC   GL210552   8.417   4.188  -2.993
 9670POPC   C1A10553   8.313   4.076  -3.156
 9670POPC   D2A10554   8.299   4.000  -3.341
 9670POPC   C3A10555   8.286   3.923  -3.525
 9670POPC   C4A10556   8.273   3.846  -3.709
 9670POPC   C1B10557   8.232   4.247  -3.222
 9670POPC   C2B10558   8.219   4.171  -3.406
 9670POPC   C3B10559   8.206   4.094  -3.590
 9670POPC   C4B10560   8.193   4.017  -3.775
 9671POPC   NC310561  21.935   3.448  11.919
 9671POPC   PO410562  22.110   3.355  11.947
 9671POPC   GL110563  22.285   3.262  11.975
 9671POPC   GL210564  22.264   3.200  11.899
 9671POPC   C1A10565  22.460   3.169  12.002
 9671POPC   D2A10566  22.635   3.077  12.030
 9671POPC   C3A10567  22.810   2.984  12.057
 9671POPC   C4A10568  22.985   2.891  12.085
 9671POPC   C1B10569  22.373   3.044  12.131
 9671POPC   C2B10570  22.548   2.951  12.159
 9671POPC   C3B10571  22.723   2.858  12.186
 9671POPC   C4B10572  22.898   2.765  12.214
 9672POPC   NC310573  -0.504  12.237   0.973
 9672POPC   PO410574  -0.647  12.258   0.835
 9672POPC   GL110575  -0.790  12.279   0.697
 9672POPC   GL210576  -0.789  12.378   0.711
 9672POPC   C1A10577  -0.933  12.301   0.559
 9672POPC   D2A10578  -1.077  12.322   0.421
 9672POPC   C3A10579  -1.220  12.344   0.283
 9672POPC   C4A10580  -1.363  12.365   0.145
 9672POPC   C1B10581  -1.073  12.282   0.701
 9672POPC   C2B10582  -1.216  12.304   0.563
 9672POPC   C3B10583  -1.359  12.325   0.425
 9672POPC   C4B10584  -1.503  12.347   0.287
 9673POPC   NC310585   7.274   1.004  20.218
 9673POPC   PO410586   7.238   0.873  20.365
 9673POPC   GL110587   7.202   0.742  20.512
 9673POPC   GL210588   7.298   0.713  20.509
 9673POPC   C1A10589   7.166   0.611  20.658
 9673POPC   D2A10590   7.130   0.479  20.805
 9673POPC   C3A10591   7.094   0.348  20.951
 9673POPC   C4A10592   7.058   0.217  21.098
 9673POPC   C1B10593   7.121   0.471  20.522
 9673POPC   C2B10594   7.085   0.340  20.669
 9673POPC   C3B10595   7.049   0.208  20.816
 9673POPC   C4B10596   7.013   0.077  20.962
 9674POPC   NC310597   5.028  16.491  21.223
 9674POPC   PO410598   4.955  16.589  21.381
 9674POPC   GL110599   4.882  16.687  21.539
 9674POPC   GL210600   4.934  16.627  21.600
 9674POPC   C1A10601   4.809  16.785  21.698
 9674POPC   D2A10602   4.735  16.882  21.856
 9674POPC   C3A10603   4.662  16.980  22.015
 9674POPC   C4A10604   4.589  17.078  22.173
 9674POPC   C1B10605   4.655  16.657  21.705
 9674POPC   C2B10606   4.581  16.755  21.864
 9674POPC   C3B10607   4.508  16.853  22.022
 9674POPC   C4B10608   4.435  16.951  22.180
 9675POPC   NC310609  15.093  19.795  18.221
 9675POPC   PO410610  15.167  19.942  18.335
 9675POPC   GL110611  15.241  20.089  18.449
 9675POPC   GL210612  15.274  20.021  18.515
 9675POPC   C1A10613  15.315  20.235  18.563
 9675POPC   D2A10614  15.389  20.382  18.678
 9675POPC   C3A10615  15.463  20.528  18.792
 9675POPC   C4A10616  15.537  20.675  18.906
 9675POPC   C1B10617  15.141  20.247  18.661
 9675POPC   C2B10618  15.215  20.394  18.775
 9675POPC   C3B10619  15.289  20.540  18.890
 9675POPC   C4B10620  15.363  20.687  19.004
 9676POPC   NC310621  11.365  21.270   2.030
 9676POPC   PO410622  11.385  21.434   1.917
 9676POPC   GL110623  11.405  21.598   1.804
 9676POPC   GL210624  11.471  21.550   1.746
 9676POPC   C1A10625  11.425  21.762   1.691
 9676POPC   D2A10626  11.445  21.925   1.577
 9676POPC   C3A10627  11.465  22.089   1.464
 9676POPC   C4A10628  11.485  22.253   1.351
 9676POPC   C1B10629  11.575  21.824   1.808
 9676POPC   C2B10630  11.595  21.988   1.694
 9676POPC   C3B10631  11.615  22.152   1.581
 9676POPC   C4B10632  11.635  22.316   1.468
 9677POPC   NC310633   1.473  17.773   2.063
 9677POPC   PO410634   1.351  17.888   1.954
 9677POPC   GL110635   1.229  18.003   1.845
 9677POPC   GL210636   1.155  17.987   1.911
 9677POPC   C1A10637   1.107  18.119   1.737
 9677POPC   D2A10638   0.985  18.234   1.628
 9677POPC   C3A10639   0.863  18.350   1.520
 9677POPC   C4A10640   0.741  18.465   1.411
 9677POPC   C1B10641   1.049  17.959   1.632
 9677POPC   C2B10642   0.927  18.074   1.523
 9677POPC   C3B10643   0.805  18.190   1.415
 9677POPC   C4B10644   0.683  18.305   1.306
 9678POPC   NC310645   0.411  17.196   2.776
 9678POPC   PO410646   0.273  17.300   2.675
 9678POPC   GL110647   0.135  17.404   2.574
 9678POPC   GL210648   0.095  17.434   2.661
 9678POPC   C1A10649  -0.003  17.508   2.473
 9678POPC   D2A10650  -0.141  17.612   2.373
 9678POPC   C3A10651  -0.279  17.716   2.272
 9678POPC   C4A10652  -0.417  17.820   2.171
 9678POPC   C1B10653  -0.123  17.348   2.474
 9678POPC   C2B10654  -0.261  17.452   2.373
 9678POPC   C3B10655  -0.399  17.556   2.272
 9678POPC   C4B10656  -0.537  17.660   2.171
 9679POPC   NC310657   8.445  22.041   3.252
 9679POPC   PO410658   8.421  22.209   3.145
 9679POPC   GL110659   8.397  22.377   3.038
 9679POPC   GL210660   8.480  22.355   2.986
 9679POPC   C1A10661   8.373  22.544   2.932
 9679POPC   D2A10662   8.350  22.712   2.825
 9679POPC   C3A10663   8.326  22.879   2.719
 9679POPC   C4A10664   8.302  23.047   2.612
 9679POPC   C1B10665   8.484  22.645   3.065
 9679POPC   C2B10666   8.460  22.812   2.958
 9679POPC   C3B10667   8.436  22.980   2.852
 9679POPC   C4B10668   8.413  23.147   2.745
 9680POPC   NC310669  20.266  15.410   2.527
 9680POPC   PO410670  20.418  15.489   2.423
 9680POPC   GL110671  20.570  15.568   2.319
 9680POPC   GL210672  20.512  15.571   2.237
 9680POPC   C1A10673  20.721  15.647   2.215
 9680POPC   D2A10674  20.873  15.726   2.111
 9680POPC   C3A10675  21.024  15.805   2.007
 9680POPC   C4A10676  21.176  15.884   1.903
 9680POPC   C1B10677  20.782  15.463   2.164
 9680POPC   C2B10678  20.934  15.542   2.060
 9680POPC   C3B10679  21.085  15.621   1.956
 9680POPC   C4B10680  21.237  15.700   1.852
 9681POPC   NC310681   6.855   3.709  -2.123
 9681POPC   PO410682   6.816   3.621  -2.298
 9681POPC   GL110683   6.777   3.533  -2.473
 9681POPC   GL210684   6.832   3.454  -2.446
 9681POPC   C1A10685   6.737   3.445  -2.648
 9681POPC   D2A10686   6.698   3.356  -2.824
 9681POPC   C3A10687   6.658   3.268  -2.999
 9681POPC   C4A10688   6.619   3.180  -3.174
 9681POPC   C1B10689   6.899   3.531  -2.728
 9681POPC   C2B10690   6.859   3.443  -2.904
 9681POPC   C3B10691   6.820   3.355  -3.079
 9681POPC   C4B10692   6.781   3.267  -3.254
 9682POPC   NC310693  22.722   6.381  13.629
 9682POPC   PO410694  22.907   6.327  13.682
 9682POPC   GL110695  23.092   6.273  13.735
 9682POPC   GL210696  23.114   6.368  13.758
 9682POPC   C1A10697  23.277   6.218  13.787
 9682POPC   D2A10698  23.463   6.164  13.840
 9682POPC   C3A10699  23.648   6.109  13.892
 9682POPC   C4A10700  23.833   6.055  13.945
 9682POPC   C1B10701  23.340   6.250  13.600
 9682POPC   C2B10702  23.525   6.195  13.652
 9682POPC   C3B10703  23.710   6.141  13.705
 9682POPC   C4B10704  23.896   6.087  13.758
 9683POPC   NC310705   6.859  -3.437   8.287
 9683POPC   PO410706   6.821  -3.632   8.267
 9683POPC   GL110707   6.783  -3.827   8.247
 9683POPC   GL210708   6.869  -3.839   8.198
 9683POPC   C1A10709   6.744  -4.022   8.227
 9683POPC   D2A10710   6.706  -4.218   8.207
 9683POPC   C3A10711   6.667  -4.413   8.187
 9683POPC   C4A10712   6.629  -4.608   8.167
 9683POPC   C1B10713   6.650  -3.986   8.054
 9683POPC   C2B10714   6.612  -4.181   8.034
 9683POPC   C3B10715   6.574  -4.377   8.014
 9683POPC   C4B10716   6.535  -4.572   7.994
 9684POPC   NC310717   3.441   9.687  22.283
 9684POPC   PO410718   3.354   9.686  22.463
 9684POPC   GL110719   3.267   9.685  22.643
 9684POPC   GL210720   3.308   9.596  22.662
 9684POPC   C1A10721   3.181   9.685  22.824
 9684POPC   D2A10722   3.094   9.684  23.004
 9684POPC   C3A10723   3.008   9.684  23.185
 9684POPC   C4A10724   2.921   9.683  23.365
 9684POPC   C1B10725   3.020   9.595  22.746
 9684POPC   C2B10726   2.933   9.595  22.927
 9684POPC   C3B10727   2.846   9.594  23.107
 9684POPC   C4B10728   2.760   9.594  23.287
 9685POPC   NC310729   8.916  -1.628   2.471
 9685POPC   PO410730   8.900  -1.796   2.364
 9685POPC   GL110731   8.884  -1.964   2.257
 9685POPC   GL210732   8.901  -2.018   2.340
 9685POPC   C1A10733   8.868  -2.132   2.150
 9685POPC   D2A10734   8.851  -2.301   2.044
 9685POPC   C3A10735   8.835  -2.469   1.937
 9685POPC   C4A10736   8.819  -2.637   1.830
 9685POPC   C1B10737   9.064  -2.128   2.113
 9685POPC   C2B10738   9.048  -2.296   2.006
 9685POPC   C3B10739   9.032  -2.464   1.900
 9685POPC   C4B10740   9.015  -2.632   1.793
 9686POPC   NC310741   0.889   0.105  13.761
 9686POPC   PO410742   0.758  -0.037  13.813
 9686POPC   GL110743   0.627  -0.179  13.865
 9686POPC   GL210744   0.697  -0.222  13.923
 9686POPC   C1A10745   0.497  -0.322  13.917
 9686POPC   D2A10746   0.366  -0.464  13.969
 9686POPC   C3A10747   0.236  -0.607  14.021
 9686POPC   C4A10748   0.105  -0.749  14.073
 9686POPC   C1B10749   0.557  -0.433  13.762
 9686POPC   C2B10750   0.426  -0.576  13.814
 9686POPC   C3B10751   0.295  -0.718  13.866
 9686POPC   C4B10752   0.165  -0.860  13.918
 9687POPC   NC310753  13.362  -3.318  11.714
 9687POPC   PO410754  13.413  -3.509  11.742
 9687POPC   GL110755  13.464  -3.700  11.770
 9687POPC   GL210756  13.485  -3.709  11.673
 9687POPC   C1A10757  13.516  -3.891  11.799
 9687POPC   D2A10758  13.567  -4.083  11.827
 9687POPC   C3A10759  13.619  -4.274  11.856
 9687POPC   C4A10760  13.670  -4.465  11.884
 9687POPC   C1B10761  13.327  -3.948  11.763
 9687POPC   C2B10762  13.379  -4.139  11.792
 9687POPC   C3B10763  13.430  -4.330  11.820
 9687POPC   C4B10764  13.481  -4.521  11.849
 9688POPC   NC310765   1.488   5.914  -0.321
 9688POPC   PO410766   1.371   5.850  -0.470
 9688POPC   GL110767   1.254   5.786  -0.619
 9688POPC   GL210768   1.173   5.803  -0.562
 9688POPC   C1A10769   1.136   5.721  -0.767
 9688POPC   D2A10770   1.019   5.657  -0.916
 9688POPC   C3A10771   0.901   5.592  -1.064
 9688POPC   C4A10772   0.784   5.528  -1.213
 9688POPC   C1B10773   1.147   5.535  -0.695
 9688POPC   C2B10774   1.030   5.471  -0.844
 9688POPC   C3B10775   0.912   5.406  -0.992
 9688POPC   C4B10776   0.795   5.342  -1.141
 9689POPC   NC310777  10.908  16.122  22.286
 9689POPC   PO410778  10.930  16.203  22.467
 9689POPC   GL110779  10.952  16.284  22.648
 9689POPC   GL210780  11.051  16.271  22.643
 9689POPC   C1A10781  10.974  16.366  22.830
 9689POPC   D2A10782  10.996  16.447  23.011
 9689POPC   C3A10783  11.018  16.529  23.193
 9689POPC   C4A10784  11.040  16.610  23.374
 9689POPC   C1B10785  10.954  16.185  22.913
 9689POPC   C2B10786  10.976  16.267  23.095
 9689POPC   C3B10787  10.998  16.348  23.276
 9689POPC   C4B10788  11.020  16.429  23.458
 9690POPC   NC310789  11.088  -2.846  15.159
 9690POPC   PO410790  11.104  -3.032  15.230
 9690POPC   GL110791  11.120  -3.218  15.301
 9690POPC   GL210792  11.155  -3.249  15.212
 9690POPC   C1A10793  11.136  -3.405  15.371
 9690POPC   D2A10794  11.153  -3.591  15.442
 9690POPC   C3A10795  11.169  -3.778  15.512
 9690POPC   C4A10796  11.185  -3.964  15.583
 9690POPC   C1B10797  10.950  -3.444  15.310
 9690POPC   C2B10798  10.966  -3.630  15.381
 9690POPC   C3B10799  10.982  -3.817  15.452
 9690POPC   C4B10800  10.999  -4.003  15.522
 9691POPC   NC310801  10.844   8.440  23.695
 9691POPC   PO410802  10.859   8.417  23.893
 9691POPC   GL110803  10.874   8.394  24.091
 9691POPC   GL210804  10.888   8.492  24.101
 9691POPC   C1A10805  10.890   8.371  24.289
 9691POPC   D2A10806  10.905   8.348  24.487
 9691POPC   C3A10807  10.921   8.325  24.685
 9691POPC   C4A10808  10.936   8.302  24.883
 9691POPC   C1B10809  11.087   8.345  24.271
 9691POPC   C2B10810  11.103   8.322  24.469
 9691POPC   C3B10811  11.118   8.299  24.667
 9691POPC   C4B10812  11.133   8.276  24.865
 9692POPC   NC310813   8.045  -1.848  16.918
 9692POPC   PO410814   8.019  -2.019  17.019
 9692POPC   GL110815   7.993  -2.190  17.120
 9692POPC   GL210816   8.077  -2.226  17.081
 9692POPC   C1A10817   7.967  -2.360  17.221
 9692POPC   D2A10818   7.940  -2.531  17.323
 9692POPC   C3A10819   7.914  -2.701  17.424
 9692POPC   C4A10820   7.888  -2.872  17.525
 9692POPC   C1B10821   7.862  -2.435  17.068
 9692POPC   C2B10822   7.836  -2.606  17.169
 9692POPC   C3B10823   7.810  -2.776  17.270
 9692POPC   C4B10824   7.784  -2.947  17.372
 9693POPC   NC310825  13.945  -3.187  11.401
 9693POPC   PO410826  14.007  -3.376  11.425
 9693POPC   GL110827  14.069  -3.565  11.449
 9693POPC   GL210828  14.116  -3.538  11.533
 9693POPC   C1A10829  14.131  -3.753  11.473
 9693POPC   D2A10830  14.193  -3.942  11.496
 9693POPC   C3A10831  14.255  -4.130  11.520
 9693POPC   C4A10832  14.317  -4.319  11.544
 9693POPC   C1B10833  14.296  -3.712  11.367
 9693POPC   C2B10834  14.358  -3.901  11.391
 9693POPC   C3B10835  14.420  -4.089  11.415
 9693POPC   C4B10836  14.482  -4.278  11.439
 9694POPC   NC310837  18.855  20.531   9.209
 9694POPC   PO410838  18.976  20.690   9.200
 9694POPC   GL110839  19.097  20.849   9.191
 9694POPC   GL210840  19.084  20.853   9.091
 9694POPC   C1A10841  19.218  21.008   9.181
 9694POPC   D2A10842  19.338  21.167   9.172
 9694POPC   C3A10843  19.459  21.326   9.162
 9694POPC   C4A10844  19.580  21.485   9.153
 9694POPC   C1B10845  19.375  20.887   9.156
 9694POPC   C2B10846  19.496  21.046   9.146
 9694POPC   C3B10847  19.616  21.205   9.137
 9694POPC   C4B10848  19.737  21.364   9.127
 9695POPC   NC310849   7.572  -3.210   6.397
 9695POPC   PO410850   7.538  -3.400   6.344
 9695POPC   GL110851   7.504  -3.590   6.291
 9695POPC   GL210852   7.592  -3.592   6.242
 9695POPC   C1A10853   7.470  -3.780   6.238
 9695POPC   D2A10854   7.437  -3.969   6.185
 9695POPC   C3A10855   7.403  -4.159   6.132
 9695POPC   C4A10856   7.369  -4.349   6.079
 9695POPC   C1B10857   7.379  -3.717   6.071
 9695POPC   C2B10858   7.346  -3.907   6.018
 9695POPC   C3B10859   7.312  -4.096   5.965
 9695POPC   C4B10860   7.278  -4.286   5.912
 9696POPC   NC310861  21.942  15.256  14.265
 9696POPC   PO410862  22.118  15.328  14.327
 9696POPC   GL110863  22.294  15.400  14.389
 9696POPC   GL210864  22.283  15.479  14.328
 9696POPC   C1A10865  22.470  15.472  14.450
 9696POPC   D2A10866  22.647  15.544  14.512
 9696POPC   C3A10867  22.823  15.616  14.573
 9696POPC   C4A10868  22.999  15.688  14.635
 9696POPC   C1B10869  22.562  15.373  14.303
 9696POPC   C2B10870  22.739  15.445  14.365
 9696POPC   C3B10871  22.915  15.517  14.426
 9696POPC   C4B10872  23.091  15.589  14.488
 9697POPC   NC310873   2.624  19.900   3.665
 9697POPC   PO410874   2.519  20.047   3.579
 9697POPC   GL110875   2.414  20.194   3.493
 9697POPC   GL210876   2.488  20.259   3.514
 9697POPC   C1A10877   2.309  20.341   3.407
 9697POPC   D2A10878   2.205  20.488   3.321
 9697POPC   C3A10879   2.100  20.635   3.235
 9697POPC   C4A10880   1.995  20.782   3.149
 9697POPC   C1B10881   2.223  20.382   3.583
 9697POPC   C2B10882   2.118  20.529   3.497
 9697POPC   C3B10883   2.013  20.676   3.411
 9697POPC   C4B10884   1.908  20.823   3.325
 9698POPC   NC310885   6.597  20.118   1.143
 9698POPC   PO410886   6.555  20.268   1.018
 9698POPC   GL110887   6.513  20.418   0.893
 9698POPC   GL210888   6.574  20.478   0.944
 9698POPC   C1A10889   6.471  20.568   0.767
 9698POPC   D2A10890   6.429  20.718   0.642
 9698POPC   C3A10891   6.387  20.868   0.516
 9698POPC   C4A10892   6.345  21.018   0.391
 9698POPC   C1B10893   6.318  20.623   0.884
 9698POPC   C2B10894   6.276  20.773   0.759
 9698POPC   C3B10895   6.234  20.923   0.633
 9698POPC   C4B10896   6.192  21.073   0.508
 9699POPC   NC310897   5.329   9.499  -3.161
 9699POPC   PO410898   5.264   9.493  -3.350
 9699POPC   GL110899   5.199   9.487  -3.539
 9699POPC   GL210900   5.190   9.388  -3.533
 9699POPC   C1A10901   5.135   9.481  -3.728
 9699POPC   D2A10902   5.070   9.474  -3.918
 9699POPC   C3A10903   5.006   9.468  -4.107
 9699POPC   C4A10904   4.941   9.462  -4.296
 9699POPC   C1B10905   5.323   9.458  -3.792
 9699POPC   C2B10906   5.258   9.452  -3.981
 9699POPC   C3B10907   5.194   9.446  -4.170
 9699POPC   C4B10908   5.129   9.439  -4.360
 9700POPC   NC310909  12.098   2.708  21.524
 9700POPC   PO410910  12.129   2.594  21.686
 9700POPC   GL110911  12.160   2.480  21.848
 9700POPC   GL210912  12.259   2.493  21.838
 9700POPC   C1A10913  12.191   2.367  22.009
 9700POPC   D2A10914  12.223   2.253  22.171
 9700POPC   C3A10915  12.254   2.140  22.332
 9700POPC   C4A10916  12.285   2.026  22.494
 9700POPC   C1B10917  12.201   2.204  21.893
 9700POPC   C2B10918  12.232   2.091  22.055
 9700POPC   C3B10919  12.263   1.977  22.216
 9700POPC   C4B10920  12.295   1.864  22.378
 9701POPC   NC310921   6.283  12.867  -3.173
 9701POPC   PO410922   6.231  12.908  -3.362
 9701POPC   GL110923   6.179  12.949  -3.551
 9701POPC   GL210924   6.250  13.019  -3.555
 9701POPC   C1A10925   6.127  12.990  -3.740
 9701POPC   D2A10926   6.075  13.030  -3.928
 9701POPC   C3A10927   6.023  13.071  -4.117
 9701POPC   C4A10928   5.971  13.112  -4.306
 9701POPC   C1B10929   5.997  13.127  -3.674
 9701POPC   C2B10930   5.945  13.167  -3.863
 9701POPC   C3B10931   5.893  13.208  -4.052
 9701POPC   C4B10932   5.841  13.249  -4.240
 9702POPC   NC310933   8.287  -0.506   1.032
 9702POPC   PO410934   8.263  -0.658   0.904
 9702POPC   GL110935   8.239  -0.810   0.776
 9702POPC   GL210936   8.332  -0.797   0.743
 9702POPC   C1A10937   8.214  -0.962   0.649
 9702POPC   D2A10938   8.190  -1.115   0.521
 9702POPC   C3A10939   8.165  -1.267   0.394
 9702POPC   C4A10940   8.141  -1.419   0.266
 9702POPC   C1B10941   8.146  -0.835   0.510
 9702POPC   C2B10942   8.121  -0.988   0.383
 9702POPC   C3B10943   8.097  -1.140   0.255
 9702POPC   C4B10944   8.072  -1.292   0.128
 9703POPC   NC310945   3.394   8.370  22.165
 9703POPC   PO410946   3.300   8.338  22.338
 9703POPC   GL110947   3.206   8.306  22.511
 9703POPC   GL210948   3.266   8.228  22.530
 9703POPC   C1A10949   3.112   8.274  22.685
 9703POPC   D2A10950   3.017   8.241  22.858
 9703POPC   C3A10951   2.923   8.209  23.032
 9703POPC   C4A10952   2.829   8.177  23.205
 9703POPC   C1B10953   2.982   8.152  22.592
 9703POPC   C2B10954   2.888   8.120  22.766
 9703POPC   C3B10955   2.794   8.088  22.939
 9703POPC   C4B10956   2.700   8.056  23.112
 9704POPC   NC310957   9.262  -2.480  16.003
 9704POPC   PO410958   9.250  -2.659  16.091
 9704POPC   GL110959   9.238  -2.838  16.179
 9704POPC   GL210960   9.335  -2.854  16.160
 9704POPC   C1A10961   9.226  -3.017  16.267
 9704POPC   D2A10962   9.215  -3.197  16.354
 9704POPC   C3A10963   9.203  -3.376  16.442
 9704POPC   C4A10964   9.191  -3.555  16.530
 9704POPC   C1B10965   9.180  -3.101  16.091
 9704POPC   C2B10966   9.168  -3.280  16.179
 9704POPC   C3B10967   9.156  -3.459  16.266
 9704POPC   C4B10968   9.145  -3.638  16.354
 9705POPC   NC310969  16.446  20.170   3.316
 9705POPC   PO410970  16.545  20.312   3.216
 9705POPC   GL110971  16.644  20.454   3.116
 9705POPC   GL210972  16.598  20.426   3.031
 9705POPC   C1A10973  16.743  20.595   3.015
 9705POPC   D2A10974  16.843  20.737   2.915
 9705POPC   C3A10975  16.942  20.878   2.814
 9705POPC   C4A10976  17.041  21.020   2.714
 9705POPC   C1B10977  16.890  20.465   2.977
 9705POPC   C2B10978  16.990  20.607   2.877
 9705POPC   C3B10979  17.089  20.748   2.776
 9705POPC   C4B10980  17.188  20.890   2.676
 9706POPC   NC310981  -1.585   6.171  16.926
 9706POPC   PO410982  -1.747   6.118  17.031
 9706POPC   GL110983  -1.909   6.065  17.136
 9706POPC   GL210984  -1.850   6.032  17.210
 9706POPC   C1A10985  -2.071   6.012  17.240
 9706POPC   D2A10986  -2.233   5.960  17.345
 9706POPC   C3A10987  -2.395   5.907  17.449
 9706POPC   C4A10988  -2.557   5.854  17.554
 9706POPC   C1B10989  -2.066   5.831  17.156
 9706POPC   C2B10990  -2.228   5.778  17.260
 9706POPC   C3B10991  -2.390   5.726  17.365
 9706POPC   C4B10992  -2.552   5.673  17.470
 9707POPC   NC310993  -0.510   9.213  19.057
 9707POPC   PO410994  -0.661   9.207  19.188
 9707POPC   GL110995  -0.812   9.201  19.319
 9707POPC   GL210996  -0.778   9.114  19.355
 9707POPC   C1A10997  -0.963   9.195  19.450
 9707POPC   D2A10998  -1.115   9.190  19.580
 9707POPC   C3A10999  -1.266   9.184  19.711
 9707POPC   C4A11000  -1.417   9.178  19.842
 9707POPC   C1B11001  -1.075   9.096  19.317
 9707POPC   C2B11002  -1.226   9.090  19.447
 9707POPC   C3B11003  -1.377   9.084  19.578
 9707POPC   C4B11004  -1.528   9.079  19.709
 9708POPC   NC311005  14.278  21.153  16.797
 9708POPC   PO411006  14.343  21.315  16.895
 9708POPC   GL111007  14.408  21.477  16.993
 9708POPC   GL211008  14.444  21.418  17.066
 9708POPC   C1A11009  14.472  21.639  17.092
 9708POPC   D2A11010  14.537  21.800  17.190
 9708POPC   C3A11011  14.601  21.962  17.289
 9708POPC   C4A11012  14.666  22.124  17.387
 9708POPC   C1B11013  14.298  21.649  17.189
 9708POPC   C2B11014  14.362  21.811  17.287
 9708POPC   C3B11015  14.427  21.973  17.386
 9708POPC   C4B11016  14.491  22.135  17.484
 9709POPC   NC311017  -2.789  15.711   9.905
 9709POPC   PO411018  -2.972  15.791   9.906
 9709POPC   GL111019  -3.155  15.871   9.907
 9709POPC   GL211020  -3.115  15.962   9.914
 9709POPC   C1A11021  -3.339  15.951   9.909
 9709POPC   D2A11022  -3.522  16.030   9.910
 9709POPC   C3A11023  -3.706  16.110   9.912
 9709POPC   C4A11024  -3.889  16.190   9.913
 9709POPC   C1B11025  -3.343  15.937  10.108
 9709POPC   C2B11026  -3.527  16.017  10.110
 9709POPC   C3B11027  -3.710  16.097  10.111
 9709POPC   C4B11028  -3.893  16.177  10.113
 9710POPC   NC311029   1.343   0.379  15.235
 9710POPC   PO411030   1.220   0.243  15.315
 9710POPC   GL111031   1.097   0.107  15.395
 9710POPC   GL211032   1.158   0.034  15.363
 9710POPC   C1A11033   0.975  -0.029  15.475
 9710POPC   D2A11034   0.852  -0.166  15.556
 9710POPC   C3A11035   0.730  -0.302  15.636
 9710POPC   C4A11036   0.607  -0.438  15.716
 9710POPC   C1B11037   0.873  -0.039  15.304
 9710POPC   C2B11038   0.750  -0.175  15.384
 9710POPC   C3B11039   0.628  -0.311  15.464
 9710POPC   C4B11040   0.505  -0.447  15.544
 9711POPC   NC311041  15.959  18.621  18.967
 9711POPC   PO411042  16.048  18.745  19.096
 9711POPC   GL111043  16.137  18.869  19.225
 9711POPC   GL211044  16.212  18.804  19.237
 9711POPC   C1A11045  16.226  18.994  19.354
 9711POPC   D2A11046  16.314  19.118  19.484
 9711POPC   C3A11047  16.403  19.243  19.613
 9711POPC   C4A11048  16.492  19.367  19.742
 9711POPC   C1B11049  16.127  18.907  19.505
 9711POPC   C2B11050  16.216  19.032  19.635
 9711POPC   C3B11051  16.305  19.156  19.764
 9711POPC   C4B11052  16.393  19.280  19.893
 9712POPC   NC311053   4.163  21.387  15.305
 9712POPC   PO411054   4.077  21.552  15.379
 9712POPC   GL111055   3.991  21.717  15.453
 9712POPC   GL211056   4.075  21.768  15.435
 9712POPC   C1A11057   3.905  21.881  15.528
 9712POPC   D2A11058   3.820  22.046  15.602
 9712POPC   C3A11059   3.734  22.210  15.677
 9712POPC   C4A11060   3.648  22.375  15.751
 9712POPC   C1B11061   3.974  21.835  15.710
 9712POPC   C2B11062   3.888  21.999  15.784
 9712POPC   C3B11063   3.802  22.164  15.859
 9712POPC   C4B11064   3.717  22.329  15.933
 9713POPC   NC311065  20.620  18.755   9.693
 9713POPC   PO411066  20.781  18.873   9.686
 9713POPC   GL111067  20.942  18.991   9.679
 9713POPC   GL211068  20.903  19.040   9.600
 9713POPC   C1A11069  21.103  19.109   9.671
 9713POPC   D2A11070  21.265  19.227   9.664
 9713POPC   C3A11071  21.426  19.345   9.656
 9713POPC   C4A11072  21.587  19.463   9.649
 9713POPC   C1B11073  21.192  18.980   9.546
 9713POPC   C2B11074  21.353  19.098   9.539
 9713POPC   C3B11075  21.514  19.216   9.532
 9713POPC   C4B11076  21.676  19.334   9.524
 9714POPC   NC311077  -1.839  13.807   3.627
 9714POPC   PO411078  -2.011  13.867   3.545
 9714POPC   GL111079  -2.183  13.927   3.463
 9714POPC   GL211080  -2.214  13.961   3.552
 9714POPC   C1A11081  -2.355  13.987   3.381
 9714POPC   D2A11082  -2.528  14.048   3.300
 9714POPC   C3A11083  -2.700  14.108   3.218
 9714POPC   C4A11084  -2.872  14.168   3.136
 9714POPC   C1B11085  -2.437  13.809   3.422
 9714POPC   C2B11086  -2.609  13.869   3.340
 9714POPC   C3B11087  -2.781  13.930   3.258
 9714POPC   C4B11088  -2.953  13.990   3.176
 9715POPC   NC311089   7.348  -2.926  14.353
 9715POPC   PO411090   7.313  -3.112  14.418
 9715POPC   GL111091   7.278  -3.298  14.483
 9715POPC   GL211092   7.368  -3.326  14.450
 9715POPC   C1A11093   7.243  -3.484  14.547
 9715POPC   D2A11094   7.208  -3.670  14.612
 9715POPC   C3A11095   7.173  -3.856  14.676
 9715POPC   C4A11096   7.138  -4.042  14.741
 9715POPC   C1B11097   7.163  -3.531  14.370
 9715POPC   C2B11098   7.128  -3.717  14.434
 9715POPC   C3B11099   7.093  -3.903  14.499
 9715POPC   C4B11100   7.058  -4.089  14.564
 9716POPC   NC311101   6.924  -1.695  16.809
 9716POPC   PO411102   6.884  -1.864  16.909
 9716POPC   GL111103   6.844  -2.033  17.009
 9716POPC   GL211104   6.911  -2.082  16.953
 9716POPC   C1A11105   6.804  -2.201  17.109
 9716POPC   D2A11106   6.764  -2.370  17.209
 9716POPC   C3A11107   6.724  -2.538  17.309
 9716POPC   C4A11108   6.684  -2.707  17.409
 9716POPC   C1B11109   6.661  -2.246  16.977
 9716POPC   C2B11110   6.621  -2.414  17.077
 9716POPC   C3B11111   6.581  -2.583  17.177
 9716POPC   C4B11112   6.541  -2.751  17.277
 9717POPC   NC311113  -1.110  18.499   9.175
 9717POPC   PO411114  -1.265  18.625   9.168
 9717POPC   GL111115  -1.420  18.751   9.161
 9717POPC   GL211116  -1.389  18.794   9.246
 9717POPC   C1A11117  -1.576  18.876   9.155
 9717POPC   D2A11118  -1.731  19.002   9.148
 9717POPC   C3A11119  -1.887  19.127   9.142
 9717POPC   C4A11120  -2.042  19.253   9.135
 9717POPC   C1B11121  -1.685  18.747   9.261
 9717POPC   C2B11122  -1.840  18.872   9.255
 9717POPC   C3B11123  -1.996  18.998   9.248
 9717POPC   C4B11124  -2.151  19.123   9.241
 9718POPC   NC311125  -3.662   7.666   7.697
 9718POPC   PO411126  -3.857   7.635   7.663
 9718POPC   GL111127  -4.052   7.604   7.629
 9718POPC   GL211128  -4.073   7.634   7.722
 9718POPC   C1A11129  -4.246   7.573   7.595
 9718POPC   D2A11130  -4.441   7.542   7.560
 9718POPC   C3A11131  -4.635   7.511   7.526
 9718POPC   C4A11132  -4.830   7.480   7.492
 9718POPC   C1B11133  -4.228   7.385   7.659
 9718POPC   C2B11134  -4.422   7.354   7.625
 9718POPC   C3B11135  -4.617   7.323   7.591
 9718POPC   C4B11136  -4.811   7.292   7.556
 9719POPC   NC311137  10.122  22.728  15.448
 9719POPC   PO411138  10.126  22.911  15.528
 9719POPC   GL111139  10.130  23.094  15.608
 9719POPC   GL211140  10.208  23.068  15.665
 9719POPC   C1A11141  10.133  23.277  15.689
 9719POPC   D2A11142  10.137  23.461  15.769
 9719POPC   C3A11143  10.140  23.644  15.850
 9719POPC   C4A11144  10.144  23.827  15.930
 9719POPC   C1B11145  10.009  23.216  15.833
 9719POPC   C2B11146  10.013  23.400  15.914
 9719POPC   C3B11147  10.016  23.583  15.994
 9719POPC   C4B11148  10.020  23.766  16.075
 9720POPC   NC311149  11.759  23.129  13.846
 9720POPC   PO411150  11.787  23.320  13.898
 9720POPC   GL111151  11.815  23.511  13.950
 9720POPC   GL211152  11.913  23.501  13.935
 9720POPC   C1A11153  11.843  23.702  14.002
 9720POPC   D2A11154  11.872  23.893  14.055
 9720POPC   C3A11155  11.900  24.084  14.107
 9720POPC   C4A11156  11.928  24.275  14.159
 9720POPC   C1B11157  11.867  23.646  14.193
 9720POPC   C2B11158  11.895  23.837  14.245
 9720POPC   C3B11159  11.924  24.028  14.297
 9720POPC   C4B11160  11.952  24.219  14.350
 9721POPC   NC311161  20.392   3.431  16.236
 9721POPC   PO411162  20.545   3.341  16.328
 9721POPC   GL111163  20.698   3.251  16.420
 9721POPC   GL211164  20.762   3.299  16.361
 9721POPC   C1A11165  20.851   3.160  16.512
 9721POPC   D2A11166  21.003   3.070  16.605
 9721POPC   C3A11167  21.156   2.979  16.697
 9721POPC   C4A11168  21.309   2.889  16.789
 9721POPC   C1B11169  20.842   3.011  16.380
 9721POPC   C2B11170  20.995   2.920  16.472
 9721POPC   C3B11171  21.148   2.830  16.564
 9721POPC   C4B11172  21.301   2.740  16.656
 9722POPC   NC311173  -1.955  12.023   2.885
 9722POPC   PO411174  -2.129  12.049   2.790
 9722POPC   GL111175  -2.303  12.075   2.695
 9722POPC   GL211176  -2.347  12.011   2.758
 9722POPC   C1A11177  -2.477  12.101   2.600
 9722POPC   D2A11178  -2.651  12.126   2.504
 9722POPC   C3A11179  -2.825  12.152   2.409
 9722POPC   C4A11180  -2.999  12.178   2.314
 9722POPC   C1B11181  -2.433  11.948   2.478
 9722POPC   C2B11182  -2.607  11.974   2.383
 9722POPC   C3B11183  -2.781  12.000   2.287
 9722POPC   C4B11184  -2.955  12.026   2.192
 9723POPC   NC311185  -0.486  14.801  17.850
 9723POPC   PO411186  -0.630  14.875  17.968
 9723POPC   GL111187  -0.774  14.949  18.086
 9723POPC   GL211188  -0.721  15.033  18.098
 9723POPC   C1A11189  -0.918  15.022  18.203
 9723POPC   D2A11190  -1.062  15.096  18.321
 9723POPC   C3A11191  -1.206  15.169  18.438
 9723POPC   C4A11192  -1.350  15.243  18.556
 9723POPC   C1B11193  -0.828  14.943  18.363
 9723POPC   C2B11194  -0.972  15.016  18.481
 9723POPC   C3B11195  -1.116  15.090  18.598
 9723POPC   C4B11196  -1.260  15.163  18.716
 9724POPC   NC311197   6.273  -3.384  10.435
 9724POPC   PO411198   6.223  -3.577  10.443
 9724POPC   GL111199   6.173  -3.770  10.451
 9724POPC   GL211200   6.207  -3.776  10.545
 9724POPC   C1A11201   6.123  -3.964  10.459
 9724POPC   D2A11202   6.072  -4.157  10.466
 9724POPC   C3A11203   6.022  -4.351  10.474
 9724POPC   C4A11204   5.972  -4.544  10.482
 9724POPC   C1B11205   6.303  -4.014  10.389
 9724POPC   C2B11206   6.253  -4.207  10.397
 9724POPC   C3B11207   6.203  -4.400  10.405
 9724POPC   C4B11208   6.153  -4.594  10.412
 9725POPC   NC311209  21.036  14.585   3.127
 9725POPC   PO411210  21.197  14.650   3.027
 9725POPC   GL111211  21.358  14.715   2.927
 9725POPC   GL211212  21.311  14.700   2.841
 9725POPC   C1A11213  21.519  14.780   2.828
 9725POPC   D2A11214  21.680  14.844   2.728
 9725POPC   C3A11215  21.841  14.909   2.629
 9725POPC   C4A11216  22.002  14.974   2.529
 9725POPC   C1B11217  21.590  14.593   2.821
 9725POPC   C2B11218  21.751  14.658   2.722
 9725POPC   C3B11219  21.912  14.722   2.622
 9725POPC   C4B11220  22.073  14.787   2.522
 9726POPC   NC311221   8.759  23.537   7.226
 9726POPC   PO411222   8.747  23.734   7.191
 9726POPC   GL111223   8.735  23.931   7.156
 9726POPC   GL211224   8.816  23.946   7.212
 9726POPC   C1A11225   8.723  24.127   7.121
 9726POPC   D2A11226   8.712  24.324   7.085
 9726POPC   C3A11227   8.700  24.520   7.050
 9726POPC   C4A11228   8.688  24.717   7.015
 9726POPC   C1B11229   8.607  24.149   7.281
 9726POPC   C2B11230   8.595  24.346   7.246
 9726POPC   C3B11231   8.583  24.542   7.211
 9726POPC   C4B11232   8.571  24.739   7.176
 9727POPC   NC311233   7.843  -2.992  14.416
 9727POPC   PO411234   7.812  -3.178  14.484
 9727POPC   GL111235   7.781  -3.364  14.552
 9727POPC   GL211236   7.864  -3.395  14.506
 9727POPC   C1A11237   7.751  -3.549  14.620
 9727POPC   D2A11238   7.720  -3.735  14.689
 9727POPC   C3A11239   7.690  -3.920  14.757
 9727POPC   C4A11240   7.659  -4.106  14.825
 9727POPC   C1B11241   7.643  -3.591  14.457
 9727POPC   C2B11242   7.612  -3.777  14.525
 9727POPC   C3B11243   7.582  -3.963  14.594
 9727POPC   C4B11244   7.551  -4.148  14.662
 9728POPC   NC311245   8.164   5.136  -2.908
 9728POPC   PO411246   8.147   5.070  -3.096
 9728POPC   GL111247   8.130   5.004  -3.284
 9728POPC   GL211248   8.209   5.059  -3.310
 9728POPC   C1A11249   8.113   4.938  -3.472
 9728POPC   D2A11250   8.097   4.872  -3.660
 9728POPC   C3A11251   8.080   4.806  -3.848
 9728POPC   C4A11252   8.063   4.740  -4.036
 9728POPC   C1B11253   7.993   5.092  -3.515
 9728POPC   C2B11254   7.976   5.026  -3.703
 9728POPC   C3B11255   7.959   4.960  -3.891
 9728POPC   C4B11256   7.942   4.894  -4.079
 9729POPC   NC311257  21.405  10.050   2.382
 9729POPC   PO411258  21.569  10.053   2.268
 9729POPC   GL111259  21.733  10.056   2.154
 9729POPC   GL211260  21.729   9.956   2.146
 9729POPC   C1A11261  21.897  10.058   2.040
 9729POPC   D2A11262  22.062  10.061   1.925
 9729POPC   C3A11263  22.226  10.063   1.811
 9729POPC   C4A11264  22.390  10.066   1.697
 9729POPC   C1B11265  22.011  10.041   2.203
 9729POPC   C2B11266  22.176  10.043   2.089
 9729POPC   C3B11267  22.340  10.046   1.975
 9729POPC   C4B11268  22.504  10.048   1.860
 9730POPC   NC311269   6.620  16.277  21.915
 9730POPC   PO411270   6.577  16.373  22.085
 9730POPC   GL111271   6.534  16.469  22.255
 9730POPC   GL211272   6.586  16.548  22.223
 9730POPC   C1A11273   6.491  16.565  22.425
 9730POPC   D2A11274   6.447  16.662  22.595
 9730POPC   C3A11275   6.404  16.758  22.765
 9730POPC   C4A11276   6.361  16.854  22.935
 9730POPC   C1B11277   6.656  16.491  22.509
 9730POPC   C2B11278   6.613  16.587  22.679
 9730POPC   C3B11279   6.569  16.683  22.849
 9730POPC   C4B11280   6.526  16.779  23.019
 9731POPC   NC311281  23.553   8.560  10.745
 9731POPC   PO411282  23.752   8.544  10.753
 9731POPC   GL111283  23.951   8.528  10.761
 9731POPC   GL211284  23.960   8.602  10.693
 9731POPC   C1A11285  24.150   8.513  10.769
 9731POPC   D2A11286  24.350   8.497  10.777
 9731POPC   C3A11287  24.549   8.482  10.785
 9731POPC   C4A11288  24.748   8.466  10.793
 9731POPC   C1B11289  24.146   8.378  10.622
 9731POPC   C2B11290  24.345   8.362  10.630
 9731POPC   C3B11291  24.544   8.346  10.638
 9731POPC   C4B11292  24.743   8.331  10.646
 9732POPC   NC311293  21.206  12.071   2.329
 9732POPC   PO411294  21.369  12.096   2.215
 9732POPC   GL111295  21.532  12.121   2.101
 9732POPC   GL211296  21.479  12.179   2.039
 9732POPC   C1A11297  21.694  12.146   1.988
 9732POPC   D2A11298  21.857  12.171   1.874
 9732POPC   C3A11299  22.019  12.196   1.761
 9732POPC   C4A11300  22.182  12.221   1.647
 9732POPC   C1B11301  21.644  11.985   1.880
 9732POPC   C2B11302  21.806  12.010   1.766
 9732POPC   C3B11303  21.969  12.035   1.653
 9732POPC   C4B11304  22.131  12.060   1.539
 9733POPC   NC311305  17.119  21.266   6.332
 9733POPC   PO411306  17.216  21.435   6.289
 9733POPC   GL111307  17.313  21.604   6.246
 9733POPC   GL211308  17.373  21.591   6.325
 9733POPC   C1A11309  17.410  21.774   6.203
 9733POPC   D2A11310  17.508  21.943   6.159
 9733POPC   C3A11311  17.605  22.113   6.116
 9733POPC   C4A11312  17.702  22.282   6.073
 9733POPC   C1B11313  17.282  21.876   6.317
 9733POPC   C2B11314  17.379  22.046   6.274
 9733POPC   C3B11315  17.477  22.215   6.230
 9733POPC   C4B11316  17.574  22.385   6.187
 9734POPC   NC311317   8.814  22.795  15.165
 9734POPC   PO411318   8.797  22.979  15.241
 9734POPC   GL111319   8.780  23.163  15.317
 9734POPC   GL211320   8.860  23.192  15.266
 9734POPC   C1A11321   8.762  23.347  15.394
 9734POPC   D2A11322   8.745  23.531  15.470
 9734POPC   C3A11323   8.727  23.715  15.547
 9734POPC   C4A11324   8.710  23.899  15.623
 9734POPC   C1B11325   8.879  23.294  15.548
 9734POPC   C2B11326   8.861  23.478  15.624
 9734POPC   C3B11327   8.844  23.662  15.700
 9734POPC   C4B11328   8.826  23.846  15.777
 9735POPC   NC311329   3.678   8.270  22.295
 9735POPC   PO411330   3.589   8.237  22.471
 9735POPC   GL111331   3.500   8.204  22.647
 9735POPC   GL211332   3.581   8.154  22.679
 9735POPC   C1A11333   3.411   8.172  22.823
 9735POPC   D2A11334   3.322   8.139  23.000
 9735POPC   C3A11335   3.233   8.107  23.176
 9735POPC   C4A11336   3.144   8.074  23.352
 9735POPC   C1B11337   3.332   8.002  22.752
 9735POPC   C2B11338   3.243   7.970  22.928
 9735POPC   C3B11339   3.154   7.937  23.105
 9735POPC   C4B11340   3.065   7.904  23.281
 9736POPC   NC311341  16.080  19.440  17.933
 9736POPC   PO411342  16.173  19.583  18.038
 9736POPC   GL111343  16.266  19.726  18.143
 9736POPC   GL211344  16.342  19.663  18.161
 9736POPC   C1A11345  16.359  19.868  18.248
 9736POPC   D2A11346  16.451  20.011  18.354
 9736POPC   C3A11347  16.544  20.153  18.459
 9736POPC   C4A11348  16.637  20.296  18.564
 9736POPC   C1B11349  16.268  19.805  18.415
 9736POPC   C2B11350  16.360  19.947  18.520
 9736POPC   C3B11351  16.453  20.090  18.625
 9736POPC   C4B11352  16.546  20.232  18.730
 9737POPC   NC311353  14.829  14.718  21.984
 9737POPC   PO411354  14.899  14.791  22.157
 9737POPC   GL111355  14.969  14.864  22.330
 9737POPC   GL211356  14.982  14.953  22.287
 9737POPC   C1A11357  15.039  14.936  22.503
 9737POPC   D2A11358  15.109  15.009  22.675
 9737POPC   C3A11359  15.179  15.081  22.848
 9737POPC   C4A11360  15.249  15.154  23.021
 9737POPC   C1B11361  15.224  14.883  22.450
 9737POPC   C2B11362  15.294  14.956  22.623
 9737POPC   C3B11363  15.364  15.028  22.795
 9737POPC   C4B11364  15.434  15.101  22.968
 9738POPC   NC311365  23.140  13.976   9.912
 9738POPC   PO411366  23.330  14.038   9.911
 9738POPC   GL111367  23.520  14.100   9.910
 9738POPC   GL211368  23.534  14.055   9.822
 9738POPC   C1A11369  23.710  14.162   9.909
 9738POPC   D2A11370  23.901  14.224   9.907
 9738POPC   C3A11371  24.091  14.286   9.906
 9738POPC   C4A11372  24.281  14.348   9.905
 9738POPC   C1B11373  23.766  13.995  10.003
 9738POPC   C2B11374  23.956  14.057  10.002
 9738POPC   C3B11375  24.146  14.119  10.001
 9738POPC   C4B11376  24.336  14.181   9.999
 9739POPC   NC311377  18.288  19.768   4.960
 9739POPC   PO411378  18.413  19.901   4.878
 9739POPC   GL111379  18.538  20.034   4.796
 9739POPC   GL211380  18.584  19.960   4.747
 9739POPC   C1A11381  18.663  20.166   4.714
 9739POPC   D2A11382  18.788  20.299   4.631
 9739POPC   C3A11383  18.913  20.431   4.549
 9739POPC   C4A11384  19.038  20.564   4.467
 9739POPC   C1B11385  18.789  20.143   4.867
 9739POPC   C2B11386  18.914  20.276   4.785
 9739POPC   C3B11387  19.039  20.408   4.703
 9739POPC   C4B11388  19.164  20.541   4.621
 9740POPC   NC311389  15.664   4.469  -1.394
 9740POPC   PO411390  15.753   4.399  -1.559
 9740POPC   GL111391  15.842   4.329  -1.724
 9740POPC   GL211392  15.865   4.422  -1.751
 9740POPC   C1A11393  15.931   4.258  -1.889
 9740POPC   D2A11394  16.020   4.188  -2.053
 9740POPC   C3A11395  16.109   4.117  -2.218
 9740POPC   C4A11396  16.198   4.047  -2.383
 9740POPC   C1B11397  15.758   4.271  -1.988
 9740POPC   C2B11398  15.847   4.201  -2.152
 9740POPC   C3B11399  15.936   4.131  -2.317
 9740POPC   C4B11400  16.025   4.060  -2.482
 9741POPC   NC311401  20.546   3.810  16.335
 9741POPC   PO411402  20.700   3.725  16.430
 9741POPC   GL111403  20.854   3.640  16.525
 9741POPC   GL211404  20.912   3.717  16.499
 9741POPC   C1A11405  21.008   3.556  16.621
 9741POPC   D2A11406  21.162   3.471  16.716
 9741POPC   C3A11407  21.316   3.387  16.812
 9741POPC   C4A11408  21.470   3.302  16.907
 9741POPC   C1B11409  21.059   3.460  16.453
 9741POPC   C2B11410  21.213   3.375  16.548
 9741POPC   C3B11411  21.367   3.291  16.644
 9741POPC   C4B11412  21.521   3.206  16.739
 9742POPC   NC311413   0.633   3.953  18.253
 9742POPC   PO411414   0.504   3.868  18.380
 9742POPC   GL111415   0.375   3.783  18.507
 9742POPC   GL211416   0.448   3.723  18.540
 9742POPC   C1A11417   0.246   3.698  18.634
 9742POPC   D2A11418   0.117   3.612  18.761
 9742POPC   C3A11419  -0.012   3.527  18.888
 9742POPC   C4A11420  -0.141   3.442  19.015
 9742POPC   C1B11421   0.198   3.563  18.495
 9742POPC   C2B11422   0.069   3.477  18.622
 9742POPC   C3B11423  -0.060   3.392  18.749
 9742POPC   C4B11424  -0.189   3.307  18.876
 9743POPC   NC311425  22.016   3.363  10.723
 9743POPC   PO411426  22.191   3.267  10.734
 9743POPC   GL111427  22.366   3.171  10.745
 9743POPC   GL211428  22.407   3.240  10.685
 9743POPC   C1A11429  22.541   3.075  10.756
 9743POPC   D2A11430  22.717   2.980  10.766
 9743POPC   C3A11431  22.892   2.884  10.777
 9743POPC   C4A11432  23.067   2.788  10.788
 9743POPC   C1B11433  22.491   2.965  10.596
 9743POPC   C2B11434  22.666   2.870  10.607
 9743POPC   C3B11435  22.841   2.774  10.618
 9743POPC   C4B11436  23.017   2.678  10.629
 9744POPC   NC311437   5.092  15.713  21.694
 9744POPC   PO411438   5.018  15.798  21.859
 9744POPC   GL111439   4.944  15.883  22.024
 9744POPC   GL211440   4.985  15.811  22.080
 9744POPC   C1A11441   4.869  15.968  22.189
 9744POPC   D2A11442   4.795  16.053  22.354
 9744POPC   C3A11443   4.720  16.138  22.519
 9744POPC   C4A11444   4.646  16.223  22.684
 9744POPC   C1B11445   4.703  15.857  22.171
 9744POPC   C2B11446   4.629  15.942  22.336
 9744POPC   C3B11447   4.555  16.027  22.501
 9744POPC   C4B11448   4.480  16.112  22.666
 9745POPC   NC311449   5.706  -2.446  14.490
 9745POPC   PO411450   5.644  -2.625  14.555
 9745POPC   GL111451   5.582  -2.804  14.620
 9745POPC   GL211452   5.674  -2.824  14.653
 9745POPC   C1A11453   5.520  -2.983  14.684
 9745POPC   D2A11454   5.457  -3.161  14.749
 9745POPC   C3A11455   5.395  -3.340  14.813
 9745POPC   C4A11456   5.333  -3.519  14.878
 9745POPC   C1B11457   5.566  -3.063  14.507
 9745POPC   C2B11458   5.503  -3.241  14.571
 9745POPC   C3B11459   5.441  -3.420  14.636
 9745POPC   C4B11460   5.379  -3.599  14.701
 9746POPC   NC311461   6.348   2.492  -1.215
 9746POPC   PO411462   6.291   2.377  -1.369
 9746POPC   GL111463   6.234   2.262  -1.523
 9746POPC   GL211464   6.209   2.189  -1.459
 9746POPC   C1A11465   6.177   2.148  -1.676
 9746POPC   D2A11466   6.119   2.033  -1.830
 9746POPC   C3A11467   6.062   1.919  -1.983
 9746POPC   C4A11468   6.005   1.804  -2.137
 9746POPC   C1B11469   6.362   2.074  -1.690
 9746POPC   C2B11470   6.305   1.959  -1.843
 9746POPC   C3B11471   6.247   1.844  -1.997
 9746POPC   C4B11472   6.190   1.730  -2.151
 9747POPC   NC311473  19.336   1.638   4.191
 9747POPC   PO411474  19.472   1.519   4.106
 9747POPC   GL111475  19.608   1.400   4.021
 9747POPC   GL211476  19.679   1.469   4.038
 9747POPC   C1A11477  19.745   1.281   3.937
 9747POPC   D2A11478  19.881   1.161   3.852
 9747POPC   C3A11479  20.018   1.042   3.768
 9747POPC   C4A11480  20.154   0.923   3.683
 9747POPC   C1B11481  19.706   1.363   3.759
 9747POPC   C2B11482  19.843   1.244   3.674
 9747POPC   C3B11483  19.979   1.125   3.590
 9747POPC   C4B11484  20.116   1.005   3.505
 9748POPC   NC311485   0.607  11.820  20.050
 9748POPC   PO411486   0.477  11.851  20.199
 9748POPC   GL111487   0.347  11.882  20.348
 9748POPC   GL211488   0.402  11.823  20.408
 9748POPC   C1A11489   0.218  11.914  20.497
 9748POPC   D2A11490   0.088  11.945  20.647
 9748POPC   C3A11491  -0.041  11.977  20.796
 9748POPC   C4A11492  -0.171  12.008  20.945
 9748POPC   C1B11493   0.110  11.756  20.437
 9748POPC   C2B11494  -0.019  11.787  20.586
 9748POPC   C3B11495  -0.149  11.819  20.736
 9748POPC   C4B11496  -0.278  11.850  20.885
 9749POPC   NC311497   9.901  23.061   5.269
 9749POPC   PO411498   9.906  23.251   5.205
 9749POPC   GL111499   9.911  23.441   5.141
 9749POPC   GL211500   9.934  23.471   5.234
 9749POPC   C1A11501   9.916  23.630   5.077
 9749POPC   D2A11502   9.921  23.820   5.014
 9749POPC   C3A11503   9.926  24.009   4.950
 9749POPC   C4A11504   9.931  24.199   4.886
 9749POPC   C1B11505   9.721  23.650   5.120
 9749POPC   C2B11506   9.726  23.839   5.056
 9749POPC   C3B11507   9.731  24.029   4.992
 9749POPC   C4B11508   9.736  24.218   4.928
 9750POPC   NC311509   7.224  17.113  -1.705
 9750POPC   PO411510   7.186  17.214  -1.874
 9750POPC   GL111511   7.148  17.315  -2.043
 9750POPC   GL211512   7.236  17.286  -2.080
 9750POPC   C1A11513   7.111  17.416  -2.211
 9750POPC   D2A11514   7.073  17.517  -2.380
 9750POPC   C3A11515   7.036  17.618  -2.548
 9750POPC   C4A11516   6.998  17.719  -2.717
 9750POPC   C1B11517   7.198  17.578  -2.133
 9750POPC   C2B11518   7.161  17.679  -2.302
 9750POPC   C3B11519   7.123  17.780  -2.471
 9750POPC   C4B11520   7.085  17.881  -2.639
 9751POPC   NC311521  23.597   9.036  10.307
 9751POPC   PO411522  23.797   9.025  10.311
 9751POPC   GL111523  23.997   9.014  10.315
 9751POPC   GL211524  24.002   9.095  10.257
 9751POPC   C1A11525  24.196   9.003  10.319
 9751POPC   D2A11526  24.396   8.992  10.322
 9751POPC   C3A11527  24.595   8.981  10.326
 9751POPC   C4A11528  24.795   8.970  10.330
 9751POPC   C1B11529  24.193   8.888  10.155
 9751POPC   C2B11530  24.393   8.877  10.159
 9751POPC   C3B11531  24.592   8.866  10.163
 9751POPC   C4B11532  24.792   8.855  10.167
 9752POPC   NC311533   9.330  -2.181  16.581
 9752POPC   PO411534   9.320  -2.355  16.679
 9752POPC   GL111535   9.310  -2.529  16.777
 9752POPC   GL211536   9.394  -2.559  16.733
 9752POPC   C1A11537   9.300  -2.703  16.875
 9752POPC   D2A11538   9.289  -2.877  16.974
 9752POPC   C3A11539   9.279  -3.051  17.072
 9752POPC   C4A11540   9.269  -3.225  17.170
 9752POPC   C1B11541   9.192  -2.781  16.726
 9752POPC   C2B11542   9.182  -2.955  16.824
 9752POPC   C3B11543   9.172  -3.129  16.922
 9752POPC   C4B11544   9.162  -3.303  17.020
 9753POPC   NC311545   4.031   7.046  22.188
 9753POPC   PO411546   3.945   6.999  22.362
 9753POPC   GL111547   3.859   6.952  22.536
 9753POPC   GL211548   3.905   6.862  22.534
 9753POPC   C1A11549   3.774   6.904  22.711
 9753POPC   D2A11550   3.688   6.857  22.885
 9753POPC   C3A11551   3.603   6.809  23.060
 9753POPC   C4A11552   3.517   6.762  23.234
 9753POPC   C1B11553   3.617   6.827  22.613
 9753POPC   C2B11554   3.532   6.779  22.787
 9753POPC   C3B11555   3.446   6.732  22.962
 9753POPC   C4B11556   3.361   6.685  23.136
 9754POPC   NC311557  -0.478   8.986  19.081
 9754POPC   PO411558  -0.629   8.977  19.212
 9754POPC   GL111559  -0.780   8.968  19.343
 9754POPC   GL211560  -0.740   8.886  19.384
 9754POPC   C1A11561  -0.931   8.959  19.474
 9754POPC   D2A11562  -1.081   8.949  19.605
 9754POPC   C3A11563  -1.232   8.940  19.736
 9754POPC   C4A11564  -1.383   8.931  19.867
 9754POPC   C1B11565  -1.035   8.845  19.346
 9754POPC   C2B11566  -1.185   8.836  19.477
 9754POPC   C3B11567  -1.336   8.827  19.608
 9754POPC   C4B11568  -1.487   8.817  19.739
 9755POPC   NC311569   4.857  11.691  22.669
 9755POPC   PO411570   4.796  11.711  22.859
 9755POPC   GL111571   4.735  11.731  23.049
 9755POPC   GL211572   4.798  11.808  23.061
 9755POPC   C1A11573   4.675  11.751  23.238
 9755POPC   D2A11574   4.614  11.771  23.428
 9755POPC   C3A11575   4.554  11.791  23.617
 9755POPC   C4A11576   4.493  11.811  23.807
 9755POPC   C1B11577   4.818  11.624  23.297
 9755POPC   C2B11578   4.757  11.644  23.487
 9755POPC   C3B11579   4.697  11.664  23.676
 9755POPC   C4B11580   4.636  11.684  23.866
 9756POPC   NC311581  16.362   6.769  -1.806
 9756POPC   PO411582  16.453   6.726  -1.979
 9756POPC   GL111583  16.544   6.683  -2.152
 9756POPC   GL211584  16.539   6.780  -2.178
 9756POPC   C1A11585  16.635   6.641  -2.325
 9756POPC   D2A11586  16.727   6.598  -2.497
 9756POPC   C3A11587  16.818   6.556  -2.670
 9756POPC   C4A11588  16.909   6.513  -2.843
 9756POPC   C1B11589  16.458   6.607  -2.410
 9756POPC   C2B11590  16.549   6.565  -2.583
 9756POPC   C3B11591  16.640   6.522  -2.756
 9756POPC   C4B11592  16.731   6.480  -2.928
 9757POPC   NC311593   6.242   8.303  -3.338
 9757POPC   PO411594   6.194   8.280  -3.531
 9757POPC   GL111595   6.146   8.257  -3.724
 9757POPC   GL211596   6.088   8.179  -3.700
 9757POPC   C1A11597   6.097   8.234  -3.917
 9757POPC   D2A11598   6.049   8.211  -4.109
 9757POPC   C3A11599   6.000   8.188  -4.302
 9757POPC   C4A11600   5.952   8.165  -4.495
 9757POPC   C1B11601   6.253   8.111  -3.941
 9757POPC   C2B11602   6.205   8.088  -4.134
 9757POPC   C3B11603   6.157   8.065  -4.327
 9757POPC   C4B11604   6.108   8.042  -4.520
 9758POPC   NC311605  16.619   2.521  19.429
 9758POPC   PO411606  16.719   2.414  19.565
 9758POPC   GL111607  16.819   2.307  19.701
 9758POPC   GL211608  16.899   2.305  19.640
 9758POPC   C1A11609  16.919   2.200  19.837
 9758POPC   D2A11610  17.020   2.092  19.972
 9758POPC   C3A11611  17.120   1.985  20.108
 9758POPC   C4A11612  17.220   1.878  20.244
 9758POPC   C1B11613  16.852   2.031  19.753
 9758POPC   C2B11614  16.952   1.924  19.889
 9758POPC   C3B11615  17.053   1.816  20.025
 9758POPC   C4B11616  17.153   1.709  20.160
 9759POPC   NC311617   9.557  18.766  20.648
 9759POPC   PO411618   9.550  18.894  20.801
 9759POPC   GL111619   9.543  19.022  20.954
 9759POPC   GL211620   9.593  19.090  20.900
 9759POPC   C1A11621   9.536  19.151  21.107
 9759POPC   D2A11622   9.529  19.279  21.261
 9759POPC   C3A11623   9.522  19.408  21.414
 9759POPC   C4A11624   9.515  19.536  21.567
 9759POPC   C1B11625   9.709  19.078  21.177
 9759POPC   C2B11626   9.702  19.206  21.330
 9759POPC   C3B11627   9.695  19.334  21.483
 9759POPC   C4B11628   9.688  19.463  21.636
 9760POPC   NC311629  21.001   2.797  13.989
 9760POPC   PO411630  21.161   2.689  14.043
 9760POPC   GL111631  21.321   2.581  14.097
 9760POPC   GL211632  21.348   2.573  14.001
 9760POPC   C1A11633  21.480   2.473  14.151
 9760POPC   D2A11634  21.640   2.366  14.204
 9760POPC   C3A11635  21.799   2.258  14.258
 9760POPC   C4A11636  21.959   2.150  14.312
 9760POPC   C1B11637  21.373   2.306  14.134
 9760POPC   C2B11638  21.532   2.198  14.188
 9760POPC   C3B11639  21.692   2.090  14.241
 9760POPC   C4B11640  21.851   1.982  14.295
 9761POPC   NC311641   6.449  23.457  10.292
 9761POPC   PO411642   6.401  23.651  10.297
 9761POPC   GL111643   6.353  23.845  10.302
 9761POPC   GL211644   6.392  23.853  10.393
 9761POPC   C1A11645   6.305  24.039  10.306
 9761POPC   D2A11646   6.258  24.234  10.311
 9761POPC   C3A11647   6.210  24.428  10.315
 9761POPC   C4A11648   6.162  24.622  10.320
 9761POPC   C1B11649   6.128  23.994  10.385
 9761POPC   C2B11650   6.080  24.188  10.390
 9761POPC   C3B11651   6.032  24.382  10.395
 9761POPC   C4B11652   5.984  24.576  10.399
 9762POPC   NC311653  13.425   8.856  -3.435
 9762POPC   PO411654  13.487   8.837  -3.624
 9762POPC   GL111655  13.549   8.818  -3.813
 9762POPC   GL211656  13.564   8.916  -3.818
 9762POPC   C1A11657  13.611   8.798  -4.002
 9762POPC   D2A11658  13.672   8.779  -4.192
 9762POPC   C3A11659  13.734   8.759  -4.381
 9762POPC   C4A11660  13.796   8.740  -4.570
 9762POPC   C1B11661  13.423   8.824  -4.066
 9762POPC   C2B11662  13.485   8.804  -4.255
 9762POPC   C3B11663  13.546   8.785  -4.445
 9762POPC   C4B11664  13.608   8.765  -4.634
 9763POPC   NC311665  12.847  19.952   0.686
 9763POPC   PO411666  12.885  20.094   0.551
 9763POPC   GL111667  12.923  20.236   0.416
 9763POPC   GL211668  12.965  20.168   0.356
 9763POPC   C1A11669  12.961  20.379   0.281
 9763POPC   D2A11670  12.999  20.521   0.145
 9763POPC   C3A11671  13.037  20.664   0.010
 9763POPC   C4A11672  13.075  20.806  -0.125
 9763POPC   C1B11673  13.139  20.413   0.366
 9763POPC   C2B11674  13.177  20.555   0.231
 9763POPC   C3B11675  13.215  20.697   0.096
 9763POPC   C4B11676  13.253  20.840  -0.040
 9764POPC   NC311677   0.245   9.919   0.049
 9764POPC   PO411678   0.105   9.918  -0.094
 9764POPC   GL111679  -0.035   9.917  -0.237
 9764POPC   GL211680  -0.062  10.010  -0.211
 9764POPC   C1A11681  -0.175   9.916  -0.380
 9764POPC   D2A11682  -0.314   9.916  -0.523
 9764POPC   C3A11683  -0.454   9.915  -0.666
 9764POPC   C4A11684  -0.594   9.914  -0.809
 9764POPC   C1B11685  -0.307   9.840  -0.250
 9764POPC   C2B11686  -0.446   9.839  -0.393
 9764POPC   C3B11687  -0.586   9.839  -0.536
 9764POPC   C4B11688  -0.726   9.838  -0.679
 9765POPC   NC311689   4.543  20.412   2.575
 9765POPC   PO411690   4.466  20.564   2.470
 9765POPC   GL111691   4.389  20.716   2.365
 9765POPC   GL211692   4.425  20.781   2.432
 9765POPC   C1A11693   4.313  20.868   2.259
 9765POPC   D2A11694   4.236  21.019   2.154
 9765POPC   C3A11695   4.160  21.171   2.048
 9765POPC   C4A11696   4.083  21.323   1.943
 9765POPC   C1B11697   4.143  20.854   2.363
 9765POPC   C2B11698   4.066  21.006   2.258
 9765POPC   C3B11699   3.989  21.158   2.153
 9765POPC   C4B11700   3.913  21.310   2.047
 9766POPC   NC311701  18.501   4.705   0.569
 9766POPC   PO411702  18.627   4.626   0.435
 9766POPC   GL111703  18.753   4.547   0.301
 9766POPC   GL211704  18.824   4.610   0.331
 9766POPC   C1A11705  18.879   4.467   0.168
 9766POPC   D2A11706  19.005   4.388   0.034
 9766POPC   C3A11707  19.131   4.308  -0.099
 9766POPC   C4A11708  19.257   4.229  -0.233
 9766POPC   C1B11709  18.817   4.599   0.031
 9766POPC   C2B11710  18.943   4.520  -0.103
 9766POPC   C3B11711  19.069   4.440  -0.236
 9766POPC   C4B11712  19.195   4.361  -0.370
 9767POPC   NC311713  22.145  11.838  16.093
 9767POPC   PO411714  22.325  11.865  16.176
 9767POPC   GL111715  22.505  11.892  16.259
 9767POPC   GL211716  22.546  11.834  16.189
 9767POPC   C1A11717  22.685  11.919  16.343
 9767POPC   D2A11718  22.864  11.946  16.426
 9767POPC   C3A11719  23.044  11.973  16.510
 9767POPC   C4A11720  23.224  12.000  16.593
 9767POPC   C1B11721  22.655  11.758  16.458
 9767POPC   C2B11722  22.835  11.785  16.542
 9767POPC   C3B11723  23.015  11.812  16.625
 9767POPC   C4B11724  23.194  11.839  16.709
 9768POPC   NC311725   8.956   6.466  23.260
 9768POPC   PO411726   8.939   6.409  23.451
 9768POPC   GL111727   8.922   6.352  23.642
 9768POPC   GL211728   8.949   6.259  23.616
 9768POPC   C1A11729   8.904   6.294  23.833
 9768POPC   D2A11730   8.887   6.237  24.023
 9768POPC   C3A11731   8.869   6.179  24.214
 9768POPC   C4A11732   8.852   6.122  24.405
 9768POPC   C1B11733   8.713   6.246  23.801
 9768POPC   C2B11734   8.695   6.189  23.992
 9768POPC   C3B11735   8.678   6.132  24.182
 9768POPC   C4B11736   8.660   6.074  24.373
 9769POPC   NC311737  11.662  14.067  -3.154
 9769POPC   PO411738  11.688  14.128  -3.343
 9769POPC   GL111739  11.714  14.189  -3.532
 9769POPC   GL211740  11.801  14.139  -3.536
 9769POPC   C1A11741  11.740  14.250  -3.720
 9769POPC   D2A11742  11.767  14.312  -3.909
 9769POPC   C3A11743  11.793  14.373  -4.097
 9769POPC   C4A11744  11.819  14.434  -4.286
 9769POPC   C1B11745  11.837  14.413  -3.654
 9769POPC   C2B11746  11.863  14.474  -3.843
 9769POPC   C3B11747  11.889  14.535  -4.031
 9769POPC   C4B11748  11.915  14.596  -4.220
 9770POPC   NC311749  14.982  13.762  -2.410
 9770POPC   PO411750  15.052  13.818  -2.589
 9770POPC   GL111751  15.122  13.874  -2.768
 9770POPC   GL211752  15.161  13.783  -2.781
 9770POPC   C1A11753  15.191  13.930  -2.947
 9770POPC   D2A11754  15.261  13.985  -3.126
 9770POPC   C3A11755  15.330  14.041  -3.305
 9770POPC   C4A11756  15.400  14.097  -3.484
 9770POPC   C1B11757  15.361  13.992  -2.862
 9770POPC   C2B11758  15.430  14.048  -3.041
 9770POPC   C3B11759  15.500  14.104  -3.220
 9770POPC   C4B11760  15.570  14.160  -3.399
 9771POPC   NC311761  20.451   3.522   3.735
 9771POPC   PO411762  20.600   3.428   3.641
 9771POPC   GL111763  20.749   3.334   3.547
 9771POPC   GL211764  20.804   3.418   3.549
 9771POPC   C1A11765  20.898   3.240   3.452
 9771POPC   D2A11766  21.048   3.147   3.358
 9771POPC   C3A11767  21.197   3.053   3.263
 9771POPC   C4A11768  21.346   2.959   3.169
 9771POPC   C1B11769  20.822   3.296   3.276
 9771POPC   C2B11770  20.971   3.202   3.182
 9771POPC   C3B11771  21.120   3.108   3.087
 9771POPC   C4B11772  21.269   3.014   2.993
 9772POPC   NC311773  13.965  -1.994   4.327
 9772POPC   PO411774  14.031  -2.166   4.249
 9772POPC   GL111775  14.097  -2.338   4.171
 9772POPC   GL211776  14.177  -2.291   4.134
 9772POPC   C1A11777  14.162  -2.510   4.094
 9772POPC   D2A11778  14.228  -2.683   4.016
 9772POPC   C3A11779  14.293  -2.855   3.939
 9772POPC   C4A11780  14.359  -3.027   3.861
 9772POPC   C1B11781  14.062  -2.473   3.925
 9772POPC   C2B11782  14.127  -2.645   3.847
 9772POPC   C3B11783  14.193  -2.817   3.770
 9772POPC   C4B11784  14.259  -2.989   3.692
 9773POPC   NC311785  15.287  22.063  14.021
 9773POPC   PO411786  15.362  22.237  14.086
 9773POPC   GL111787  15.437  22.411  14.151
 9773POPC   GL211788  15.485  22.423  14.063
 9773POPC   C1A11789  15.513  22.584  14.215
 9773POPC   D2A11790  15.588  22.758  14.280
 9773POPC   C3A11791  15.664  22.931  14.344
 9773POPC   C4A11792  15.739  23.105  14.409
 9773POPC   C1B11793  15.672  22.488  14.288
 9773POPC   C2B11794  15.748  22.661  14.352
 9773POPC   C3B11795  15.823  22.835  14.417
 9773POPC   C4B11796  15.899  23.009  14.482
 9774POPC   NC311797  20.008   1.285  13.490
 9774POPC   PO411798  20.158   1.162  13.539
 9774POPC   GL111799  20.308   1.039  13.588
 9774POPC   GL211800  20.367   1.118  13.607
 9774POPC   C1A11801  20.457   0.916  13.638
 9774POPC   D2A11802  20.607   0.792  13.687
 9774POPC   C3A11803  20.756   0.669  13.737
 9774POPC   C4A11804  20.906   0.546  13.786
 9774POPC   C1B11805  20.518   0.914  13.447
 9774POPC   C2B11806  20.668   0.790  13.497
 9774POPC   C3B11807  20.818   0.667  13.546
 9774POPC   C4B11808  20.967   0.544  13.596
 9775POPC   NC311809  15.348  22.458   7.752
 9775POPC   PO411810  15.430  22.638   7.724
 9775POPC   GL111811  15.512  22.818   7.696
 9775POPC   GL211812  15.588  22.776   7.646
 9775POPC   C1A11813  15.594  22.998   7.667
 9775POPC   D2A11814  15.676  23.179   7.639
 9775POPC   C3A11815  15.758  23.359   7.610
 9775POPC   C4A11816  15.840  23.539   7.582
 9775POPC   C1B11817  15.695  22.979   7.839
 9775POPC   C2B11818  15.777  23.160   7.810
 9775POPC   C3B11819  15.859  23.340   7.782
 9775POPC   C4B11820  15.941  23.520   7.754
 9776POPC   NC311821  15.470  16.916  20.548
 9776POPC   PO411822  15.551  17.013  20.703
 9776POPC   GL111823  15.632  17.110  20.858
 9776POPC   GL211824  15.654  17.023  20.901
 9776POPC   C1A11825  15.714  17.207  21.012
 9776POPC   D2A11826  15.795  17.305  21.167
 9776POPC   C3A11827  15.877  17.402  21.321
 9776POPC   C4A11828  15.958  17.499  21.476
 9776POPC   C1B11829  15.536  17.210  21.104
 9776POPC   C2B11830  15.618  17.307  21.259
 9776POPC   C3B11831  15.699  17.404  21.414
 9776POPC   C4B11832  15.781  17.501  21.568
 9777POPC   NC311833  11.031  19.957   0.418
 9777POPC   PO411834  11.042  20.099   0.278
 9777POPC   GL111835  11.053  20.241   0.138
 9777POPC   GL211836  11.152  20.245   0.149
 9777POPC   C1A11837  11.063  20.384  -0.002
 9777POPC   D2A11838  11.074  20.526  -0.142
 9777POPC   C3A11839  11.084  20.669  -0.282
 9777POPC   C4A11840  11.095  20.811  -0.422
 9777POPC   C1B11841  11.042  20.524   0.139
 9777POPC   C2B11842  11.053  20.666  -0.001
 9777POPC   C3B11843  11.063  20.809  -0.141
 9777POPC   C4B11844  11.074  20.951  -0.281
 9778POPC   NC311845  21.893   3.440  12.141
 9778POPC   PO411846  22.067   3.346  12.173
 9778POPC   GL111847  22.241   3.252  12.205
 9778POPC   GL211848  22.218   3.185  12.134
 9778POPC   C1A11849  22.415   3.159  12.236
 9778POPC   D2A11850  22.588   3.065  12.268
 9778POPC   C3A11851  22.762   2.972  12.299
 9778POPC   C4A11852  22.936   2.878  12.331
 9778POPC   C1B11853  22.327   3.044  12.374
 9778POPC   C2B11854  22.501   2.950  12.406
 9778POPC   C3B11855  22.675   2.856  12.438
 9778POPC   C4B11856  22.849   2.763  12.469
 9779POPC   NC311857   9.055   6.869  -3.482
 9779POPC   PO411858   9.045   6.821  -3.676
 9779POPC   GL111859   9.035   6.773  -3.870
 9779POPC   GL211860   9.123   6.818  -3.886
 9779POPC   C1A11861   9.025   6.725  -4.064
 9779POPC   D2A11862   9.014   6.678  -4.258
 9779POPC   C3A11863   9.004   6.630  -4.452
 9779POPC   C4A11864   8.994   6.582  -4.646
 9779POPC   C1B11865   8.929   6.897  -4.101
 9779POPC   C2B11866   8.919   6.849  -4.295
 9779POPC   C3B11867   8.909   6.802  -4.489
 9779POPC   C4B11868   8.899   6.754  -4.683
 9780POPC   NC311869   2.888  15.912  -0.477
 9780POPC   PO411870   2.789  15.991  -0.631
 9780POPC   GL111871   2.690  16.070  -0.785
 9780POPC   GL211872   2.717  16.162  -0.756
 9780POPC   C1A11873   2.590  16.150  -0.940
 9780POPC   D2A11874   2.491  16.229  -1.094
 9780POPC   C3A11875   2.391  16.309  -1.249
 9780POPC   C4A11876   2.292  16.388  -1.403
 9780POPC   C1B11877   2.425  16.162  -0.827
 9780POPC   C2B11878   2.326  16.241  -0.982
 9780POPC   C3B11879   2.226  16.321  -1.136
 9780POPC   C4B11880   2.127  16.400  -1.291
 9781POPC   NC311881  11.855  23.497   7.705
 9781POPC   PO411882  11.885  23.692   7.670
 9781POPC   GL111883  11.915  23.887   7.635
 9781POPC   GL211884  11.985  23.889   7.706
 9781POPC   C1A11885  11.945  24.081   7.599
 9781POPC   D2A11886  11.976  24.276   7.564
 9781POPC   C3A11887  12.006  24.470   7.528
 9781POPC   C4A11888  12.036  24.665   7.493
 9781POPC   C1B11889  11.805  24.128   7.734
 9781POPC   C2B11890  11.835  24.322   7.699
 9781POPC   C3B11891  11.866  24.517   7.663
 9781POPC   C4B11892  11.896  24.711   7.628
 9782POPC   NC311893  -3.531  11.862   7.234
 9782POPC   PO411894  -3.725  11.888   7.191
 9782POPC   GL111895  -3.919  11.914   7.148
 9782POPC   GL211896  -3.942  11.903   7.244
 9782POPC   C1A11897  -4.112  11.940   7.105
 9782POPC   D2A11898  -4.306  11.966   7.061
 9782POPC   C3A11899  -4.499  11.992   7.018
 9782POPC   C4A11900  -4.693  12.018   6.975
 9782POPC   C1B11901  -4.133  11.743   7.078
 9782POPC   C2B11902  -4.326  11.769   7.035
 9782POPC   C3B11903  -4.520  11.795   6.991
 9782POPC   C4B11904  -4.714  11.821   6.948
 9783POPC   NC311905   9.116   2.903  -1.961
 9783POPC   PO411906   9.113   2.804  -2.135
 9783POPC   GL111907   9.110   2.705  -2.309
 9783POPC   GL211908   9.188   2.759  -2.341
 9783POPC   C1A11909   9.106   2.606  -2.482
 9783POPC   D2A11910   9.103   2.507  -2.656
 9783POPC   C3A11911   9.099   2.408  -2.829
 9783POPC   C4A11912   9.096   2.309  -3.003
 9783POPC   C1B11913   8.981   2.743  -2.558
 9783POPC   C2B11914   8.978   2.644  -2.731
 9783POPC   C3B11915   8.975   2.545  -2.905
 9783POPC   C4B11916   8.971   2.446  -3.079
 9784POPC   NC311917  17.503   2.675   1.021
 9784POPC   PO411918  17.621   2.574   0.894
 9784POPC   GL111919  17.739   2.473   0.767
 9784POPC   GL211920  17.663   2.467   0.702
 9784POPC   C1A11921  17.856   2.373   0.641
 9784POPC   D2A11922  17.974   2.272   0.514
 9784POPC   C3A11923  18.091   2.172   0.388
 9784POPC   C4A11924  18.209   2.071   0.261
 9784POPC   C1B11925  17.799   2.200   0.725
 9784POPC   C2B11926  17.916   2.100   0.598
 9784POPC   C3B11927  18.034   1.999   0.471
 9784POPC   C4B11928  18.152   1.899   0.345
 9785POPC   NC311929  19.025  -0.022   7.075
 9785POPC   PO411930  19.157  -0.166   7.033
 9785POPC   GL111931  19.289  -0.310   6.991
 9785POPC   GL211932  19.306  -0.269   6.902
 9785POPC   C1A11933  19.422  -0.454   6.950
 9785POPC   D2A11934  19.554  -0.598   6.908
 9785POPC   C3A11935  19.687  -0.742   6.867
 9785POPC   C4A11936  19.819  -0.886   6.825
 9785POPC   C1B11937  19.276  -0.565   6.871
 9785POPC   C2B11938  19.408  -0.709   6.829
 9785POPC   C3B11939  19.541  -0.853   6.787
 9785POPC   C4B11940  19.673  -0.997   6.746
 9786POPC   NC311941  13.490   0.482  19.239
 9786POPC   PO411942  13.536   0.343  19.375
 9786POPC   GL111943  13.582   0.204  19.511
 9786POPC   GL211944  13.586   0.135  19.439
 9786POPC   C1A11945  13.628   0.065  19.647
 9786POPC   D2A11946  13.673  -0.075  19.784
 9786POPC   C3A11947  13.719  -0.214  19.920
 9786POPC   C4A11948  13.765  -0.353  20.056
 9786POPC   C1B11949  13.433   0.026  19.673
 9786POPC   C2B11950  13.479  -0.114  19.809
 9786POPC   C3B11951  13.525  -0.253  19.946
 9786POPC   C4B11952  13.571  -0.392  20.082
 9787POPC   NC311953   5.681  19.842  18.671
 9787POPC   PO411954   5.625  19.984  18.800
 9787POPC   GL111955   5.569  20.126  18.929
 9787POPC   GL211956   5.630  20.191  18.884
 9787POPC   C1A11957   5.512  20.268  19.058
 9787POPC   D2A11958   5.456  20.410  19.188
 9787POPC   C3A11959   5.399  20.552  19.317
 9787POPC   C4A11960   5.343  20.694  19.446
 9787POPC   C1B11961   5.660  20.215  19.182
 9787POPC   C2B11962   5.604  20.357  19.311
 9787POPC   C3B11963   5.547  20.499  19.440
 9787POPC   C4B11964   5.491  20.641  19.569
 9788POPC   NC311965   0.623  13.171   0.115
 9788POPC   PO411966   0.495  13.211  -0.034
 9788POPC   GL111967   0.367  13.251  -0.183
 9788POPC   GL211968   0.293  13.259  -0.116
 9788POPC   C1A11969   0.239  13.290  -0.331
 9788POPC   D2A11970   0.111  13.330  -0.480
 9788POPC   C3A11971  -0.017  13.369  -0.628
 9788POPC   C4A11972  -0.145  13.409  -0.777
 9788POPC   C1B11973   0.200  13.095  -0.350
 9788POPC   C2B11974   0.072  13.135  -0.498
 9788POPC   C3B11975  -0.056  13.174  -0.647
 9788POPC   C4B11976  -0.184  13.214  -0.795
 9789POPC   NC311977   9.989  10.367  -3.925
 9789POPC   PO411978   9.985  10.371  -4.125
 9789POPC   GL111979   9.981  10.375  -4.325
 9789POPC   GL211980  10.080  10.390  -4.326
 9789POPC   C1A11981   9.978  10.379  -4.525
 9789POPC   D2A11982   9.974  10.382  -4.725
 9789POPC   C3A11983   9.971  10.386  -4.925
 9789POPC   C4A11984   9.967  10.390  -5.125
 9789POPC   C1B11985   9.947  10.576  -4.521
 9789POPC   C2B11986   9.944  10.580  -4.721
 9789POPC   C3B11987   9.940  10.584  -4.921
 9789POPC   C4B11988   9.937  10.588  -5.121
 9790POPC   NC311989  16.083  -1.385   5.164
 9790POPC   PO411990  16.170  -1.552   5.096
 9790POPC   GL111991  16.257  -1.719   5.028
 9790POPC   GL211992  16.347  -1.681   5.051
 9790POPC   C1A11993  16.345  -1.885   4.960
 9790POPC   D2A11994  16.432  -2.052   4.893
 9790POPC   C3A11995  16.520  -2.218   4.825
 9790POPC   C4A11996  16.607  -2.385   4.757
 9790POPC   C1B11997  16.357  -1.804   4.778
 9790POPC   C2B11998  16.444  -1.971   4.710
 9790POPC   C3B11999  16.532  -2.138   4.642
 9790POPC   C4B12000  16.619  -2.304   4.574
 9791POPC   NC312001   8.318  15.228  22.693
 9791POPC   PO412002   8.300  15.297  22.880
 9791POPC   GL112003   8.282  15.366  23.067
 9791POPC   GL212004   8.367  15.418  23.056
 9791POPC   C1A12005   8.264  15.435  23.254
 9791POPC   D2A12006   8.245  15.505  23.440
 9791POPC   C3A12007   8.227  15.574  23.627
 9791POPC   C4A12008   8.209  15.643  23.814
 9791POPC   C1B12009   8.367  15.278  23.322
 9791POPC   C2B12010   8.349  15.347  23.509
 9791POPC   C3B12011   8.330  15.417  23.695
 9791POPC   C4B12012   8.312  15.486  23.882
 9792POPC   NC312013  12.498  15.139  22.445
 9792POPC   PO412014  12.533  15.213  22.627
 9792POPC   GL112015  12.568  15.287  22.809
 9792POPC   GL212016  12.610  15.201  22.837
 9792POPC   C1A12017  12.603  15.361  22.992
 9792POPC   D2A12018  12.638  15.436  23.174
 9792POPC   C3A12019  12.673  15.510  23.357
 9792POPC   C4A12020  12.708  15.584  23.539
 9792POPC   C1B12021  12.425  15.295  23.053
 9792POPC   C2B12022  12.460  15.369  23.235
 9792POPC   C3B12023  12.495  15.443  23.418
 9792POPC   C4B12024  12.530  15.517  23.600
 9793POPC   NC312025   9.043  10.362  -3.888
 9793POPC   PO412026   9.029  10.366  -4.087
 9793POPC   GL112027   9.015  10.370  -4.286
 9793POPC   GL212028   8.917  10.356  -4.280
 9793POPC   C1A12029   9.002  10.374  -4.486
 9793POPC   D2A12030   8.988  10.378  -4.685
 9793POPC   C3A12031   8.975  10.382  -4.885
 9793POPC   C4A12032   8.961  10.386  -5.084
 9793POPC   C1B12033   9.029  10.176  -4.492
 9793POPC   C2B12034   9.015  10.180  -4.691
 9793POPC   C3B12035   9.002  10.184  -4.890
 9793POPC   C4B12036   8.988  10.188  -5.090
 9794POPC   NC312037  22.956  11.003   5.544
 9794POPC   PO412038  23.146  11.013   5.481
 9794POPC   GL112039  23.336  11.023   5.418
 9794POPC   GL212040  23.329  10.930   5.382
 9794POPC   C1A12041  23.525  11.033   5.356
 9794POPC   D2A12042  23.715  11.042   5.293
 9794POPC   C3A12043  23.904  11.052   5.231
 9794POPC   C4A12044  24.094  11.062   5.168
 9794POPC   C1B12045  23.587  10.960   5.532
 9794POPC   C2B12046  23.777  10.970   5.469
 9794POPC   C3B12047  23.966  10.980   5.406
 9794POPC   C4B12048  24.156  10.990   5.344
 9795POPC   NC312049   8.513   0.853  20.300
 9795POPC   PO412050   8.498   0.720  20.448
 9795POPC   GL112051   8.483   0.587  20.596
 9795POPC   GL212052   8.578   0.603  20.621
 9795POPC   C1A12053   8.467   0.454  20.745
 9795POPC   D2A12054   8.452   0.320  20.893
 9795POPC   C3A12055   8.436   0.187  21.042
 9795POPC   C4A12056   8.421   0.054  21.190
 9795POPC   C1B12057   8.523   0.308  20.620
 9795POPC   C2B12058   8.507   0.175  20.768
 9795POPC   C3B12059   8.492   0.041  20.916
 9795POPC   C4B12060   8.476  -0.092  21.065
 9796POPC   NC312061  -0.966   4.108   3.387
 9796POPC   PO412062  -1.121   4.023   3.293
 9796POPC   GL112063  -1.276   3.938   3.199
 9796POPC   GL212064  -1.227   3.850   3.200
 9796POPC   C1A12065  -1.430   3.852   3.105
 9796POPC   D2A12066  -1.585   3.767   3.012
 9796POPC   C3A12067  -1.739   3.681   2.918
 9796POPC   C4A12068  -1.894   3.596   2.824
 9796POPC   C1B12069  -1.348   3.897   2.929
 9796POPC   C2B12070  -1.502   3.811   2.835
 9796POPC   C3B12071  -1.657   3.726   2.741
 9796POPC   C4B12072  -1.811   3.640   2.647
 9797POPC   NC312073  17.765   2.461  18.427
 9797POPC   PO412074  17.879   2.352  18.550
 9797POPC   GL112075  17.993   2.243  18.673
 9797POPC   GL212076  18.025   2.189  18.595
 9797POPC   C1A12077  18.107   2.134  18.796
 9797POPC   D2A12078  18.221   2.025  18.919
 9797POPC   C3A12079  18.335   1.916  19.042
 9797POPC   C4A12080  18.449   1.807  19.165
 9797POPC   C1B12081  17.955   2.006  18.823
 9797POPC   C2B12082  18.069   1.897  18.946
 9797POPC   C3B12083  18.183   1.788  19.069
 9797POPC   C4B12084  18.297   1.679  19.192
 9798POPC   NC312085  17.859   5.830  -0.560
 9798POPC   PO412086  17.975   5.767  -0.710
 9798POPC   GL112087  18.091   5.704  -0.860
 9798POPC   GL212088  18.151   5.783  -0.847
 9798POPC   C1A12089  18.208   5.640  -1.010
 9798POPC   D2A12090  18.324   5.577  -1.159
 9798POPC   C3A12091  18.441   5.513  -1.309
 9798POPC   C4A12092  18.557   5.450  -1.459
 9798POPC   C1B12093  18.097   5.744  -1.140
 9798POPC   C2B12094  18.214   5.681  -1.289
 9798POPC   C3B12095  18.330   5.618  -1.439
 9798POPC   C4B12096  18.446   5.554  -1.589
 9799POPC   NC312097   7.940  -2.530   4.363
 9799POPC   PO412098   7.913  -2.711   4.282
 9799POPC   GL112099   7.886  -2.892   4.201
 9799POPC   GL212100   7.977  -2.919   4.231
 9799POPC   C1A12101   7.859  -3.073   4.120
 9799POPC   D2A12102   7.831  -3.253   4.038
 9799POPC   C3A12103   7.804  -3.434   3.957
 9799POPC   C4A12104   7.777  -3.615   3.876
 9799POPC   C1B12105   7.936  -3.007   3.947
 9799POPC   C2B12106   7.909  -3.188   3.866
 9799POPC   C3B12107   7.882  -3.368   3.785
 9799POPC   C4B12108   7.855  -3.549   3.704
 9800POPC   NC312109  17.152  -1.303   6.598
 9800POPC   PO412110  17.251  -1.469   6.547
 9800POPC   GL112111  17.350  -1.635   6.496
 9800POPC   GL212112  17.384  -1.590   6.413
 9800POPC   C1A12113  17.450  -1.801   6.445
 9800POPC   D2A12114  17.549  -1.967   6.395
 9800POPC   C3A12115  17.649  -2.133   6.344
 9800POPC   C4A12116  17.748  -2.299   6.293
 9800POPC   C1B12117  17.289  -1.866   6.345
 9800POPC   C2B12118  17.389  -2.032   6.294
 9800POPC   C3B12119  17.488  -2.198   6.244
 9800POPC   C4B12120  17.588  -2.364   6.193
 9801POPC   NC312121   4.155  20.706   3.348
 9801POPC   PO412122   4.068  20.860   3.255
 9801POPC   GL112123   3.981  21.014   3.162
 9801POPC   GL212124   4.024  21.077   3.227
 9801POPC   C1A12125   3.893  21.168   3.070
 9801POPC   D2A12126   3.806  21.323   2.977
 9801POPC   C3A12127   3.718  21.477   2.885
 9801POPC   C4A12128   3.631  21.631   2.792
 9801POPC   C1B12129   3.736  21.152   3.192
 9801POPC   C2B12130   3.648  21.307   3.099
 9801POPC   C3B12131   3.561  21.461   3.007
 9801POPC   C4B12132   3.473  21.615   2.914
 9802POPC   NC312133  13.598  -3.107  12.507
 9802POPC   PO412134  13.654  -3.295  12.547
 9802POPC   GL112135  13.710  -3.483  12.587
 9802POPC   GL212136  13.709  -3.504  12.489
 9802POPC   C1A12137  13.765  -3.671  12.626
 9802POPC   D2A12138  13.821  -3.859  12.666
 9802POPC   C3A12139  13.876  -4.047  12.705
 9802POPC   C4A12140  13.932  -4.235  12.745
 9802POPC   C1B12141  13.573  -3.725  12.640
 9802POPC   C2B12142  13.629  -3.913  12.679
 9802POPC   C3B12143  13.684  -4.101  12.719
 9802POPC   C4B12144  13.740  -4.289  12.759
 9803POPC   NC312145  19.112   6.569   0.210
 9803POPC   PO412146  19.243   6.514   0.069
 9803POPC   GL112147  19.374   6.459  -0.072
 9803POPC   GL212148  19.299   6.422  -0.127
 9803POPC   C1A12149  19.505   6.405  -0.213
 9803POPC   D2A12150  19.635   6.350  -0.354
 9803POPC   C3A12151  19.766   6.296  -0.495
 9803POPC   C4A12152  19.897   6.241  -0.636
 9803POPC   C1B12153  19.527   6.227  -0.124
 9803POPC   C2B12154  19.657   6.173  -0.265
 9803POPC   C3B12155  19.788   6.118  -0.406
 9803POPC   C4B12156  19.919   6.063  -0.547
 9804POPC   NC312157   6.061   4.933  22.221
 9804POPC   PO412158   6.024   4.863  22.405
 9804POPC   GL112159   5.987   4.793  22.589
 9804POPC   GL212160   5.997   4.885  22.626
 9804POPC   C1A12161   5.950   4.723  22.773
 9804POPC   D2A12162   5.914   4.653  22.956
 9804POPC   C3A12163   5.877   4.583  23.140
 9804POPC   C4A12164   5.840   4.513  23.324
 9804POPC   C1B12165   6.146   4.692  22.800
 9804POPC   C2B12166   6.109   4.622  22.984
 9804POPC   C3B12167   6.072   4.552  23.168
 9804POPC   C4B12168   6.036   4.482  23.351
 9805POPC   NC312169   5.379  22.707  13.073
 9805POPC   PO412170   5.314  22.890  13.120
 9805POPC   GL112171   5.249  23.073  13.167
 9805POPC   GL212172   5.280  23.107  13.079
 9805POPC   C1A12173   5.184  23.256  13.215
 9805POPC   D2A12174   5.118  23.439  13.262
 9805POPC   C3A12175   5.053  23.622  13.310
 9805POPC   C4A12176   4.988  23.805  13.357
 9805POPC   C1B12177   5.362  23.299  13.295
 9805POPC   C2B12178   5.297  23.482  13.342
 9805POPC   C3B12179   5.231  23.665  13.390
 9805POPC   C4B12180   5.166  23.848  13.437
 9806POPC   NC312181  18.421  15.972   0.794
 9806POPC   PO412182  18.542  16.060   0.661
 9806POPC   GL112183  18.663  16.148   0.528
 9806POPC   GL212184  18.739  16.092   0.561
 9806POPC   C1A12185  18.784  16.235   0.395
 9806POPC   D2A12186  18.905  16.323   0.262
 9806POPC   C3A12187  19.026  16.410   0.129
 9806POPC   C4A12188  19.147  16.498  -0.004
 9806POPC   C1B12189  18.830  16.376   0.530
 9806POPC   C2B12190  18.951  16.464   0.397
 9806POPC   C3B12191  19.072  16.551   0.264
 9806POPC   C4B12192  19.193  16.639   0.131
 9807POPC   NC312193  -1.171  14.078  17.348
 9807POPC   PO412194  -1.330  14.135  17.455
 9807POPC   GL112195  -1.489  14.192  17.562
 9807POPC   GL212196  -1.454  14.142  17.641
 9807POPC   C1A12197  -1.648  14.249  17.669
 9807POPC   D2A12198  -1.807  14.306  17.777
 9807POPC   C3A12199  -1.966  14.363  17.884
 9807POPC   C4A12200  -2.125  14.420  17.991
 9807POPC   C1B12201  -1.747  14.086  17.609
 9807POPC   C2B12202  -1.906  14.143  17.717
 9807POPC   C3B12203  -2.065  14.200  17.824
 9807POPC   C4B12204  -2.224  14.257  17.931
 9808POPC   NC312205  15.177  19.649  18.352
 9808POPC   PO412206  15.252  19.794  18.468
 9808POPC   GL112207  15.327  19.939  18.584
 9808POPC   GL212208  15.379  19.870  18.635
 9808POPC   C1A12209  15.401  20.083  18.700
 9808POPC   D2A12210  15.476  20.228  18.817
 9808POPC   C3A12211  15.550  20.372  18.933
 9808POPC   C4A12212  15.625  20.517  19.049
 9808POPC   C1B12213  15.248  20.060  18.827
 9808POPC   C2B12214  15.323  20.205  18.943
 9808POPC   C3B12215  15.397  20.350  19.059
 9808POPC   C4B12216  15.472  20.494  19.176
 9809POPC   NC312217   9.230  -0.984  18.376
 9809POPC   PO412218   9.224  -1.141  18.500
 9809POPC   GL112219   9.218  -1.298  18.624
 9809POPC   GL212220   9.268  -1.353  18.557
 9809POPC   C1A12221   9.211  -1.455  18.747
 9809POPC   D2A12222   9.205  -1.613  18.871
 9809POPC   C3A12223   9.198  -1.770  18.994
 9809POPC   C4A12224   9.192  -1.927  19.118
 9809POPC   C1B12225   9.039  -1.514  18.664
 9809POPC   C2B12226   9.033  -1.671  18.788
 9809POPC   C3B12227   9.026  -1.828  18.911
 9809POPC   C4B12228   9.020  -1.985  19.035
 9810POPC   NC312229  12.166   4.829  -2.719
 9810POPC   PO412230  12.196   4.757  -2.903
 9810POPC   GL112231  12.226   4.685  -3.087
 9810POPC   GL212232  12.231   4.778  -3.123
 9810POPC   C1A12233  12.256   4.613  -3.271
 9810POPC   D2A12234  12.286   4.541  -3.456
 9810POPC   C3A12235  12.316   4.469  -3.640
 9810POPC   C4A12236  12.346   4.397  -3.824
 9810POPC   C1B12237  12.059   4.612  -3.303
 9810POPC   C2B12238  12.089   4.540  -3.487
 9810POPC   C3B12239  12.119   4.468  -3.671
 9810POPC   C4B12240  12.149   4.396  -3.856
 9811POPC   NC312241  -3.373   6.032  10.531
 9811POPC   PO412242  -3.564   5.974  10.542
 9811POPC   GL112243  -3.755   5.916  10.553
 9811POPC   GL212244  -3.726   5.831  10.597
 9811POPC   C1A12245  -3.946   5.858  10.564
 9811POPC   D2A12246  -4.137   5.800  10.576
 9811POPC   C3A12247  -4.328   5.742  10.587
 9811POPC   C4A12248  -4.519   5.684  10.598
 9811POPC   C1B12249  -3.930   5.771  10.385
 9811POPC   C2B12250  -4.121   5.713  10.396
 9811POPC   C3B12251  -4.312   5.655  10.407
 9811POPC   C4B12252  -4.503   5.597  10.418
 9812POPC   NC312253  11.119   2.243  21.352
 9812POPC   PO412254  11.138   2.128  21.515
 9812POPC   GL112255  11.157   2.013  21.678
 9812POPC   GL212256  11.235   2.069  21.708
 9812POPC   C1A12257  11.177   1.899  21.841
 9812POPC   D2A12258  11.196   1.784  22.003
 9812POPC   C3A12259  11.216   1.670  22.166
 9812POPC   C4A12260  11.235   1.555  22.329
 9812POPC   C1B12261  11.302   1.778  21.741
 9812POPC   C2B12262  11.321   1.664  21.904
 9812POPC   C3B12263  11.340   1.549  22.067
 9812POPC   C4B12264  11.360   1.435  22.229
 9813POPC   NC312265   9.396  12.509  23.532
 9813POPC   PO412266   9.383  12.544  23.729
 9813POPC   GL112267   9.370  12.579  23.926
 9813POPC   GL212268   9.410  12.489  23.944
 9813POPC   C1A12269   9.357  12.614  24.122
 9813POPC   D2A12270   9.345  12.649  24.319
 9813POPC   C3A12271   9.332  12.684  24.515
 9813POPC   C4A12272   9.319  12.719  24.712
 9813POPC   C1B12273   9.175  12.533  24.125
 9813POPC   C2B12274   9.162  12.568  24.321
 9813POPC   C3B12275   9.149  12.603  24.518
 9813POPC   C4B12276   9.136  12.638  24.715
 9814POPC   NC312277   5.183   2.825  20.916
 9814POPC   PO412278   5.114   2.724  21.074
 9814POPC   GL112279   5.045   2.623  21.232
 9814POPC   GL212280   5.069   2.700  21.292
 9814POPC   C1A12281   4.976   2.522  21.391
 9814POPC   D2A12282   4.907   2.422  21.549
 9814POPC   C3A12283   4.838   2.321  21.708
 9814POPC   C4A12284   4.769   2.220  21.866
 9814POPC   C1B12285   5.157   2.443  21.419
 9814POPC   C2B12286   5.088   2.342  21.578
 9814POPC   C3B12287   5.019   2.241  21.736
 9814POPC   C4B12288   4.950   2.140  21.894
 9815POPC   NC312289  22.887  12.480  13.765
 9815POPC   PO412290  23.075  12.517  13.822
 9815POPC   GL112291  23.263  12.554  13.879
 9815POPC   GL212292  23.283  12.591  13.789
 9815POPC   C1A12293  23.451  12.591  13.937
 9815POPC   D2A12294  23.639  12.627  13.994
 9815POPC   C3A12295  23.827  12.664  14.052
 9815POPC   C4A12296  24.015  12.701  14.109
 9815POPC   C1B12297  23.506  12.409  13.873
 9815POPC   C2B12298  23.694  12.446  13.931
 9815POPC   C3B12299  23.882  12.483  13.988
 9815POPC   C4B12300  24.070  12.519  14.046
 9816POPC   NC312301  14.432  -3.092  10.473
 9816POPC   PO412302  14.504  -3.279  10.479
 9816POPC   GL112303  14.576  -3.466  10.485
 9816POPC   GL212304  14.669  -3.430  10.476
 9816POPC   C1A12305  14.647  -3.652  10.491
 9816POPC   D2A12306  14.719  -3.839  10.497
 9816POPC   C3A12307  14.790  -4.025  10.503
 9816POPC   C4A12308  14.862  -4.212  10.509
 9816POPC   C1B12309  14.632  -3.664  10.292
 9816POPC   C2B12310  14.704  -3.851  10.298
 9816POPC   C3B12311  14.776  -4.037  10.304
 9816POPC   C4B12312  14.847  -4.224  10.310
 9817POPC   NC312313  23.416   7.286  10.343
 9817POPC   PO412314  23.614   7.255  10.346
 9817POPC   GL112315  23.812   7.224  10.349
 9817POPC   GL212316  23.810   7.202  10.252
 9817POPC   C1A12317  24.009   7.194  10.352
 9817POPC   D2A12318  24.207   7.163  10.356
 9817POPC   C3A12319  24.404   7.133  10.359
 9817POPC   C4A12320  24.602   7.102  10.362
 9817POPC   C1B12321  23.979   7.001  10.397
 9817POPC   C2B12322  24.176   6.971  10.400
 9817POPC   C3B12323  24.374   6.940  10.403
 9817POPC   C4B12324  24.571   6.909  10.407
 9818POPC   NC312325  -0.112  16.173   2.543
 9818POPC   PO412326  -0.259  16.263   2.442
 9818POPC   GL112327  -0.406  16.353   2.341
 9818POPC   GL212328  -0.387  16.439   2.389
 9818POPC   C1A12329  -0.554  16.443   2.241
 9818POPC   D2A12330  -0.701  16.534   2.140
 9818POPC   C3A12331  -0.849  16.624   2.040
 9818POPC   C4A12332  -0.996  16.714   1.939
 9818POPC   C1B12333  -0.683  16.393   2.385
 9818POPC   C2B12334  -0.830  16.483   2.284
 9818POPC   C3B12335  -0.978  16.573   2.184
 9818POPC   C4B12336  -1.125  16.664   2.083
 9819POPC   NC312337  12.531  23.584  10.158
 9819POPC   PO412338  12.566  23.781  10.161
 9819POPC   GL112339  12.601  23.978  10.164
 9819POPC   GL212340  12.629  23.971  10.259
 9819POPC   C1A12341  12.637  24.175  10.166
 9819POPC   D2A12342  12.672  24.371  10.169
 9819POPC   C3A12343  12.708  24.568  10.171
 9819POPC   C4A12344  12.743  24.765  10.174
 9819POPC   C1B12345  12.448  24.208  10.223
 9819POPC   C2B12346  12.483  24.405  10.226
 9819POPC   C3B12347  12.519  24.601  10.228
 9819POPC   C4B12348  12.554  24.798  10.231
 9820POPC   NC312349  -3.064  13.251  13.877
 9820POPC   PO412350  -3.251  13.298  13.931
 9820POPC   GL112351  -3.438  13.345  13.985
 9820POPC   GL212352  -3.402  13.395  14.064
 9820POPC   C1A12353  -3.625  13.391  14.039
 9820POPC   D2A12354  -3.811  13.438  14.094
 9820POPC   C3A12355  -3.998  13.484  14.148
 9820POPC   C4A12356  -4.185  13.531  14.202
 9820POPC   C1B12357  -3.634  13.224  14.149
 9820POPC   C2B12358  -3.821  13.271  14.204
 9820POPC   C3B12359  -4.008  13.318  14.258
 9820POPC   C4B12360  -4.195  13.364  14.312
 9821POPC   NC312361  12.748  -1.666   2.980
 9821POPC   PO412362  12.789  -1.832   2.876
 9821POPC   GL112363  12.830  -1.998   2.772
 9821POPC   GL212364  12.861  -1.942   2.695
 9821POPC   C1A12365  12.871  -2.164   2.668
 9821POPC   D2A12366  12.911  -2.329   2.563
 9821POPC   C3A12367  12.952  -2.495   2.459
 9821POPC   C4A12368  12.993  -2.661   2.355
 9821POPC   C1B12369  12.685  -2.163   2.593
 9821POPC   C2B12370  12.726  -2.329   2.489
 9821POPC   C3B12371  12.766  -2.494   2.385
 9821POPC   C4B12372  12.807  -2.660   2.281
 9822POPC   NC312373   9.466  -3.723   8.075
 9822POPC   PO412374   9.456  -3.922   8.053
 9822POPC   GL112375   9.446  -4.121   8.031
 9822POPC   GL212376   9.545  -4.125   8.022
 9822POPC   C1A12377   9.436  -4.319   8.010
 9822POPC   D2A12378   9.426  -4.518   7.988
 9822POPC   C3A12379   9.416  -4.716   7.967
 9822POPC   C4A12380   9.406  -4.915   7.945
 9822POPC   C1B12381   9.419  -4.297   7.812
 9822POPC   C2B12382   9.409  -4.495   7.790
 9822POPC   C3B12383   9.399  -4.694   7.769
 9822POPC   C4B12384   9.389  -4.893   7.747
 9823POPC   NC312385  16.890  21.808  11.112
 9823POPC   PO412386  16.983  21.985  11.116
 9823POPC   GL112387  17.076  22.162  11.120
 9823POPC   GL212388  17.124  22.135  11.203
 9823POPC   C1A12389  17.170  22.339  11.123
 9823POPC   D2A12390  17.263  22.515  11.127
 9823POPC   C3A12391  17.357  22.692  11.130
 9823POPC   C4A12392  17.450  22.869  11.134
 9823POPC   C1B12393  17.021  22.415  11.233
 9823POPC   C2B12394  17.114  22.592  11.237
 9823POPC   C3B12395  17.208  22.769  11.240
 9823POPC   C4B12396  17.301  22.945  11.244
 9824POPC   NC312397   8.296  -3.330  13.570
 9824POPC   PO412398   8.271  -3.522  13.621
 9824POPC   GL112399   8.246  -3.714  13.672
 9824POPC   GL212400   8.334  -3.713  13.719
 9824POPC   C1A12401   8.221  -3.906  13.723
 9824POPC   D2A12402   8.197  -4.097  13.773
 9824POPC   C3A12403   8.172  -4.289  13.824
 9824POPC   C4A12404   8.147  -4.481  13.875
 9824POPC   C1B12405   8.312  -3.962  13.554
 9824POPC   C2B12406   8.287  -4.154  13.604
 9824POPC   C3B12407   8.262  -4.346  13.655
 9824POPC   C4B12408   8.238  -4.538  13.706
 9825POPC   NC312409  -2.277  11.479  16.475
 9825POPC   PO412410  -2.449  11.498  16.575
 9825POPC   GL112411  -2.621  11.517  16.675
 9825POPC   GL212412  -2.612  11.617  16.671
 9825POPC   C1A12413  -2.793  11.536  16.775
 9825POPC   D2A12414  -2.965  11.556  16.876
 9825POPC   C3A12415  -3.137  11.575  16.976
 9825POPC   C4A12416  -3.309  11.594  17.076
 9825POPC   C1B12417  -2.693  11.534  16.948
 9825POPC   C2B12418  -2.865  11.553  17.049
 9825POPC   C3B12419  -3.037  11.572  17.149
 9825POPC   C4B12420  -3.209  11.592  17.249
 9826POPC   NC312421  13.378  -3.270   7.868
 9826POPC   PO412422  13.439  -3.458   7.836
 9826POPC   GL112423  13.500  -3.646   7.804
 9826POPC   GL212424  13.554  -3.643   7.888
 9826POPC   C1A12425  13.561  -3.834   7.772
 9826POPC   D2A12426  13.622  -4.021   7.740
 9826POPC   C3A12427  13.683  -4.209   7.708
 9826POPC   C4A12428  13.744  -4.397   7.676
 9826POPC   C1B12429  13.718  -3.765   7.669
 9826POPC   C2B12430  13.779  -3.953   7.637
 9826POPC   C3B12431  13.840  -4.141   7.605
 9826POPC   C4B12432  13.901  -4.328   7.573
 9827POPC   NC312433   5.453  10.825  22.929
 9827POPC   PO412434   5.397  10.841  23.120
 9827POPC   GL112435   5.341  10.857  23.311
 9827POPC   GL212436   5.348  10.758  23.321
 9827POPC   C1A12437   5.286  10.873  23.503
 9827POPC   D2A12438   5.230  10.889  23.694
 9827POPC   C3A12439   5.175  10.905  23.886
 9827POPC   C4A12440   5.119  10.921  24.077
 9827POPC   C1B12441   5.094  10.855  23.449
 9827POPC   C2B12442   5.038  10.871  23.640
 9827POPC   C3B12443   4.983  10.887  23.831
 9827POPC   C4B12444   4.927  10.903  24.023
 9828POPC   NC312445   4.654  22.734  11.528
 9828POPC   PO412446   4.578  22.917  11.553
 9828POPC   GL112447   4.502  23.100  11.578
 9828POPC   GL212448   4.592  23.140  11.557
 9828POPC   C1A12449   4.427  23.284  11.603
 9828POPC   D2A12450   4.351  23.467  11.629
 9828POPC   C3A12451   4.276  23.651  11.654
 9828POPC   C4A12452   4.200  23.834  11.679
 9828POPC   C1B12453   4.477  23.278  11.797
 9828POPC   C2B12454   4.401  23.461  11.822
 9828POPC   C3B12455   4.325  23.644  11.847
 9828POPC   C4B12456   4.250  23.828  11.873
 9829POPC   NC312457  -2.996  12.275   5.509
 9829POPC   PO412458  -3.183  12.309   5.448
 9829POPC   GL112459  -3.370  12.343   5.387
 9829POPC   GL212460  -3.398  12.363   5.481
 9829POPC   C1A12461  -3.558  12.378   5.326
 9829POPC   D2A12462  -3.745  12.412   5.265
 9829POPC   C3A12463  -3.933  12.447   5.204
 9829POPC   C4A12464  -4.120  12.481   5.143
 9829POPC   C1B12465  -3.602  12.185   5.353
 9829POPC   C2B12466  -3.789  12.219   5.292
 9829POPC   C3B12467  -3.977  12.253   5.231
 9829POPC   C4B12468  -4.164  12.288   5.170
 9830POPC   NC312469  -2.525  10.066  16.141
 9830POPC   PO412470  -2.704  10.063  16.230
 9830POPC   GL112471  -2.883  10.060  16.319
 9830POPC   GL212472  -2.860   9.973  16.362
 9830POPC   C1A12473  -3.062  10.057  16.408
 9830POPC   D2A12474  -3.242  10.055  16.496
 9830POPC   C3A12475  -3.421  10.052  16.585
 9830POPC   C4A12476  -3.600  10.049  16.674
 9830POPC   C1B12477  -3.139   9.960  16.250
 9830POPC   C2B12478  -3.318   9.958  16.339
 9830POPC   C3B12479  -3.497   9.955  16.428
 9830POPC   C4B12480  -3.676   9.952  16.517
 9831POPC   NC312481   1.725  20.308  14.297
 9831POPC   PO412482   1.612  20.460  14.360
 9831POPC   GL112483   1.499  20.612  14.423
 9831POPC   GL212484   1.516  20.586  14.518
 9831POPC   C1A12485   1.386  20.765  14.486
 9831POPC   D2A12486   1.273  20.917  14.549
 9831POPC   C3A12487   1.160  21.070  14.612
 9831POPC   C4A12488   1.047  21.222  14.675
 9831POPC   C1B12489   1.225  20.647  14.482
 9831POPC   C2B12490   1.112  20.799  14.545
 9831POPC   C3B12491   0.999  20.952  14.608
 9831POPC   C4B12492   0.886  21.104  14.671
 9832POPC   NC312493  -1.605  14.913   4.049
 9832POPC   PO412494  -1.773  14.986   3.969
 9832POPC   GL112495  -1.941  15.059   3.889
 9832POPC   GL212496  -1.952  15.120   3.968
 9832POPC   C1A12497  -2.110  15.132   3.810
 9832POPC   D2A12498  -2.278  15.204   3.730
 9832POPC   C3A12499  -2.447  15.277   3.651
 9832POPC   C4A12500  -2.615  15.350   3.571
 9832POPC   C1B12501  -2.216  14.991   3.905
 9832POPC   C2B12502  -2.384  15.064   3.825
 9832POPC   C3B12503  -2.552  15.137   3.746
 9832POPC   C4B12504  -2.721  15.209   3.666
 9833POPC   NC312505   6.452  21.088  17.509
 9833POPC   PO412506   6.402  21.244  17.623
 9833POPC   GL112507   6.352  21.400  17.737
 9833POPC   GL212508   6.443  21.400  17.778
 9833POPC   C1A12509   6.302  21.557  17.851
 9833POPC   D2A12510   6.251  21.713  17.965
 9833POPC   C3A12511   6.201  21.870  18.079
 9833POPC   C4A12512   6.151  22.026  18.193
 9833POPC   C1B12513   6.238  21.432  17.994
 9833POPC   C2B12514   6.188  21.589  18.108
 9833POPC   C3B12515   6.138  21.745  18.222
 9833POPC   C4B12516   6.087  21.901  18.336
 9834POPC   NC312517   8.495   2.682  21.603
 9834POPC   PO412518   8.476   2.582  21.775
 9834POPC   GL112519   8.457   2.482  21.947
 9834POPC   GL212520   8.513   2.550  21.993
 9834POPC   C1A12521   8.438   2.382  22.119
 9834POPC   D2A12522   8.418   2.281  22.291
 9834POPC   C3A12523   8.399   2.181  22.463
 9834POPC   C4A12524   8.380   2.081  22.635
 9834POPC   C1B12525   8.602   2.276  22.076
 9834POPC   C2B12526   8.583   2.176  22.248
 9834POPC   C3B12527   8.564   2.076  22.420
 9834POPC   C4B12528   8.544   1.975  22.592
 9835POPC   NC312529  19.492  17.958   4.048
 9835POPC   PO412530  19.625  18.078   3.959
 9835POPC   GL112531  19.758  18.198   3.870
 9835POPC   GL212532  19.796  18.119   3.820
 9835POPC   C1A12533  19.891  18.318   3.780
 9835POPC   D2A12534  20.024  18.437   3.691
 9835POPC   C3A12535  20.157  18.557   3.601
 9835POPC   C4A12536  20.290  18.677   3.512
 9835POPC   C1B12537  20.020  18.286   3.930
 9835POPC   C2B12538  20.153  18.405   3.840
 9835POPC   C3B12539  20.286  18.525   3.751
 9835POPC   C4B12540  20.419  18.645   3.661
 9836POPC   NC312541   8.867  15.017  -2.946
 9836POPC   PO412542   8.857  15.090  -3.132
 9836POPC   GL112543   8.847  15.163  -3.318
 9836POPC   GL212544   8.866  15.255  -3.283
 9836POPC   C1A12545   8.836  15.236  -3.504
 9836POPC   D2A12546   8.826  15.308  -3.690
 9836POPC   C3A12547   8.815  15.381  -3.876
 9836POPC   C4A12548   8.805  15.454  -4.062
 9836POPC   C1B12549   8.640  15.268  -3.480
 9836POPC   C2B12550   8.630  15.341  -3.666
 9836POPC   C3B12551   8.619  15.414  -3.852
 9836POPC   C4B12552   8.609  15.486  -4.038
 9837POPC   NC312553   2.965  20.509  15.723
 9837POPC   PO412554   2.868  20.666  15.800
 9837POPC   GL112555   2.771  20.823  15.877
 9837POPC   GL212556   2.831  20.885  15.827
 9837POPC   C1A12557   2.674  20.980  15.954
 9837POPC   D2A12558   2.578  21.137  16.032
 9837POPC   C3A12559   2.481  21.294  16.109
 9837POPC   C4A12560   2.384  21.451  16.186
 9837POPC   C1B12561   2.801  20.982  16.109
 9837POPC   C2B12562   2.704  21.139  16.186
 9837POPC   C3B12563   2.608  21.296  16.264
 9837POPC   C4B12564   2.511  21.453  16.341
 9838POPC   NC312565  -0.307   0.969  12.748
 9838POPC   PO412566  -0.453   0.839  12.789
 9838POPC   GL112567  -0.599   0.709  12.830
 9838POPC   GL212568  -0.552   0.682  12.914
 9838POPC   C1A12569  -0.746   0.579  12.871
 9838POPC   D2A12570  -0.892   0.449  12.912
 9838POPC   C3A12571  -1.039   0.319  12.953
 9838POPC   C4A12572  -1.185   0.189  12.994
 9838POPC   C1B12573  -0.648   0.437  12.770
 9838POPC   C2B12574  -0.794   0.307  12.811
 9838POPC   C3B12575  -0.941   0.177  12.852
 9838POPC   C4B12576  -1.087   0.047  12.893
 9839POPC   NC312577  14.115  -1.574  16.298
 9839POPC   PO412578  14.176  -1.742  16.388
 9839POPC   GL112579  14.237  -1.910  16.478
 9839POPC   GL212580  14.332  -1.885  16.460
 9839POPC   C1A12581  14.298  -2.077  16.569
 9839POPC   D2A12582  14.360  -2.245  16.659
 9839POPC   C3A12583  14.421  -2.412  16.750
 9839POPC   C4A12584  14.482  -2.580  16.840
 9839POPC   C1B12585  14.290  -2.174  16.394
 9839POPC   C2B12586  14.351  -2.342  16.485
 9839POPC   C3B12587  14.412  -2.510  16.575
 9839POPC   C4B12588  14.474  -2.677  16.665
 9840POPC   NC312589  16.399  21.936   7.726
 9840POPC   PO412590  16.492  22.111   7.699
 9840POPC   GL112591  16.585  22.286   7.672
 9840POPC   GL212592  16.662  22.239   7.630
 9840POPC   C1A12593  16.678  22.461   7.645
 9840POPC   D2A12594  16.770  22.637   7.619
 9840POPC   C3A12595  16.863  22.812   7.592
 9840POPC   C4A12596  16.956  22.987   7.565
 9840POPC   C1B12597  16.763  22.443   7.825
 9840POPC   C2B12598  16.856  22.619   7.798
 9840POPC   C3B12599  16.949  22.794   7.772
 9840POPC   C4B12600  17.042  22.969   7.745
 9841POPC   NC312601  15.848  -1.787   5.917
 9841POPC   PO412602  15.933  -1.958   5.858
 9841POPC   GL112603  16.018  -2.129   5.799
 9841POPC   GL212604  16.106  -2.097   5.833
 9841POPC   C1A12605  16.103  -2.301   5.740
 9841POPC   D2A12606  16.187  -2.472   5.682
 9841POPC   C3A12607  16.272  -2.644   5.623
 9841POPC   C4A12608  16.357  -2.815   5.564
 9841POPC   C1B12609  16.142  -2.220   5.562
 9841POPC   C2B12610  16.227  -2.391   5.503
 9841POPC   C3B12611  16.312  -2.563   5.444
 9841POPC   C4B12612  16.397  -2.734   5.385
 9842POPC   NC312613   9.572   3.589  22.188
 9842POPC   PO412614   9.562   3.498  22.366
 9842POPC   GL112615   9.552   3.407  22.544
 9842POPC   GL212616   9.628   3.463  22.577
 9842POPC   C1A12617   9.542   3.316  22.722
 9842POPC   D2A12618   9.532   3.225  22.899
 9842POPC   C3A12619   9.522   3.134  23.077
 9842POPC   C4A12620   9.512   3.043  23.255
 9842POPC   C1B12621   9.672   3.178  22.658
 9842POPC   C2B12622   9.662   3.087  22.836
 9842POPC   C3B12623   9.652   2.996  23.013
 9842POPC   C4B12624   9.642   2.905  23.191
 9843POPC   NC312625  20.624   1.870  13.043
 9843POPC   PO412626  20.777   1.750  13.090
 9843POPC   GL112627  20.930   1.630  13.137
 9843POPC   GL212628  20.973   1.651  13.049
 9843POPC   C1A12629  21.083   1.511  13.184
 9843POPC   D2A12630  21.237   1.391  13.230
 9843POPC   C3A12631  21.390   1.272  13.277
 9843POPC   C4A12632  21.543   1.152  13.324
 9843POPC   C1B12633  20.988   1.356  13.100
 9843POPC   C2B12634  21.141   1.237  13.147
 9843POPC   C3B12635  21.295   1.117  13.193
 9843POPC   C4B12636  21.448   0.997  13.240
 9844POPC   NC312637   6.126  22.680  13.989
 9844POPC   PO412638   6.071  22.862  14.050
 9844POPC   GL112639   6.016  23.044  14.111
 9844POPC   GL212640   6.112  23.072  14.115
 9844POPC   C1A12641   5.961  23.226  14.172
 9844POPC   D2A12642   5.905  23.409  14.233
 9844POPC   C3A12643   5.850  23.591  14.294
 9844POPC   C4A12644   5.795  23.773  14.355
 9844POPC   C1B12645   5.970  23.166  14.362
 9844POPC   C2B12646   5.915  23.348  14.423
 9844POPC   C3B12647   5.860  23.530  14.484
 9844POPC   C4B12648   5.805  23.712  14.545
 9845POPC   NC312649   9.392  15.727  22.551
 9845POPC   PO412650   9.393  15.801  22.737
 9845POPC   GL112651   9.394  15.875  22.923
 9845POPC   GL212652   9.492  15.894  22.914
 9845POPC   C1A12653   9.395  15.949  23.108
 9845POPC   D2A12654   9.397  16.024  23.294
 9845POPC   C3A12655   9.398  16.098  23.479
 9845POPC   C4A12656   9.399  16.172  23.665
 9845POPC   C1B12657   9.437  15.768  23.181
 9845POPC   C2B12658   9.438  15.842  23.366
 9845POPC   C3B12659   9.440  15.916  23.552
 9845POPC   C4B12660   9.441  15.990  23.737
 9846POPC   NC312661  19.951  18.987  12.658
 9846POPC   PO412662  20.094  19.119  12.704
 9846POPC   GL112663  20.237  19.251  12.750
 9846POPC   GL212664  20.201  19.314  12.681
 9846POPC   C1A12665  20.380  19.383  12.795
 9846POPC   D2A12666  20.523  19.516  12.841
 9846POPC   C3A12667  20.666  19.648  12.886
 9846POPC   C4A12668  20.809  19.780  12.932
 9846POPC   C1B12669  20.499  19.302  12.657
 9846POPC   C2B12670  20.642  19.434  12.703
 9846POPC   C3B12671  20.785  19.566  12.748
 9846POPC   C4B12672  20.928  19.698  12.794
 9847POPC   NC312673  11.722  -1.755   2.798
 9847POPC   PO412674  11.747  -1.923   2.693
 9847POPC   GL112675  11.772  -2.091   2.588
 9847POPC   GL212676  11.806  -2.138   2.670
 9847POPC   C1A12677  11.798  -2.260   2.483
 9847POPC   D2A12678  11.823  -2.428   2.379
 9847POPC   C3A12679  11.849  -2.597   2.274
 9847POPC   C4A12680  11.874  -2.765   2.169
 9847POPC   C1B12681  11.985  -2.204   2.439
 9847POPC   C2B12682  12.010  -2.372   2.334
 9847POPC   C3B12683  12.035  -2.541   2.229
 9847POPC   C4B12684  12.061  -2.709   2.125
 9848POPC   NC312685   7.174  21.896   3.401
 9848POPC   PO412686   7.135  22.063   3.298
 9848POPC   GL112687   7.096  22.230   3.195
 9848POPC   GL212688   7.128  22.285   3.273
 9848POPC   C1A12689   7.057  22.397   3.093
 9848POPC   D2A12690   7.018  22.565   2.990
 9848POPC   C3A12691   6.979  22.732   2.888
 9848POPC   C4A12692   6.940  22.899   2.785
 9848POPC   C1B12693   6.872  22.400   3.168
 9848POPC   C2B12694   6.833  22.568   3.065
 9848POPC   C3B12695   6.794  22.735   2.963
 9848POPC   C4B12696   6.755  22.902   2.860
 9849POPC   NC312697   1.351   0.846   3.810
 9849POPC   PO412698   1.232   0.715   3.717
 9849POPC   GL112699   1.113   0.584   3.624
 9849POPC   GL212700   1.168   0.509   3.660
 9849POPC   C1A12701   0.994   0.453   3.532
 9849POPC   D2A12702   0.874   0.321   3.439
 9849POPC   C3A12703   0.755   0.190   3.347
 9849POPC   C4A12704   0.636   0.059   3.254
 9849POPC   C1B12705   1.110   0.462   3.369
 9849POPC   C2B12706   0.991   0.330   3.277
 9849POPC   C3B12707   0.872   0.199   3.184
 9849POPC   C4B12708   0.752   0.068   3.092
 9850POPC   NC312709  17.194  19.533   3.227
 9850POPC   PO412710  17.303  19.668   3.127
 9850POPC   GL112711  17.412  19.803   3.027
 9850POPC   GL212712  17.439  19.732   2.961
 9850POPC   C1A12713  17.521  19.938   2.927
 9850POPC   D2A12714  17.630  20.072   2.828
 9850POPC   C3A12715  17.739  20.207   2.728
 9850POPC   C4A12716  17.848  20.342   2.628
 9850POPC   C1B12717  17.680  19.892   3.040
 9850POPC   C2B12718  17.789  20.027   2.940
 9850POPC   C3B12719  17.898  20.162   2.840
 9850POPC   C4B12720  18.007  20.297   2.741
 9851POPC   NC312721  12.096  -3.500   7.280
 9851POPC   PO412722  12.132  -3.693   7.243
 9851POPC   GL112723  12.168  -3.886   7.206
 9851POPC   GL212724  12.147  -3.872   7.110
 9851POPC   C1A12725  12.204  -4.079   7.169
 9851POPC   D2A12726  12.241  -4.273   7.133
 9851POPC   C3A12727  12.277  -4.466   7.096
 9851POPC   C4A12728  12.313  -4.659   7.059
 9851POPC   C1B12729  12.012  -4.122   7.205
 9851POPC   C2B12730  12.049  -4.315   7.169
 9851POPC   C3B12731  12.085  -4.509   7.132
 9851POPC   C4B12732  12.121  -4.702   7.095
 9852POPC   NC312733   0.991  20.072   6.826
 9852POPC   PO412734   0.869  20.224   6.782
 9852POPC   GL112735   0.747  20.376   6.738
 9852POPC   GL212736   0.826  20.433   6.716
 9852POPC   C1A12737   0.625  20.528   6.693
 9852POPC   D2A12738   0.502  20.680   6.649
 9852POPC   C3A12739   0.380  20.832   6.604
 9852POPC   C4A12740   0.258  20.984   6.560
 9852POPC   C1B12741   0.631  20.589   6.884
 9852POPC   C2B12742   0.509  20.741   6.839
 9852POPC   C3B12743   0.387  20.893   6.795
 9852POPC   C4B12744   0.265  21.045   6.750
 9853POPC   NC312745   5.839  23.003   7.086
 9853POPC   PO412746   5.778  23.189   7.047
 9853POPC   GL112747   5.717  23.375   7.008
 9853POPC   GL212748   5.687  23.386   7.103
 9853POPC   C1A12749   5.656  23.562   6.969
 9853POPC   D2A12750   5.594  23.748   6.931
 9853POPC   C3A12751   5.533  23.935   6.892
 9853POPC   C4A12752   5.472  24.121   6.853
 9853POPC   C1B12753   5.475  23.492   6.921
 9853POPC   C2B12754   5.413  23.679   6.882
 9853POPC   C3B12755   5.352  23.865   6.843
 9853POPC   C4B12756   5.291  24.051   6.804
 9854POPC   NC312757  16.202  -0.126  17.009
 9854POPC   PO412758  16.295  -0.267  17.116
 9854POPC   GL112759  16.388  -0.408  17.223
 9854POPC   GL212760  16.477  -0.369  17.197
 9854POPC   C1A12761  16.482  -0.548  17.331
 9854POPC   D2A12762  16.575  -0.689  17.438
 9854POPC   C3A12763  16.669  -0.829  17.546
 9854POPC   C4A12764  16.762  -0.970  17.653
 9854POPC   C1B12765  16.487  -0.668  17.170
 9854POPC   C2B12766  16.580  -0.808  17.278
 9854POPC   C3B12767  16.674  -0.949  17.385
 9854POPC   C4B12768  16.767  -1.089  17.493
 9855POPC   NC312769  20.628   1.279  10.929
 9855POPC   PO412770  20.783   1.154  10.945
 9855POPC   GL112771  20.938   1.029  10.961
 9855POPC   GL212772  20.996   1.104  10.993
 9855POPC   C1A12773  21.093   0.904  10.977
 9855POPC   D2A12774  21.249   0.778  10.994
 9855POPC   C3A12775  21.404   0.653  11.010
 9855POPC   C4A12776  21.559   0.528  11.026
 9855POPC   C1B12777  21.145   0.943  10.788
 9855POPC   C2B12778  21.301   0.818  10.805
 9855POPC   C3B12779  21.456   0.693  10.821
 9855POPC   C4B12780  21.611   0.568  10.837
 9856POPC   NC312781  11.276  15.590  -2.620
 9856POPC   PO412782  11.299  15.671  -2.802
 9856POPC   GL112783  11.322  15.752  -2.984
 9856POPC   GL212784  11.411  15.707  -2.992
 9856POPC   C1A12785  11.345  15.832  -3.165
 9856POPC   D2A12786  11.367  15.913  -3.347
 9856POPC   C3A12787  11.390  15.993  -3.528
 9856POPC   C4A12788  11.413  16.074  -3.710
 9856POPC   C1B12789  11.433  15.992  -3.083
 9856POPC   C2B12790  11.455  16.073  -3.265
 9856POPC   C3B12791  11.478  16.153  -3.446
 9856POPC   C4B12792  11.501  16.234  -3.628
 9857POPC   NC312793  -0.914  11.766   1.359
 9857POPC   PO412794  -1.065  11.781   1.228
 9857POPC   GL112795  -1.216  11.796   1.097
 9857POPC   GL212796  -1.201  11.895   1.092
 9857POPC   C1A12797  -1.366  11.811   0.966
 9857POPC   D2A12798  -1.517  11.827   0.836
 9857POPC   C3A12799  -1.667  11.842   0.705
 9857POPC   C4A12800  -1.818  11.857   0.574
 9857POPC   C1B12801  -1.495  11.838   1.117
 9857POPC   C2B12802  -1.645  11.853   0.987
 9857POPC   C3B12803  -1.796  11.868   0.856
 9857POPC   C4B12804  -1.946  11.883   0.725
 9858POPC   NC312805  12.810  18.710  -0.450
 9858POPC   PO412806  12.844  18.832  -0.605
 9858POPC   GL112807  12.878  18.954  -0.760
 9858POPC   GL212808  12.854  18.880  -0.823
 9858POPC   C1A12809  12.912  19.075  -0.915
 9858POPC   D2A12810  12.947  19.197  -1.070
 9858POPC   C3A12811  12.981  19.318  -1.225
 9858POPC   C4A12812  13.015  19.440  -1.380
 9858POPC   C1B12813  13.103  19.016  -0.919
 9858POPC   C2B12814  13.138  19.138  -1.074
 9858POPC   C3B12815  13.172  19.259  -1.229
 9858POPC   C4B12816  13.206  19.381  -1.384
 9859POPC   NC312817   7.134  -1.101   2.100
 9859POPC   PO412818   7.099  -1.263   1.988
 9859POPC   GL112819   7.064  -1.425   1.876
 9859POPC   GL212820   7.158  -1.423   1.844
 9859POPC   C1A12821   7.028  -1.586   1.763
 9859POPC   D2A12822   6.993  -1.748   1.651
 9859POPC   C3A12823   6.957  -1.909   1.538
 9859POPC   C4A12824   6.922  -2.071   1.426
 9859POPC   C1B12825   6.975  -1.468   1.611
 9859POPC   C2B12826   6.939  -1.630   1.498
 9859POPC   C3B12827   6.904  -1.792   1.386
 9859POPC   C4B12828   6.868  -1.953   1.273
 9860POPC   NC312829   1.952  20.530  14.154
 9860POPC   PO412830   1.842  20.685  14.216
 9860POPC   GL112831   1.732  20.840  14.278
 9860POPC   GL212832   1.754  20.818  14.373
 9860POPC   C1A12833   1.623  20.996  14.340
 9860POPC   D2A12834   1.513  21.151  14.403
 9860POPC   C3A12835   1.404  21.307  14.465
 9860POPC   C4A12836   1.294  21.462  14.527
 9860POPC   C1B12837   1.461  20.878  14.349
 9860POPC   C2B12838   1.352  21.034  14.411
 9860POPC   C3B12839   1.242  21.189  14.474
 9860POPC   C4B12840   1.132  21.345  14.536
 9861POPC   NC312841  21.244   2.188   8.908
 9861POPC   PO412842  21.410   2.077   8.890
 9861POPC   GL112843  21.576   1.966   8.872
 9861POPC   GL212844  21.560   1.959   8.774
 9861POPC   C1A12845  21.741   1.855   8.854
 9861POPC   D2A12846  21.907   1.745   8.837
 9861POPC   C3A12847  22.072   1.634   8.819
 9861POPC   C4A12848  22.238   1.523   8.801
 9861POPC   C1B12849  21.633   1.690   8.883
 9861POPC   C2B12850  21.799   1.579   8.865
 9861POPC   C3B12851  21.964   1.468   8.848
 9861POPC   C4B12852  22.130   1.357   8.830
 9862POPC   NC312853  10.982  -3.126  14.346
 9862POPC   PO412854  10.999  -3.316  14.405
 9862POPC   GL112855  11.016  -3.506  14.464
 9862POPC   GL212856  11.075  -3.478  14.539
 9862POPC   C1A12857  11.034  -3.697  14.523
 9862POPC   D2A12858  11.051  -3.887  14.581
 9862POPC   C3A12859  11.069  -4.078  14.640
 9862POPC   C4A12860  11.086  -4.268  14.699
 9862POPC   C1B12861  11.195  -3.718  14.406
 9862POPC   C2B12862  11.212  -3.909  14.465
 9862POPC   C3B12863  11.229  -4.099  14.523
 9862POPC   C4B12864  11.247  -4.289  14.582
 9863POPC   NC312865  23.514   9.502   8.047
 9863POPC   PO412866  23.712   9.494   8.022
 9863POPC   GL112867  23.910   9.486   7.997
 9863POPC   GL212868  23.914   9.585   7.990
 9863POPC   C1A12869  24.108   9.477   7.972
 9863POPC   D2A12870  24.307   9.469   7.948
 9863POPC   C3A12871  24.505   9.460   7.923
 9863POPC   C4A12872  24.703   9.452   7.898
 9863POPC   C1B12873  24.083   9.464   7.774
 9863POPC   C2B12874  24.281   9.456   7.750
 9863POPC   C3B12875  24.480   9.447   7.725
 9863POPC   C4B12876  24.678   9.439   7.700
 9864POPC   NC312877  20.110   0.696  11.035
 9864POPC   PO412878  20.256   0.561  11.056
 9864POPC   GL112879  20.402   0.426  11.077
 9864POPC   GL212880  20.465   0.498  11.106
 9864POPC   C1A12881  20.548   0.291  11.098
 9864POPC   D2A12882  20.694   0.155  11.118
 9864POPC   C3A12883  20.840   0.020  11.139
 9864POPC   C4A12884  20.986  -0.115  11.160
 9864POPC   C1B12885  20.602   0.320  10.907
 9864POPC   C2B12886  20.748   0.185  10.928
 9864POPC   C3B12887  20.894   0.050  10.949
 9864POPC   C4B12888  21.040  -0.085  10.970
 9865POPC   NC312889   8.105  -3.606   8.053
 9865POPC   PO412890   8.081  -3.803   8.030
 9865POPC   GL112891   8.057  -4.000   8.007
 9865POPC   GL212892   8.156  -4.011   7.998
 9865POPC   C1A12893   8.033  -4.197   7.984
 9865POPC   D2A12894   8.010  -4.395   7.962
 9865POPC   C3A12895   7.986  -4.592   7.939
 9865POPC   C4A12896   7.962  -4.789   7.916
 9865POPC   C1B12897   8.019  -4.173   7.786
 9865POPC   C2B12898   7.995  -4.370   7.764
 9865POPC   C3B12899   7.971  -4.567   7.741
 9865POPC   C4B12900   7.947  -4.764   7.718
 9866POPC   NC312901   2.301   4.811  20.190
 9866POPC   PO412902   2.187   4.738  20.337
 9866POPC   GL112903   2.073   4.665  20.484
 9866POPC   GL212904   2.093   4.572  20.453
 9866POPC   C1A12905   1.959   4.591  20.631
 9866POPC   D2A12906   1.845   4.518  20.778
 9866POPC   C3A12907   1.731   4.444  20.925
 9866POPC   C4A12908   1.617   4.371  21.072
 9866POPC   C1B12909   1.800   4.597  20.510
 9866POPC   C2B12910   1.686   4.524  20.657
 9866POPC   C3B12911   1.572   4.450  20.804
 9866POPC   C4B12912   1.458   4.377  20.951
 9867POPC   NC312913  15.217  11.870  -2.718
 9867POPC   PO412914  15.297  11.892  -2.900
 9867POPC   GL112915  15.377  11.914  -3.082
 9867POPC   GL212916  15.322  11.838  -3.115
 9867POPC   C1A12917  15.457  11.936  -3.264
 9867POPC   D2A12918  15.537  11.957  -3.446
 9867POPC   C3A12919  15.617  11.979  -3.628
 9867POPC   C4A12920  15.697  12.001  -3.810
 9867POPC   C1B12921  15.603  11.808  -3.215
 9867POPC   C2B12922  15.683  11.830  -3.397
 9867POPC   C3B12923  15.763  11.851  -3.579
 9867POPC   C4B12924  15.843  11.873  -3.761
 9868POPC   NC312925   4.306   2.585  20.308
 9868POPC   PO412926   4.218   2.482  20.455
 9868POPC   GL112927   4.130   2.379  20.602
 9868POPC   GL212928   4.128   2.462  20.659
 9868POPC   C1A12929   4.042   2.276  20.750
 9868POPC   D2A12930   3.954   2.174  20.897
 9868POPC   C3A12931   3.866   2.071  21.045
 9868POPC   C4A12932   3.778   1.968  21.192
 9868POPC   C1B12933   4.222   2.229  20.824
 9868POPC   C2B12934   4.134   2.127  20.972
 9868POPC   C3B12935   4.046   2.024  21.119
 9868POPC   C4B12936   3.958   1.921  21.266
 9869POPC   NC312937   0.267   5.822  18.940
 9869POPC   PO412938   0.137   5.756  19.076
 9869POPC   GL112939   0.007   5.690  19.212
 9869POPC   GL212940   0.082   5.672  19.276
 9869POPC   C1A12941  -0.124   5.624  19.349
 9869POPC   D2A12942  -0.254   5.558  19.485
 9869POPC   C3A12943  -0.385   5.492  19.622
 9869POPC   C4A12944  -0.515   5.426  19.758
 9869POPC   C1B12945  -0.106   5.439  19.276
 9869POPC   C2B12946  -0.237   5.373  19.412
 9869POPC   C3B12947  -0.367   5.307  19.549
 9869POPC   C4B12948  -0.497   5.241  19.685
 9870POPC   NC312949   7.782  -1.603   2.676
 9870POPC   PO412950   7.755  -1.771   2.572
 9870POPC   GL112951   7.728  -1.939   2.468
 9870POPC   GL212952   7.825  -1.942   2.446
 9870POPC   C1A12953   7.700  -2.108   2.363
 9870POPC   D2A12954   7.673  -2.276   2.259
 9870POPC   C3A12955   7.645  -2.445   2.154
 9870POPC   C4A12956   7.618  -2.613   2.050
 9870POPC   C1B12957   7.667  -2.000   2.198
 9870POPC   C2B12958   7.640  -2.168   2.094
 9870POPC   C3B12959   7.612  -2.337   1.989
 9870POPC   C4B12960   7.585  -2.505   1.885
 9871POPC   NC312961   0.245   7.002   0.405
 9871POPC   PO412962   0.104   6.966   0.268
 9871POPC   GL112963  -0.037   6.930   0.131
 9871POPC   GL212964  -0.102   6.907   0.203
 9871POPC   C1A12965  -0.178   6.895  -0.007
 9871POPC   D2A12966  -0.319   6.859  -0.144
 9871POPC   C3A12967  -0.460   6.824  -0.282
 9871POPC   C4A12968  -0.601   6.788  -0.419
 9871POPC   C1B12969  -0.120   6.704  -0.016
 9871POPC   C2B12970  -0.261   6.668  -0.154
 9871POPC   C3B12971  -0.402   6.632  -0.291
 9871POPC   C4B12972  -0.543   6.597  -0.429
 9872POPC   NC312973  15.503  22.557   9.685
 9872POPC   PO412974  15.590  22.737   9.681
 9872POPC   GL112975  15.677  22.917   9.677
 9872POPC   GL212976  15.749  22.881   9.617
 9872POPC   C1A12977  15.763  23.097   9.672
 9872POPC   D2A12978  15.850  23.278   9.668
 9872POPC   C3A12979  15.936  23.458   9.663
 9872POPC   C4A12980  16.023  23.638   9.659
 9872POPC   C1B12981  15.872  23.049   9.833
 9872POPC   C2B12982  15.958  23.230   9.829
 9872POPC   C3B12983  16.045  23.410   9.824
 9872POPC   C4B12984  16.131  23.590   9.820
 9873POPC   NC312985   6.916  11.420  -3.542
 9873POPC   PO412986   6.875  11.437  -3.737
 9873POPC   GL112987   6.834  11.454  -3.932
 9873POPC   GL212988   6.871  11.547  -3.931
 9873POPC   C1A12989   6.793  11.471  -4.127
 9873POPC   D2A12990   6.752  11.489  -4.322
 9873POPC   C3A12991   6.711  11.506  -4.517
 9873POPC   C4A12992   6.670  11.523  -4.712
 9873POPC   C1B12993   6.612  11.543  -4.082
 9873POPC   C2B12994   6.571  11.560  -4.277
 9873POPC   C3B12995   6.530  11.577  -4.472
 9873POPC   C4B12996   6.489  11.594  -4.667
 9874POPC   NC312997   3.160   6.690  21.597
 9874POPC   PO412998   3.058   6.636  21.761
 9874POPC   GL112999   2.956   6.582  21.925
 9874POPC   GL213000   2.985   6.487  21.911
 9874POPC   C1A13001   2.855   6.529  22.088
 9874POPC   D2A13002   2.753   6.475  22.252
 9874POPC   C3A13003   2.652   6.422  22.415
 9874POPC   C4A13004   2.550   6.368  22.579
 9874POPC   C1B13005   2.692   6.495  21.976
 9874POPC   C2B13006   2.591   6.441  22.140
 9874POPC   C3B13007   2.489   6.388  22.304
 9874POPC   C4B13008   2.388   6.334  22.467
 9875POPC   NC313009  -0.639  15.682   2.928
 9875POPC   PO413010  -0.795  15.766   2.835
 9875POPC   GL113011  -0.951  15.850   2.742
 9875POPC   GL213012  -0.952  15.923   2.811
 9875POPC   C1A13013  -1.107  15.935   2.649
 9875POPC   D2A13014  -1.262  16.019   2.557
 9875POPC   C3A13015  -1.418  16.104   2.464
 9875POPC   C4A13016  -1.574  16.188   2.371
 9875POPC   C1B13017  -1.232  15.827   2.762
 9875POPC   C2B13018  -1.388  15.912   2.669
 9875POPC   C3B13019  -1.544  15.996   2.576
 9875POPC   C4B13020  -1.699  16.080   2.484
 9876POPC   NC313021  -0.839  14.557  17.549
 9876POPC   PO413022  -0.991  14.625  17.660
 9876POPC   GL113023  -1.143  14.693  17.771
 9876POPC   GL213024  -1.115  14.632  17.846
 9876POPC   C1A13025  -1.294  14.761  17.883
 9876POPC   D2A13026  -1.446  14.828  17.994
 9876POPC   C3A13027  -1.597  14.896  18.106
 9876POPC   C4A13028  -1.749  14.964  18.217
 9876POPC   C1B13029  -1.412  14.617  17.810
 9876POPC   C2B13030  -1.564  14.684  17.921
 9876POPC   C3B13031  -1.715  14.752  18.033
 9876POPC   C4B13032  -1.867  14.820  18.144
 9877POPC   NC313033   4.037  18.290   0.389
 9877POPC   PO413034   3.953  18.411   0.254
 9877POPC   GL113035   3.869  18.532   0.119
 9877POPC   GL213036   3.793  18.550   0.182
 9877POPC   C1A13037   3.785  18.653  -0.016
 9877POPC   D2A13038   3.701  18.774  -0.152
 9877POPC   C3A13039   3.617  18.895  -0.287
 9877POPC   C4A13040   3.533  19.016  -0.422
 9877POPC   C1B13041   3.685  18.498  -0.093
 9877POPC   C2B13042   3.601  18.619  -0.228
 9877POPC   C3B13043   3.517  18.740  -0.364
 9877POPC   C4B13044   3.433  18.861  -0.499
 9878POPC   NC313045   9.167  23.041  14.613
 9878POPC   PO413046   9.155  23.229  14.681
 9878POPC   GL113047   9.143  23.417  14.749
 9878POPC   GL213048   9.215  23.397  14.816
 9878POPC   C1A13049   9.131  23.604  14.818
 9878POPC   D2A13050   9.119  23.792  14.886
 9878POPC   C3A13051   9.107  23.979  14.955
 9878POPC   C4A13052   9.095  24.167  15.023
 9878POPC   C1B13053   8.993  23.547  14.950
 9878POPC   C2B13054   8.981  23.735  15.019
 9878POPC   C3B13055   8.969  23.922  15.087
 9878POPC   C4B13056   8.957  24.110  15.156
 9879POPC   NC313057   0.912   9.659  20.507
 9879POPC   PO413058   0.777   9.651  20.655
 9879POPC   GL113059   0.642   9.643  20.803
 9879POPC   GL213060   0.682   9.557  20.834
 9879POPC   C1A13061   0.508   9.636  20.951
 9879POPC   D2A13062   0.373   9.628  21.098
 9879POPC   C3A13063   0.239   9.621  21.246
 9879POPC   C4A13064   0.104   9.613  21.394
 9879POPC   C1B13065   0.383   9.535  20.831
 9879POPC   C2B13066   0.248   9.528  20.979
 9879POPC   C3B13067   0.113   9.520  21.127
 9879POPC   C4B13068  -0.021   9.512  21.275
 9880POPC   NC313069  -2.572   6.733  15.254
 9880POPC   PO413070  -2.755   6.691  15.323
 9880POPC   GL113071  -2.938   6.649  15.392
 9880POPC   GL213072  -2.899   6.584  15.457
 9880POPC   C1A13073  -3.121   6.607  15.461
 9880POPC   D2A13074  -3.304   6.565  15.529
 9880POPC   C3A13075  -3.487   6.523  15.598
 9880POPC   C4A13076  -3.670   6.481  15.667
 9880POPC   C1B13077  -3.139   6.461  15.325
 9880POPC   C2B13078  -3.322   6.419  15.394
 9880POPC   C3B13079  -3.505   6.377  15.462
 9880POPC   C4B13080  -3.688   6.335  15.531
 9881POPC   NC313081  15.832  14.902  21.413
 9881POPC   PO413082  15.927  14.972  21.575
 9881POPC   GL113083  16.022  15.042  21.737
 9881POPC   GL213084  16.030  15.132  21.693
 9881POPC   C1A13085  16.117  15.112  21.898
 9881POPC   D2A13086  16.211  15.182  22.060
 9881POPC   C3A13087  16.306  15.252  22.221
 9881POPC   C4A13088  16.401  15.322  22.383
 9881POPC   C1B13089  16.292  15.058  21.819
 9881POPC   C2B13090  16.387  15.128  21.980
 9881POPC   C3B13091  16.482  15.198  22.142
 9881POPC   C4B13092  16.576  15.268  22.303
 9882POPC   NC313093  10.520   5.488  23.007
 9882POPC   PO413094  10.520   5.425  23.197
 9882POPC   GL113095  10.520   5.362  23.387
 9882POPC   GL213096  10.580   5.286  23.362
 9882POPC   C1A13097  10.520   5.299  23.577
 9882POPC   D2A13098  10.521   5.236  23.766
 9882POPC   C3A13099  10.521   5.173  23.956
 9882POPC   C4A13100  10.521   5.110  24.146
 9882POPC   C1B13101  10.360   5.185  23.539
 9882POPC   C2B13102  10.361   5.122  23.729
 9882POPC   C3B13103  10.361   5.059  23.919
 9882POPC   C4B13104  10.361   4.996  24.108
 9883POPC   NC313105  20.822  11.249  18.338
 9883POPC   PO413106  20.977  11.266  18.463
 9883POPC   GL113107  21.132  11.283  18.588
 9883POPC   GL213108  21.177  11.346  18.524
 9883POPC   C1A13109  21.287  11.301  18.713
 9883POPC   D2A13110  21.442  11.318  18.839
 9883POPC   C3A13111  21.597  11.336  18.964
 9883POPC   C4A13112  21.752  11.353  19.089
 9883POPC   C1B13113  21.376  11.146  18.624
 9883POPC   C2B13114  21.531  11.163  18.749
 9883POPC   C3B13115  21.686  11.180  18.875
 9883POPC   C4B13116  21.841  11.198  19.000
 9884POPC   NC313117   9.334  -2.575   4.137
 9884POPC   PO413118   9.322  -2.756   4.052
 9884POPC   GL113119   9.310  -2.937   3.967
 9884POPC   GL213120   9.409  -2.948   3.977
 9884POPC   C1A13121   9.298  -3.118   3.883
 9884POPC   D2A13122   9.285  -3.298   3.798
 9884POPC   C3A13123   9.273  -3.479   3.714
 9884POPC   C4A13124   9.261  -3.660   3.629
 9884POPC   C1B13125   9.325  -3.035   3.703
 9884POPC   C2B13126   9.313  -3.216   3.618
 9884POPC   C3B13127   9.301  -3.397   3.534
 9884POPC   C4B13128   9.289  -3.578   3.449
 9885POPC   NC313129  -2.866   4.971  11.856
 9885POPC   PO413130  -3.051   4.900  11.885
 9885POPC   GL113131  -3.236   4.829  11.914
 9885POPC   GL213132  -3.198   4.747  11.957
 9885POPC   C1A13133  -3.421   4.758  11.943
 9885POPC   D2A13134  -3.605   4.688  11.973
 9885POPC   C3A13135  -3.790   4.617  12.002
 9885POPC   C4A13136  -3.975   4.546  12.031
 9885POPC   C1B13137  -3.414   4.669  11.765
 9885POPC   C2B13138  -3.599   4.598  11.794
 9885POPC   C3B13139  -3.784   4.527  11.823
 9885POPC   C4B13140  -3.969   4.456  11.852
 9886POPC   NC313141   3.970  22.218   7.457
 9886POPC   PO413142   3.872  22.389   7.421
 9886POPC   GL113143   3.774  22.560   7.385
 9886POPC   GL213144   3.847  22.611   7.429
 9886POPC   C1A13145   3.676  22.730   7.349
 9886POPC   D2A13146   3.578  22.901   7.312
 9886POPC   C3A13147   3.480  23.071   7.276
 9886POPC   C4A13148   3.382  23.242   7.240
 9886POPC   C1B13149   3.582  22.714   7.525
 9886POPC   C2B13150   3.484  22.884   7.488
 9886POPC   C3B13151   3.386  23.055   7.452
 9886POPC   C4B13152   3.288  23.225   7.416
 9887POPC   NC313153  23.149   8.525  13.673
 9887POPC   PO413154  23.342   8.503  13.722
 9887POPC   GL113155  23.535   8.481  13.771
 9887POPC   GL213156  23.543   8.407  13.705
 9887POPC   C1A13157  23.728   8.460  13.820
 9887POPC   D2A13158  23.920   8.438  13.868
 9887POPC   C3A13159  24.113   8.417  13.917
 9887POPC   C4A13160  24.306   8.395  13.966
 9887POPC   C1B13161  23.677   8.328  13.962
 9887POPC   C2B13162  23.870   8.307  14.010
 9887POPC   C3B13163  24.063   8.285  14.059
 9887POPC   C4B13164  24.255   8.264  14.108
 9888POPC   NC313165   1.366   0.901  16.083
 9888POPC   PO413166   1.244   0.770  16.172
 9888POPC   GL113167   1.122   0.639  16.261
 9888POPC   GL213168   1.143   0.680  16.350
 9888POPC   C1A13169   1.000   0.508  16.350
 9888POPC   D2A13170   0.878   0.378  16.440
 9888POPC   C3A13171   0.756   0.247  16.529
 9888POPC   C4A13172   0.634   0.116  16.618
 9888POPC   C1B13173   1.153   0.381  16.372
 9888POPC   C2B13174   1.031   0.250  16.461
 9888POPC   C3B13175   0.909   0.119  16.551
 9888POPC   C4B13176   0.787  -0.011  16.640
 9889POPC   NC313177  11.566  19.949  19.364
 9889POPC   PO413178  11.593  20.094  19.499
 9889POPC   GL113179  11.620  20.239  19.634
 9889POPC   GL213180  11.716  20.215  19.641
 9889POPC   C1A13181  11.646  20.385  19.769
 9889POPC   D2A13182  11.673  20.530  19.903
 9889POPC   C3A13183  11.699  20.676  20.038
 9889POPC   C4A13184  11.726  20.821  20.173
 9889POPC   C1B13185  11.604  20.256  19.916
 9889POPC   C2B13186  11.630  20.402  20.051
 9889POPC   C3B13187  11.657  20.547  20.185
 9889POPC   C4B13188  11.684  20.692  20.320
 9890POPC   NC313189  10.827  -2.167  16.598
 9890POPC   PO413190  10.838  -2.339  16.699
 9890POPC   GL113191  10.849  -2.511  16.800
 9890POPC   GL213192  10.939  -2.530  16.758
 9890POPC   C1A13193  10.861  -2.684  16.900
 9890POPC   D2A13194  10.872  -2.856  17.001
 9890POPC   C3A13195  10.884  -3.029  17.101
 9890POPC   C4A13196  10.895  -3.201  17.202
 9890POPC   C1B13197  10.771  -2.778  16.749
 9890POPC   C2B13198  10.782  -2.951  16.849
 9890POPC   C3B13199  10.793  -3.123  16.950
 9890POPC   C4B13200  10.805  -3.295  17.051
 9891POPC   NC313201  16.047  -1.364  14.967
 9891POPC   PO413202  16.135  -1.530  15.035
 9891POPC   GL113203  16.223  -1.696  15.103
 9891POPC   GL213204  16.230  -1.731  15.010
 9891POPC   C1A13205  16.310  -1.863  15.171
 9891POPC   D2A13206  16.398  -2.029  15.240
 9891POPC   C3A13207  16.485  -2.196  15.308
 9891POPC   C4A13208  16.573  -2.362  15.376
 9891POPC   C1B13209  16.131  -1.950  15.189
 9891POPC   C2B13210  16.219  -2.116  15.257
 9891POPC   C3B13211  16.306  -2.283  15.326
 9891POPC   C4B13212  16.394  -2.449  15.394
 9892POPC   NC313213  12.899   3.654  -2.026
 9892POPC   PO413214  12.938   3.561  -2.199
 9892POPC   GL113215  12.977   3.468  -2.372
 9892POPC   GL213216  13.071   3.451  -2.342
 9892POPC   C1A13217  13.016   3.374  -2.544
 9892POPC   D2A13218  13.054   3.281  -2.717
 9892POPC   C3A13219  13.093   3.187  -2.889
 9892POPC   C4A13220  13.132   3.094  -3.062
 9892POPC   C1B13221  13.072   3.548  -2.626
 9892POPC   C2B13222  13.111   3.455  -2.798
 9892POPC   C3B13223  13.150   3.361  -2.971
 9892POPC   C4B13224  13.188   3.268  -3.143
 9893POPC   NC313225   5.552   4.015  21.712
 9893POPC   PO413226   5.499   3.934  21.887
 9893POPC   GL113227   5.446   3.853  22.062
 9893POPC   GL213228   5.475   3.763  22.029
 9893POPC   C1A13229   5.392   3.772  22.237
 9893POPC   D2A13230   5.339   3.690  22.411
 9893POPC   C3A13231   5.285   3.609  22.586
 9893POPC   C4A13232   5.232   3.528  22.761
 9893POPC   C1B13233   5.209   3.738  22.165
 9893POPC   C2B13234   5.155   3.656  22.339
 9893POPC   C3B13235   5.102   3.575  22.514
 9893POPC   C4B13236   5.048   3.494  22.689
 9894POPC   NC313237  23.508   7.957  10.114
 9894POPC   PO413238  23.707   7.934  10.115
 9894POPC   GL113239  23.906   7.911  10.116
 9894POPC   GL213240  23.913   7.969  10.035
 9894POPC   C1A13241  24.104   7.888  10.117
 9894POPC   D2A13242  24.303   7.865  10.117
 9894POPC   C3A13243  24.501   7.842  10.118
 9894POPC   C4A13244  24.700   7.819  10.119
 9894POPC   C1B13245  24.086   7.727   9.999
 9894POPC   C2B13246  24.285   7.704  10.000
 9894POPC   C3B13247  24.483   7.681  10.001
 9894POPC   C4B13248  24.682   7.658  10.002
 9895POPC   NC313249  12.555  12.556  23.268
 9895POPC   PO413250  12.590  12.597  23.461
 9895POPC   GL113251  12.625  12.638  23.654
 9895POPC   GL213252  12.723  12.642  23.635
 9895POPC   C1A13253  12.659  12.679  23.846
 9895POPC   D2A13254  12.694  12.721  24.039
 9895POPC   C3A13255  12.728  12.762  24.231
 9895POPC   C4A13256  12.763  12.803  24.424
 9895POPC   C1B13257  12.673  12.484  23.885
 9895POPC   C2B13258  12.708  12.525  24.078
 9895POPC   C3B13259  12.743  12.566  24.271
 9895POPC   C4B13260  12.777  12.607  24.463
 9896POPC   NC313261   1.719  11.664  -1.052
 9896POPC   PO413262   1.601  11.687  -1.212
 9896POPC   GL113263   1.483  11.710  -1.372
 9896POPC   GL213264   1.439  11.788  -1.329
 9896POPC   C1A13265   1.366  11.732  -1.532
 9896POPC   D2A13266   1.248  11.755  -1.693
 9896POPC   C3A13267   1.131  11.777  -1.853
 9896POPC   C4A13268   1.013  11.800  -2.013
 9896POPC   C1B13269   1.231  11.610  -1.450
 9896POPC   C2B13270   1.113  11.632  -1.611
 9896POPC   C3B13271   0.995  11.655  -1.771
 9896POPC   C4B13272   0.878  11.678  -1.931
 9897POPC   NC313273   7.951   5.174  22.681
 9897POPC   PO413274   7.920   5.103  22.865
 9897POPC   GL113275   7.889   5.032  23.049
 9897POPC   GL213276   7.986   5.048  23.072
 9897POPC   C1A13277   7.859   4.961  23.234
 9897POPC   D2A13278   7.828   4.890  23.418
 9897POPC   C3A13279   7.798   4.819  23.603
 9897POPC   C4A13280   7.767   4.748  23.787
 9897POPC   C1B13281   7.904   4.777  23.170
 9897POPC   C2B13282   7.873   4.706  23.355
 9897POPC   C3B13283   7.843   4.635  23.539
 9897POPC   C4B13284   7.812   4.564  23.724
 9898POPC   NC313285  14.981  -2.512   7.039
 9898POPC   PO413286  15.056  -2.692   6.996
 9898POPC   GL113287  15.131  -2.872   6.953
 9898POPC   GL213288  15.224  -2.835   6.959
 9898POPC   C1A13289  15.207  -3.052   6.910
 9898POPC   D2A13290  15.282  -3.233   6.866
 9898POPC   C3A13291  15.358  -3.413   6.823
 9898POPC   C4A13292  15.433  -3.593   6.780
 9898POPC   C1B13293  15.203  -3.007   6.715
 9898POPC   C2B13294  15.278  -3.187   6.672
 9898POPC   C3B13295  15.354  -3.368   6.628
 9898POPC   C4B13296  15.429  -3.548   6.585
 9899POPC   NC313297   6.037   4.424  22.015
 9899POPC   PO413298   5.999   4.349  22.196
 9899POPC   GL113299   5.961   4.274  22.377
 9899POPC   GL213300   5.977   4.181  22.343
 9899POPC   C1A13301   5.923   4.199  22.559
 9899POPC   D2A13302   5.886   4.123  22.740
 9899POPC   C3A13303   5.848   4.048  22.922
 9899POPC   C4A13304   5.810   3.973  23.103
 9899POPC   C1B13305   5.730   4.182  22.512
 9899POPC   C2B13306   5.692   4.107  22.693
 9899POPC   C3B13307   5.654   4.032  22.875
 9899POPC   C4B13308   5.616   3.957  23.056
 9900POPC   NC313309   3.847   5.408  21.543
 9900POPC   PO413310   3.752   5.342  21.706
 9900POPC   GL113311   3.657   5.276  21.869
 9900POPC   GL213312   3.711   5.192  21.867
 9900POPC   C1A13313   3.561   5.210  22.032
 9900POPC   D2A13314   3.466   5.144  22.195
 9900POPC   C3A13315   3.370   5.078  22.358
 9900POPC   C4A13316   3.275   5.012  22.521
 9900POPC   C1B13317   3.422   5.124  21.916
 9900POPC   C2B13318   3.327   5.058  22.079
 9900POPC   C3B13319   3.232   4.992  22.242
 9900POPC   C4B13320   3.136   4.926  22.405
 9901POPC   NC313321   6.573   7.855  23.211
 9901POPC   PO413322   6.530   7.823  23.404
 9901POPC   GL113323   6.487   7.791  23.597
 9901POPC   GL213324   6.584   7.783  23.617
 9901POPC   C1A13325   6.444   7.759  23.789
 9901POPC   D2A13326   6.400   7.726  23.982
 9901POPC   C3A13327   6.357   7.694  24.174
 9901POPC   C4A13328   6.314   7.662  24.367
 9901POPC   C1B13329   6.435   7.562  23.754
 9901POPC   C2B13330   6.392   7.530  23.947
 9901POPC   C3B13331   6.348   7.497  24.140
 9901POPC   C4B13332   6.305   7.465  24.332
 9902POPC   NC313333  20.459   2.008  13.879
 9902POPC   PO413334  20.611   1.890  13.932
 9902POPC   GL113335  20.763   1.772  13.985
 9902POPC   GL213336  20.753   1.721  13.900
 9902POPC   C1A13337  20.915   1.653  14.038
 9902POPC   D2A13338  21.067   1.535  14.092
 9902POPC   C3A13339  21.219   1.416  14.145
 9902POPC   C4A13340  21.371   1.298  14.198
 9902POPC   C1B13341  20.787   1.528  14.127
 9902POPC   C2B13342  20.939   1.410  14.180
 9902POPC   C3B13343  21.091   1.291  14.234
 9902POPC   C4B13344  21.243   1.173  14.287
 9903POPC   NC313345   3.878  21.986  13.285
 9903POPC   PO413346   3.790  22.159  13.335
 9903POPC   GL113347   3.702  22.332  13.385
 9903POPC   GL213348   3.778  22.352  13.447
 9903POPC   C1A13349   3.615  22.505  13.435
 9903POPC   D2A13350   3.527  22.677  13.485
 9903POPC   C3A13351   3.440  22.850  13.535
 9903POPC   C4A13352   3.352  23.023  13.585
 9903POPC   C1B13353   3.519  22.413  13.584
 9903POPC   C2B13354   3.431  22.585  13.634
 9903POPC   C3B13355   3.343  22.758  13.684
 9903POPC   C4B13356   3.256  22.931  13.734
 9904POPC   NC313357   8.755   6.284  -3.314
 9904POPC   PO413358   8.744   6.230  -3.506
 9904POPC   GL113359   8.733   6.176  -3.698
 9904POPC   GL213360   8.819   6.223  -3.717
 9904POPC   C1A13361   8.722   6.123  -3.891
 9904POPC   D2A13362   8.710   6.069  -4.083
 9904POPC   C3A13363   8.699   6.016  -4.276
 9904POPC   C4A13364   8.688   5.962  -4.468
 9904POPC   C1B13365   8.622   6.291  -3.932
 9904POPC   C2B13366   8.611   6.238  -4.124
 9904POPC   C3B13367   8.599   6.184  -4.317
 9904POPC   C4B13368   8.588   6.130  -4.509
 9905POPC   NC313369   7.893  17.482  -1.597
 9905POPC   PO413370   7.869  17.593  -1.761
 9905POPC   GL113371   7.845  17.704  -1.925
 9905POPC   GL213372   7.923  17.658  -1.968
 9905POPC   C1A13373   7.822  17.816  -2.090
 9905POPC   D2A13374   7.798  17.927  -2.254
 9905POPC   C3A13375   7.775  18.039  -2.419
 9905POPC   C4A13376   7.751  18.150  -2.583
 9905POPC   C1B13377   7.945  17.954  -2.014
 9905POPC   C2B13378   7.922  18.065  -2.179
 9905POPC   C3B13379   7.898  18.176  -2.343
 9905POPC   C4B13380   7.875  18.288  -2.507
 9906POPC   NC313381  16.704  20.164   3.570
 9906POPC   PO413382  16.807  20.305   3.472
 9906POPC   GL113383  16.910  20.446   3.374
 9906POPC   GL213384  16.866  20.418   3.288
 9906POPC   C1A13385  17.013  20.586   3.275
 9906POPC   D2A13386  17.115  20.727   3.177
 9906POPC   C3A13387  17.218  20.867   3.078
 9906POPC   C4A13388  17.321  21.008   2.980
 9906POPC   C1B13389  17.160  20.455   3.242
 9906POPC   C2B13390  17.263  20.596   3.143
 9906POPC   C3B13391  17.365  20.736   3.045
 9906POPC   C4B13392  17.468  20.877   2.946
 9907POPC   NC313393   0.339   1.873   3.848
 9907POPC   PO413394   0.202   1.756   3.761
 9907POPC   GL113395   0.065   1.639   3.674
 9907POPC   GL213396   0.124   1.560   3.688
 9907POPC   C1A13397  -0.072   1.522   3.587
 9907POPC   D2A13398  -0.209   1.405   3.501
 9907POPC   C3A13399  -0.346   1.288   3.414
 9907POPC   C4A13400  -0.483   1.171   3.327
 9907POPC   C1B13401   0.013   1.555   3.409
 9907POPC   C2B13402  -0.124   1.438   3.322
 9907POPC   C3B13403  -0.261   1.321   3.236
 9907POPC   C4B13404  -0.398   1.204   3.149
 9908POPC   NC313405  -0.284  10.176   0.591
 9908POPC   PO413406  -0.430  10.176   0.454
 9908POPC   GL113407  -0.576  10.176   0.317
 9908POPC   GL213408  -0.624  10.248   0.368
 9908POPC   C1A13409  -0.722  10.176   0.181
 9908POPC   D2A13410  -0.868  10.176   0.044
 9908POPC   C3A13411  -1.014  10.176  -0.092
 9908POPC   C4A13412  -1.160  10.176  -0.229
 9908POPC   C1B13413  -0.820  10.037   0.286
 9908POPC   C2B13414  -0.966  10.037   0.149
 9908POPC   C3B13415  -1.112  10.037   0.012
 9908POPC   C4B13416  -1.258  10.037  -0.124
 9909POPC   NC313417  20.054   0.654   8.887
 9909POPC   PO413418  20.202   0.520   8.870
 9909POPC   GL113419  20.350   0.386   8.853
 9909POPC   GL213420  20.312   0.355   8.766
 9909POPC   C1A13421  20.498   0.253   8.837
 9909POPC   D2A13422  20.645   0.119   8.820
 9909POPC   C3A13423  20.793  -0.014   8.804
 9909POPC   C4A13424  20.941  -0.148   8.787
 9909POPC   C1B13425  20.387   0.118   8.934
 9909POPC   C2B13426  20.535  -0.016   8.918
 9909POPC   C3B13427  20.682  -0.149   8.901
 9909POPC   C4B13428  20.830  -0.283   8.885
 9910POPC   NC313429  -2.223  16.794   8.817
 9910POPC   PO413430  -2.399  16.888   8.801
 9910POPC   GL113431  -2.575  16.982   8.785
 9910POPC   GL213432  -2.613  16.922   8.855
 9910POPC   C1A13433  -2.751  17.076   8.768
 9910POPC   D2A13434  -2.926  17.170   8.752
 9910POPC   C3A13435  -3.102  17.264   8.735
 9910POPC   C4A13436  -3.278  17.358   8.719
 9910POPC   C1B13437  -2.807  16.946   8.627
 9910POPC   C2B13438  -2.983  17.040   8.611
 9910POPC   C3B13439  -3.159  17.134   8.594
 9910POPC   C4B13440  -3.334  17.228   8.578
 9911POPC   NC313441   2.713   8.645  -1.854
 9911POPC   PO413442   2.604   8.633  -2.021
 9911POPC   GL113443   2.495   8.621  -2.188
 9911POPC   GL213444   2.437   8.551  -2.145
 9911POPC   C1A13445   2.385   8.609  -2.355
 9911POPC   D2A13446   2.276   8.596  -2.522
 9911POPC   C3A13447   2.166   8.584  -2.689
 9911POPC   C4A13448   2.057   8.572  -2.856
 9911POPC   C1B13449   2.507   8.466  -2.424
 9911POPC   C2B13450   2.397   8.453  -2.591
 9911POPC   C3B13451   2.288   8.441  -2.758
 9911POPC   C4B13452   2.179   8.429  -2.925
 9912POPC   NC313453   8.714  -1.071   1.682
 9912POPC   PO413454   8.696  -1.232   1.565
 9912POPC   GL113455   8.678  -1.393   1.448
 9912POPC   GL213456   8.742  -1.443   1.506
 9912POPC   C1A13457   8.660  -1.554   1.331
 9912POPC   D2A13458   8.641  -1.715   1.213
 9912POPC   C3A13459   8.623  -1.876   1.096
 9912POPC   C4A13460   8.605  -2.037   0.979
 9912POPC   C1B13461   8.812  -1.489   1.218
 9912POPC   C2B13462   8.794  -1.650   1.101
 9912POPC   C3B13463   8.776  -1.811   0.984
 9912POPC   C4B13464   8.757  -1.972   0.867
 9913POPC   NC313465  20.124  13.850  18.348
 9913POPC   PO413466  20.263  13.904  18.482
 9913POPC   GL113467  20.402  13.958  18.616
 9913POPC   GL213468  20.435  14.028  18.553
 9913POPC   C1A13469  20.540  14.011  18.750
 9913POPC   D2A13470  20.679  14.065  18.883
 9913POPC   C3A13471  20.817  14.118  19.017
 9913POPC   C4A13472  20.956  14.172  19.151
 9913POPC   C1B13473  20.668  13.880  18.669
 9913POPC   C2B13474  20.807  13.934  18.803
 9913POPC   C3B13475  20.946  13.987  18.937
 9913POPC   C4B13476  21.084  14.041  19.071
 9914POPC   NC313477  20.662  15.763   3.410
 9914POPC   PO413478  20.816  15.846   3.313
 9914POPC   GL113479  20.970  15.929   3.216
 9914POPC   GL213480  20.909  15.956   3.142
 9914POPC   C1A13481  21.124  16.012   3.119
 9914POPC   D2A13482  21.278  16.096   3.023
 9914POPC   C3A13483  21.432  16.179   2.926
 9914POPC   C4A13484  21.586  16.262   2.829
 9914POPC   C1B13485  21.160  15.839   3.027
 9914POPC   C2B13486  21.314  15.922   2.930
 9914POPC   C3B13487  21.468  16.005   2.833
 9914POPC   C4B13488  21.622  16.088   2.737
 9915POPC   NC313489  -2.330   9.186  16.458
 9915POPC   PO413490  -2.507   9.175  16.550
 9915POPC   GL113491  -2.684   9.164  16.642
 9915POPC   GL213492  -2.674   9.065  16.650
 9915POPC   C1A13493  -2.861   9.153  16.735
 9915POPC   D2A13494  -3.038   9.141  16.827
 9915POPC   C3A13495  -3.215   9.130  16.920
 9915POPC   C4A13496  -3.392   9.119  17.012
 9915POPC   C1B13497  -2.952   9.130  16.558
 9915POPC   C2B13498  -3.129   9.119  16.650
 9915POPC   C3B13499  -3.306   9.108  16.743
 9915POPC   C4B13500  -3.483   9.097  16.835
 9916POPC   NC313501  16.070  18.967  18.527
 9916POPC   PO413502  16.161  19.100  18.646
 9916POPC   GL113503  16.252  19.233  18.765
 9916POPC   GL213504  16.340  19.186  18.749
 9916POPC   C1A13505  16.344  19.365  18.883
 9916POPC   D2A13506  16.435  19.498  19.002
 9916POPC   C3A13507  16.527  19.630  19.120
 9916POPC   C4A13508  16.618  19.763  19.239
 9916POPC   C1B13509  16.309  19.248  19.041
 9916POPC   C2B13510  16.400  19.381  19.160
 9916POPC   C3B13511  16.491  19.513  19.279
 9916POPC   C4B13512  16.583  19.646  19.397
 9917POPC   NC313513   7.817  14.196  -3.135
 9917POPC   PO413514   7.790  14.257  -3.323
 9917POPC   GL113515   7.763  14.318  -3.511
 9917POPC   GL213516   7.824  14.396  -3.495
 9917POPC   C1A13517   7.735  14.380  -3.700
 9917POPC   D2A13518   7.708  14.441  -3.888
 9917POPC   C3A13519   7.680  14.503  -4.077
 9917POPC   C4A13520   7.653  14.564  -4.265
 9917POPC   C1B13521   7.579  14.491  -3.641
 9917POPC   C2B13522   7.552  14.552  -3.829
 9917POPC   C3B13523   7.525  14.613  -4.018
 9917POPC   C4B13524   7.497  14.675  -4.206
 9918POPC   NC313525  17.646  -1.442  10.574
 9918POPC   PO413526  17.757  -1.608  10.587
 9918POPC   GL113527  17.868  -1.774  10.600
 9918POPC   GL213528  17.907  -1.755  10.510
 9918POPC   C1A13529  17.978  -1.940  10.613
 9918POPC   D2A13530  18.089  -2.106  10.626
 9918POPC   C3A13531  18.199  -2.272  10.639
 9918POPC   C4A13532  18.310  -2.438  10.652
 9918POPC   C1B13533  17.831  -2.045  10.527
 9918POPC   C2B13534  17.942  -2.211  10.540
 9918POPC   C3B13535  18.052  -2.377  10.553
 9918POPC   C4B13536  18.163  -2.543  10.566
 9919POPC   NC313537  22.525  15.406  11.419
 9919POPC   PO413538  22.708  15.484  11.440
 9919POPC   GL113539  22.891  15.562  11.461
 9919POPC   GL213540  22.929  15.470  11.468
 9919POPC   C1A13541  23.074  15.641  11.482
 9919POPC   D2A13542  23.256  15.719  11.504
 9919POPC   C3A13543  23.439  15.798  11.525
 9919POPC   C4A13544  23.622  15.876  11.546
 9919POPC   C1B13545  23.049  15.645  11.681
 9919POPC   C2B13546  23.232  15.724  11.702
 9919POPC   C3B13547  23.414  15.802  11.723
 9919POPC   C4B13548  23.597  15.880  11.744
 9920POPC   NC313549  10.175   0.653  -0.317
 9920POPC   PO413550  10.183   0.519  -0.465
 9920POPC   GL113551  10.191   0.385  -0.613
 9920POPC   GL213552  10.282   0.356  -0.582
 9920POPC   C1A13553  10.199   0.251  -0.761
 9920POPC   D2A13554  10.208   0.116  -0.910
 9920POPC   C3A13555  10.216  -0.018  -1.058
 9920POPC   C4A13556  10.224  -0.152  -1.206
 9920POPC   C1B13557  10.284   0.387  -0.881
 9920POPC   C2B13558  10.292   0.253  -1.029
 9920POPC   C3B13559  10.300   0.119  -1.177
 9920POPC   C4B13560  10.308  -0.015  -1.325
 9921POPC   NC313561  12.819  20.385   1.165
 9921POPC   PO413562  12.858  20.536   1.039
 9921POPC   GL113563  12.897  20.687   0.913
 9921POPC   GL213564  12.925  20.621   0.843
 9921POPC   C1A13565  12.936  20.837   0.788
 9921POPC   D2A13566  12.975  20.988   0.662
 9921POPC   C3A13567  13.014  21.138   0.537
 9921POPC   C4A13568  13.053  21.289   0.411
 9921POPC   C1B13569  13.124  20.845   0.856
 9921POPC   C2B13570  13.163  20.996   0.730
 9921POPC   C3B13571  13.202  21.146   0.604
 9921POPC   C4B13572  13.241  21.297   0.479
 9922POPC   NC313573   7.395   8.807  23.490
 9922POPC   PO413574   7.360   8.792  23.686
 9922POPC   GL113575   7.325   8.777  23.882
 9922POPC   GL213576   7.422   8.794  23.901
 9922POPC   C1A13577   7.290   8.763  24.079
 9922POPC   D2A13578   7.256   8.748  24.275
 9922POPC   C3A13579   7.221   8.734  24.472
 9922POPC   C4A13580   7.186   8.719  24.668
 9922POPC   C1B13581   7.325   8.566  24.070
 9922POPC   C2B13582   7.290   8.551  24.267
 9922POPC   C3B13583   7.255   8.537  24.463
 9922POPC   C4B13584   7.221   8.522  24.660
 9923POPC   NC313585  -0.991   8.927   1.460
 9923POPC   PO413586  -1.143   8.912   1.331
 9923POPC   GL113587  -1.295   8.897   1.202
 9923POPC   GL213588  -1.353   8.950   1.263
 9923POPC   C1A13589  -1.447   8.882   1.072
 9923POPC   D2A13590  -1.598   8.866   0.943
 9923POPC   C3A13591  -1.750   8.851   0.813
 9923POPC   C4A13592  -1.902   8.836   0.684
 9923POPC   C1B13593  -1.506   8.713   1.162
 9923POPC   C2B13594  -1.658   8.698   1.032
 9923POPC   C3B13595  -1.809   8.682   0.903
 9923POPC   C4B13596  -1.961   8.667   0.773
 9924POPC   NC313597   4.703  20.859   3.127
 9924POPC   PO413598   4.627  21.015   3.028
 9924POPC   GL113599   4.551  21.171   2.929
 9924POPC   GL213600   4.595  21.234   2.993
 9924POPC   C1A13601   4.474  21.327   2.830
 9924POPC   D2A13602   4.398  21.484   2.731
 9924POPC   C3A13603   4.321  21.640   2.632
 9924POPC   C4A13604   4.245  21.796   2.533
 9924POPC   C1B13605   4.312  21.322   2.947
 9924POPC   C2B13606   4.236  21.478   2.848
 9924POPC   C3B13607   4.159  21.634   2.749
 9924POPC   C4B13608   4.083  21.791   2.650
 9925POPC   NC313609   1.402   2.940   1.596
 9925POPC   PO413610   1.286   2.838   1.469
 9925POPC   GL113611   1.170   2.736   1.342
 9925POPC   GL213612   1.099   2.730   1.412
 9925POPC   C1A13613   1.054   2.634   1.215
 9925POPC   D2A13614   0.937   2.532   1.089
 9925POPC   C3A13615   0.821   2.430   0.962
 9925POPC   C4A13616   0.705   2.328   0.835
 9925POPC   C1B13617   1.133   2.462   1.280
 9925POPC   C2B13618   1.017   2.360   1.154
 9925POPC   C3B13619   0.901   2.258   1.027
 9925POPC   C4B13620   0.785   2.156   0.900
 9926POPC   NC313621  12.292  -3.182  13.491
 9926POPC   PO413622  12.328  -3.372  13.543
 9926POPC   GL113623  12.364  -3.562  13.595
 9926POPC   GL213624  12.408  -3.578  13.507
 9926POPC   C1A13625  12.400  -3.751  13.648
 9926POPC   D2A13626  12.437  -3.941  13.700
 9926POPC   C3A13627  12.473  -4.130  13.753
 9926POPC   C4A13628  12.509  -4.320  13.805
 9926POPC   C1B13629  12.224  -3.806  13.570
 9926POPC   C2B13630  12.261  -3.996  13.623
 9926POPC   C3B13631  12.297  -4.185  13.675
 9926POPC   C4B13632  12.333  -4.375  13.728
 9927POPC   NC313633   2.822   7.425  -1.756
 9927POPC   PO413634   2.718   7.392  -1.924
 9927POPC   GL113635   2.614   7.359  -2.092
 9927POPC   GL213636   2.553   7.297  -2.042
 9927POPC   C1A13637   2.510   7.326  -2.259
 9927POPC   D2A13638   2.405   7.293  -2.427
 9927POPC   C3A13639   2.301   7.260  -2.594
 9927POPC   C4A13640   2.197   7.227  -2.762
 9927POPC   C1B13641   2.630   7.173  -2.304
 9927POPC   C2B13642   2.526   7.140  -2.471
 9927POPC   C3B13643   2.422   7.107  -2.639
 9927POPC   C4B13644   2.318   7.074  -2.807
 9928POPC   NC313645   0.401   8.490  -0.023
 9928POPC   PO413646   0.262   8.474  -0.165
 9928POPC   GL113647   0.123   8.458  -0.307
 9928POPC   GL213648   0.137   8.359  -0.310
 9928POPC   C1A13649  -0.017   8.442  -0.450
 9928POPC   D2A13650  -0.156   8.425  -0.592
 9928POPC   C3A13651  -0.296   8.409  -0.735
 9928POPC   C4A13652  -0.435   8.393  -0.877
 9928POPC   C1B13653   0.124   8.467  -0.590
 9928POPC   C2B13654  -0.016   8.450  -0.732
 9928POPC   C3B13655  -0.155   8.434  -0.875
 9928POPC   C4B13656  -0.295   8.418  -1.017
 9929POPC   NC313657   0.670   7.448  -0.114
 9929POPC   PO413658   0.536   7.418  -0.259
 9929POPC   GL113659   0.402   7.388  -0.404
 9929POPC   GL213660   0.379   7.299  -0.365
 9929POPC   C1A13661   0.267   7.358  -0.549
 9929POPC   D2A13662   0.133   7.328  -0.694
 9929POPC   C3A13663  -0.002   7.298  -0.839
 9929POPC   C4A13664  -0.136   7.268  -0.984
 9929POPC   C1B13665   0.408   7.272  -0.662
 9929POPC   C2B13666   0.274   7.242  -0.807
 9929POPC   C3B13667   0.139   7.212  -0.952
 9929POPC   C4B13668   0.005   7.182  -1.097
 9930POPC   NC313669  21.843   5.163   4.783
 9930POPC   PO413670  22.015   5.092   4.710
 9930POPC   GL113671  22.187   5.021   4.637
 9930POPC   GL213672  22.198   5.104   4.582
 9930POPC   C1A13673  22.359   4.950   4.564
 9930POPC   D2A13674  22.532   4.879   4.492
 9930POPC   C3A13675  22.704   4.808   4.419
 9930POPC   C4A13676  22.876   4.737   4.346
 9930POPC   C1B13677  22.260   4.863   4.414
 9930POPC   C2B13678  22.432   4.792   4.342
 9930POPC   C3B13679  22.604   4.721   4.269
 9930POPC   C4B13680  22.777   4.650   4.196
 9931POPC   NC313681  17.357  20.081  15.491
 9931POPC   PO413682  17.470  20.226  15.569
 9931POPC   GL113683  17.583  20.371  15.647
 9931POPC   GL213684  17.560  20.431  15.571
 9931POPC   C1A13685  17.696  20.516  15.726
 9931POPC   D2A13686  17.810  20.661  15.804
 9931POPC   C3A13687  17.923  20.806  15.883
 9931POPC   C4A13688  18.036  20.951  15.961
 9931POPC   C1B13689  17.855  20.447  15.624
 9931POPC   C2B13690  17.968  20.592  15.703
 9931POPC   C3B13691  18.081  20.737  15.781
 9931POPC   C4B13692  18.194  20.882  15.860
 9932POPC   NC313693   1.396  19.437   4.514
 9932POPC   PO413694   1.279  19.580   4.438
 9932POPC   GL113695   1.162  19.723   4.362
 9932POPC   GL213696   1.239  19.787   4.362
 9932POPC   C1A13697   1.045  19.866   4.286
 9932POPC   D2A13698   0.928  20.010   4.209
 9932POPC   C3A13699   0.811  20.153   4.133
 9932POPC   C4A13700   0.694  20.296   4.057
 9932POPC   C1B13701   0.997  19.925   4.471
 9932POPC   C2B13702   0.880  20.069   4.394
 9932POPC   C3B13703   0.763  20.212   4.318
 9932POPC   C4B13704   0.646  20.355   4.242
 9933POPC   NC313705  13.149  18.465  -0.555
 9933POPC   PO413706  13.190  18.582  -0.712
 9933POPC   GL113707  13.231  18.699  -0.869
 9933POPC   GL213708  13.189  18.632  -0.930
 9933POPC   C1A13709  13.273  18.816  -1.026
 9933POPC   D2A13710  13.314  18.933  -1.182
 9933POPC   C3A13711  13.356  19.050  -1.339
 9933POPC   C4A13712  13.397  19.167  -1.496
 9933POPC   C1B13713  13.449  18.724  -1.047
 9933POPC   C2B13714  13.491  18.841  -1.204
 9933POPC   C3B13715  13.532  18.958  -1.361
 9933POPC   C4B13716  13.573  19.075  -1.518
 9934POPC   NC313717  16.755  21.340   5.873
 9934POPC   PO413718  16.847  21.510   5.821
 9934POPC   GL113719  16.939  21.680   5.769
 9934POPC   GL213720  17.019  21.652   5.821
 9934POPC   C1A13721  17.030  21.850   5.718
 9934POPC   D2A13722  17.122  22.021   5.666
 9934POPC   C3A13723  17.213  22.191   5.615
 9934POPC   C4A13724  17.305  22.361   5.563
 9934POPC   C1B13725  16.956  21.940   5.881
 9934POPC   C2B13726  17.048  22.110   5.829
 9934POPC   C3B13727  17.140  22.280   5.778
 9934POPC   C4B13728  17.231  22.450   5.726
 9935POPC   NC313729  18.847  19.954  13.059
 9935POPC   PO413730  18.980  20.094  13.113
 9935POPC   GL113731  19.113  20.234  13.167
 9935POPC   GL213732  19.156  20.169  13.230
 9935POPC   C1A13733  19.245  20.374  13.221
 9935POPC   D2A13734  19.378  20.513  13.275
 9935POPC   C3A13735  19.510  20.653  13.329
 9935POPC   C4A13736  19.643  20.793  13.383
 9935POPC   C1B13737  19.123  20.433  13.367
 9935POPC   C2B13738  19.255  20.573  13.421
 9935POPC   C3B13739  19.388  20.713  13.475
 9935POPC   C4B13740  19.521  20.853  13.529
 9936POPC   NC313741   6.808  23.470  11.370
 9936POPC   PO413742   6.765  23.664  11.391
 9936POPC   GL113743   6.722  23.858  11.412
 9936POPC   GL213744   6.760  23.857  11.504
 9936POPC   C1A13745   6.679  24.052  11.433
 9936POPC   D2A13746   6.635  24.247  11.453
 9936POPC   C3A13747   6.592  24.441  11.474
 9936POPC   C4A13748   6.549  24.635  11.495
 9936POPC   C1B13749   6.499  24.004  11.507
 9936POPC   C2B13750   6.456  24.199  11.527
 9936POPC   C3B13751   6.413  24.393  11.548
 9936POPC   C4B13752   6.369  24.587  11.569
 9937POPC   NC313753  -0.644  13.045  18.464
 9937POPC   PO413754  -0.794  13.083  18.590
 9937POPC   GL113755  -0.944  13.121  18.716
 9937POPC   GL213756  -0.908  13.054  18.780
 9937POPC   C1A13757  -1.095  13.159  18.842
 9937POPC   D2A13758  -1.245  13.198  18.969
 9937POPC   C3A13759  -1.396  13.236  19.095
 9937POPC   C4A13760  -1.546  13.274  19.221
 9937POPC   C1B13761  -1.204  13.017  18.755
 9937POPC   C2B13762  -1.355  13.055  18.881
 9937POPC   C3B13763  -1.505  13.093  19.007
 9937POPC   C4B13764  -1.656  13.131  19.134
 9938POPC   NC313765  18.339  17.919   2.487
 9938POPC   PO413766  18.460  18.041   2.385
 9938POPC   GL113767  18.581  18.163   2.283
 9938POPC   GL213768  18.552  18.120   2.197
 9938POPC   C1A13769  18.703  18.284   2.180
 9938POPC   D2A13770  18.824  18.406   2.078
 9938POPC   C3A13771  18.946  18.527   1.975
 9938POPC   C4A13772  19.067  18.649   1.873
 9938POPC   C1B13773  18.851  18.151   2.197
 9938POPC   C2B13774  18.972  18.272   2.094
 9938POPC   C3B13775  19.093  18.394   1.992
 9938POPC   C4B13776  19.215  18.515   1.890
 9939POPC   NC313777  -4.007   9.359   9.110
 9939POPC   PO413778  -4.206   9.352   9.095
 9939POPC   GL113779  -4.405   9.345   9.080
 9939POPC   GL213780  -4.412   9.432   9.130
 9939POPC   C1A13781  -4.604   9.338   9.064
 9939POPC   D2A13782  -4.804   9.332   9.049
 9939POPC   C3A13783  -5.003   9.325   9.033
 9939POPC   C4A13784  -5.202   9.318   9.018
 9939POPC   C1B13785  -4.614   9.237   9.237
 9939POPC   C2B13786  -4.813   9.231   9.221
 9939POPC   C3B13787  -5.013   9.224   9.206
 9939POPC   C4B13788  -5.212   9.217   9.190
 9940POPC   NC313789  21.395   3.358   6.007
 9940POPC   PO413790  21.562   3.260   5.957
 9940POPC   GL113791  21.729   3.162   5.907
 9940POPC   GL213792  21.766   3.245   5.867
 9940POPC   C1A13793  21.896   3.063   5.857
 9940POPC   D2A13794  22.062   2.965   5.808
 9940POPC   C3A13795  22.229   2.866   5.758
 9940POPC   C4A13796  22.396   2.768   5.708
 9940POPC   C1B13797  21.814   3.014   5.682
 9940POPC   C2B13798  21.981   2.915   5.632
 9940POPC   C3B13799  22.147   2.817   5.582
 9940POPC   C4B13800  22.314   2.719   5.532
 9941POPC   NC313801   3.874   3.441  20.586
 9941POPC   PO413802   3.775   3.352  20.735
 9941POPC   GL113803   3.676   3.263  20.884
 9941POPC   GL213804   3.698   3.340  20.945
 9941POPC   C1A13805   3.577   3.175  21.034
 9941POPC   D2A13806   3.477   3.086  21.183
 9941POPC   C3A13807   3.378   2.998  21.333
 9941POPC   C4A13808   3.279   2.909  21.482
 9941POPC   C1B13809   3.744   3.081  21.089
 9941POPC   C2B13810   3.645   2.992  21.239
 9941POPC   C3B13811   3.546   2.904  21.388
 9941POPC   C4B13812   3.447   2.815  21.538
 9942POPC   NC313813  18.433   8.162  -0.792
 9942POPC   PO413814  18.552   8.134  -0.951
 9942POPC   GL113815  18.671   8.106  -1.110
 9942POPC   GL213816  18.676   8.205  -1.123
 9942POPC   C1A13817  18.790   8.078  -1.268
 9942POPC   D2A13818  18.908   8.051  -1.427
 9942POPC   C3A13819  19.027   8.023  -1.585
 9942POPC   C4A13820  19.146   7.995  -1.744
 9942POPC   C1B13821  18.629   8.070  -1.387
 9942POPC   C2B13822  18.748   8.042  -1.546
 9942POPC   C3B13823  18.867   8.014  -1.704
 9942POPC   C4B13824  18.985   7.986  -1.863
 9943POPC   NC313825  14.868  21.842  15.000
 9943POPC   PO413826  14.940  22.013  15.075
 9943POPC   GL113827  15.012  22.184  15.150
 9943POPC   GL213828  15.100  22.167  15.105
 9943POPC   C1A13829  15.084  22.354  15.226
 9943POPC   D2A13830  15.157  22.525  15.301
 9943POPC   C3A13831  15.229  22.695  15.377
 9943POPC   C4A13832  15.301  22.866  15.452
 9943POPC   C1B13833  15.149  22.255  15.387
 9943POPC   C2B13834  15.222  22.426  15.463
 9943POPC   C3B13835  15.294  22.597  15.538
 9943POPC   C4B13836  15.366  22.767  15.613
 9944POPC   NC313837   5.036  15.176  21.921
 9944POPC   PO413838   4.959  15.249  22.091
 9944POPC   GL113839   4.882  15.322  22.261
 9944POPC   GL213840   4.880  15.230  22.299
 9944POPC   C1A13841   4.806  15.396  22.430
 9944POPC   D2A13842   4.729  15.469  22.600
 9944POPC   C3A13843   4.653  15.543  22.769
 9944POPC   C4A13844   4.576  15.616  22.939
 9944POPC   C1B13845   4.621  15.370  22.358
 9944POPC   C2B13846   4.544  15.444  22.527
 9944POPC   C3B13847   4.468  15.517  22.697
 9944POPC   C4B13848   4.391  15.591  22.867
 9945POPC   NC313849  14.221  -1.988   4.545
 9945POPC   PO413850  14.291  -2.161   4.472
 9945POPC   GL113851  14.361  -2.334   4.399
 9945POPC   GL213852  14.441  -2.286   4.362
 9945POPC   C1A13853  14.431  -2.506   4.326
 9945POPC   D2A13854  14.500  -2.679   4.253
 9945POPC   C3A13855  14.570  -2.851   4.180
 9945POPC   C4A13856  14.640  -3.024   4.107
 9945POPC   C1B13857  14.333  -2.473   4.155
 9945POPC   C2B13858  14.402  -2.646   4.082
 9945POPC   C3B13859  14.472  -2.819   4.009
 9945POPC   C4B13860  14.542  -2.991   3.936
 9946POPC   NC313861  -1.109  13.084   1.900
 9946POPC   PO413862  -1.267  13.129   1.787
 9946POPC   GL113863  -1.425  13.174   1.674
 9946POPC   GL213864  -1.475  13.096   1.712
 9946POPC   C1A13865  -1.584  13.219   1.560
 9946POPC   D2A13866  -1.742  13.264   1.447
 9946POPC   C3A13867  -1.901  13.309   1.333
 9946POPC   C4A13868  -2.059  13.354   1.220
 9946POPC   C1B13869  -1.513  13.102   1.414
 9946POPC   C2B13870  -1.671  13.147   1.301
 9946POPC   C3B13871  -1.829  13.192   1.188
 9946POPC   C4B13872  -1.988  13.237   1.074
 9947POPC   NC313873  19.917   0.772  12.281
 9947POPC   PO413874  20.064   0.641  12.316
 9947POPC   GL113875  20.211   0.510  12.351
 9947POPC   GL213876  20.260   0.543  12.271
 9947POPC   C1A13877  20.357   0.378  12.387
 9947POPC   D2A13878  20.504   0.247  12.422
 9947POPC   C3A13879  20.650   0.115  12.458
 9947POPC   C4A13880  20.797  -0.016  12.493
 9947POPC   C1B13881  20.264   0.243  12.272
 9947POPC   C2B13882  20.411   0.112  12.307
 9947POPC   C3B13883  20.557  -0.019  12.343
 9947POPC   C4B13884  20.704  -0.151  12.378
 9948POPC   NC313885  15.223  -1.407  15.753
 9948POPC   PO413886  15.297  -1.574  15.834
 9948POPC   GL113887  15.371  -1.741  15.915
 9948POPC   GL213888  15.458  -1.726  15.867
 9948POPC   C1A13889  15.445  -1.909  15.996
 9948POPC   D2A13890  15.518  -2.076  16.076
 9948POPC   C3A13891  15.592  -2.244  16.157
 9948POPC   C4A13892  15.666  -2.411  16.238
 9948POPC   C1B13893  15.378  -2.014  15.839
 9948POPC   C2B13894  15.451  -2.181  15.920
 9948POPC   C3B13895  15.525  -2.349  16.001
 9948POPC   C4B13896  15.599  -2.516  16.081
 9949POPC   NC313897  16.762  20.720   4.504
 9949POPC   PO413898  16.861  20.871   4.417
 9949POPC   GL113899  16.960  21.022   4.330
 9949POPC   GL213900  16.906  21.010   4.247
 9949POPC   C1A13901  17.059  21.172   4.244
 9949POPC   D2A13902  17.158  21.323   4.157
 9949POPC   C3A13903  17.257  21.473   4.071
 9949POPC   C4A13904  17.356  21.624   3.984
 9949POPC   C1B13905  17.195  21.043   4.174
 9949POPC   C2B13906  17.294  21.194   4.087
 9949POPC   C3B13907  17.393  21.344   4.001
 9949POPC   C4B13908  17.492  21.495   3.914
 9950POPC   NC313909  12.284  23.621  10.374
 9950POPC   PO413910  12.315  23.818  10.380
 9950POPC   GL113911  12.346  24.015  10.386
 9950POPC   GL213912  12.431  24.003  10.334
 9950POPC   C1A13913  12.378  24.213  10.392
 9950POPC   D2A13914  12.409  24.410  10.398
 9950POPC   C3A13915  12.441  24.608  10.404
 9950POPC   C4A13916  12.472  24.805  10.410
 9950POPC   C1B13917  12.479  24.192  10.563
 9950POPC   C2B13918  12.510  24.389  10.569
 9950POPC   C3B13919  12.542  24.586  10.575
 9950POPC   C4B13920  12.573  24.784  10.581
 9951POPC   NC313921  17.170  20.965   5.502
 9951POPC   PO413922  17.272  21.123   5.434
 9951POPC   GL113923  17.374  21.281   5.366
 9951POPC   GL213924  17.458  21.242   5.402
 9951POPC   C1A13925  17.475  21.440   5.298
 9951POPC   D2A13926  17.577  21.598   5.231
 9951POPC   C3A13927  17.678  21.757   5.163
 9951POPC   C4A13928  17.780  21.915   5.095
 9951POPC   C1B13929  17.445  21.534   5.472
 9951POPC   C2B13930  17.546  21.692   5.404
 9951POPC   C3B13931  17.648  21.851   5.337
 9951POPC   C4B13932  17.749  22.009   5.269
 9952POPC   NC313933  -3.801   8.227   8.086
 9952POPC   PO413934  -3.997   8.206   8.054
 9952POPC   GL113935  -4.193   8.185   8.022
 9952POPC   GL213936  -4.212   8.250   8.095
 9952POPC   C1A13937  -4.389   8.164   7.989
 9952POPC   D2A13938  -4.586   8.144   7.957
 9952POPC   C3A13939  -4.782   8.123   7.924
 9952POPC   C4A13940  -4.978   8.102   7.892
 9952POPC   C1B13941  -4.395   8.013   8.120
 9952POPC   C2B13942  -4.591   7.993   8.088
 9952POPC   C3B13943  -4.787   7.972   8.055
 9952POPC   C4B13944  -4.984   7.951   8.023
 9953POPC   NC313945   5.109   3.498  -1.368
 9953POPC   PO413946   5.033   3.398  -1.524
 9953POPC   GL113947   4.957   3.298  -1.680
 9953POPC   GL213948   5.031   3.232  -1.674
 9953POPC   C1A13949   4.881   3.199  -1.836
 9953POPC   D2A13950   4.804   3.099  -1.991
 9953POPC   C3A13951   4.728   3.000  -2.147
 9953POPC   C4A13952   4.652   2.900  -2.303
 9953POPC   C1B13953   4.990   3.310  -1.960
 9953POPC   C2B13954   4.914   3.211  -2.116
 9953POPC   C3B13955   4.837   3.111  -2.272
 9953POPC   C4B13956   4.761   3.012  -2.428
 9954POPC   NC313957  -3.884   9.093   8.224
 9954POPC   PO413958  -4.081   9.086   8.190
 9954POPC   GL113959  -4.278   9.079   8.156
 9954POPC   GL213960  -4.291   9.157   8.217
 9954POPC   C1A13961  -4.475   9.072   8.122
 9954POPC   D2A13962  -4.672   9.065   8.088
 9954POPC   C3A13963  -4.869   9.058   8.054
 9954POPC   C4A13964  -5.066   9.051   8.020
 9954POPC   C1B13965  -4.497   8.948   8.277
 9954POPC   C2B13966  -4.694   8.941   8.243
 9954POPC   C3B13967  -4.891   8.934   8.209
 9954POPC   C4B13968  -5.088   8.927   8.175
 9955POPC   NC313969  -3.986   9.365   8.881
 9955POPC   PO413970  -4.185   9.360   8.860
 9955POPC   GL113971  -4.384   9.355   8.839
 9955POPC   GL213972  -4.391   9.443   8.885
 9955POPC   C1A13973  -4.583   9.349   8.818
 9955POPC   D2A13974  -4.781   9.344   8.797
 9955POPC   C3A13975  -4.980   9.338   8.776
 9955POPC   C4A13976  -5.179   9.333   8.755
 9955POPC   C1B13977  -4.599   9.256   8.994
 9955POPC   C2B13978  -4.797   9.251   8.973
 9955POPC   C3B13979  -4.996   9.245   8.952
 9955POPC   C4B13980  -5.195   9.240   8.931
 9956POPC   NC313981  22.453  14.206   5.856
 9956POPC   PO413982  22.633  14.272   5.800
 9956POPC   GL113983  22.813  14.338   5.744
 9956POPC   GL213984  22.770  14.398   5.676
 9956POPC   C1A13985  22.994  14.403   5.687
 9956POPC   D2A13986  23.174  14.469   5.631
 9956POPC   C3A13987  23.355  14.534   5.574
 9956POPC   C4A13988  23.535  14.600   5.518
 9956POPC   C1B13989  23.004  14.258   5.550
 9956POPC   C2B13990  23.184  14.323   5.494
 9956POPC   C3B13991  23.365  14.389   5.438
 9956POPC   C4B13992  23.545  14.454   5.381
 9957POPC   NC313993   8.861   3.505  -2.272
 9957POPC   PO413994   8.852   3.418  -2.452
 9957POPC   GL113995   8.843   3.331  -2.632
 9957POPC   GL213996   8.942   3.323  -2.633
 9957POPC   C1A13997   8.833   3.243  -2.811
 9957POPC   D2A13998   8.824   3.156  -2.991
 9957POPC   C3A13999   8.814   3.068  -3.170
 9957POPC   C4A14000   8.805   2.981  -3.350
 9957POPC   C1B14001   8.844   3.423  -2.899
 9957POPC   C2B14002   8.835   3.335  -3.079
 9957POPC   C3B14003   8.826   3.248  -3.258
 9957POPC   C4B14004   8.816   3.160  -3.438
 9958POPC   NC314005   2.129   5.872  20.554
 9958POPC   PO414006   2.014   5.807  20.704
 9958POPC   GL114007   1.899   5.742  20.854
 9958POPC   GL214008   1.979   5.700  20.897
 9958POPC   C1A14009   1.784   5.677  21.004
 9958POPC   D2A14010   1.668   5.612  21.154
 9958POPC   C3A14011   1.553   5.547  21.304
 9958POPC   C4A14012   1.438   5.482  21.454
 9958POPC   C1B14013   1.750   5.507  20.904
 9958POPC   C2B14014   1.634   5.442  21.054
 9958POPC   C3B14015   1.519   5.377  21.204
 9958POPC   C4B14016   1.404   5.312  21.354
 9959POPC   NC314017  -1.173  12.593  17.910
 9959POPC   PO414018  -1.332  12.622  18.028
 9959POPC   GL114019  -1.491  12.651  18.146
 9959POPC   GL214020  -1.432  12.650  18.226
 9959POPC   C1A14021  -1.650  12.679  18.264
 9959POPC   D2A14022  -1.810  12.708  18.381
 9959POPC   C3A14023  -1.969  12.736  18.499
 9959POPC   C4A14024  -2.128  12.765  18.617
 9959POPC   C1B14025  -1.674  12.481  18.280
 9959POPC   C2B14026  -1.833  12.510  18.398
 9959POPC   C3B14027  -1.992  12.538  18.516
 9959POPC   C4B14028  -2.152  12.567  18.633
 9960POPC   NC314029  20.737  12.634   1.816
 9960POPC   PO414030  20.894  12.665   1.697
 9960POPC   GL114031  21.051  12.696   1.578
 9960POPC   GL214032  20.997  12.759   1.522
 9960POPC   C1A14033  21.209  12.728   1.458
 9960POPC   D2A14034  21.366  12.759   1.339
 9960POPC   C3A14035  21.524  12.791   1.219
 9960POPC   C4A14036  21.681  12.822   1.100
 9960POPC   C1B14037  21.151  12.576   1.342
 9960POPC   C2B14038  21.308  12.607   1.223
 9960POPC   C3B14039  21.466  12.638   1.103
 9960POPC   C4B14040  21.623  12.670   0.984
 9961POPC   NC314041  19.685  13.301  18.998
 9961POPC   PO414042  19.820  13.351  19.137
 9961POPC   GL114043  19.955  13.401  19.276
 9961POPC   GL214044  19.952  13.496  19.245
 9961POPC   C1A14045  20.090  13.451  19.415
 9961POPC   D2A14046  20.224  13.501  19.555
 9961POPC   C3A14047  20.359  13.551  19.694
 9961POPC   C4A14048  20.494  13.601  19.833
 9961POPC   C1B14049  20.237  13.413  19.286
 9961POPC   C2B14050  20.372  13.463  19.425
 9961POPC   C3B14051  20.507  13.513  19.564
 9961POPC   C4B14052  20.642  13.563  19.704
 9962POPC   NC314053  -3.227   9.624  14.465
 9962POPC   PO414054  -3.415   9.621  14.532
 9962POPC   GL114055  -3.603   9.618  14.599
 9962POPC   GL214056  -3.583   9.535  14.652
 9962POPC   C1A14057  -3.791   9.615  14.667
 9962POPC   D2A14058  -3.980   9.611  14.734
 9962POPC   C3A14059  -4.168   9.608  14.802
 9962POPC   C4A14060  -4.356   9.605  14.869
 9962POPC   C1B14061  -3.846   9.502  14.510
 9962POPC   C2B14062  -4.034   9.499  14.578
 9962POPC   C3B14063  -4.222   9.496  14.645
 9962POPC   C4B14064  -4.410   9.493  14.713
 9963POPC   NC314065  11.547  22.324   3.932
 9963POPC   PO414066  11.579  22.503   3.850
 9963POPC   GL114067  11.611  22.682   3.768
 9963POPC   GL214068  11.684  22.644   3.712
 9963POPC   C1A14069  11.642  22.862   3.685
 9963POPC   D2A14070  11.674  23.041   3.603
 9963POPC   C3A14071  11.705  23.221   3.520
 9963POPC   C4A14072  11.737  23.400   3.438
 9963POPC   C1B14073  11.774  22.905   3.829
 9963POPC   C2B14074  11.806  23.084   3.747
 9963POPC   C3B14075  11.838  23.263   3.664
 9963POPC   C4B14076  11.869  23.443   3.582
 9964POPC   NC314077  12.899  -1.963  16.318
 9964POPC   PO414078  12.946  -2.134  16.410
 9964POPC   GL114079  12.993  -2.305  16.502
 9964POPC   GL214080  13.064  -2.258  16.554
 9964POPC   C1A14081  13.040  -2.476  16.594
 9964POPC   D2A14082  13.088  -2.648  16.686
 9964POPC   C3A14083  13.135  -2.819  16.778
 9964POPC   C4A14084  13.182  -2.990  16.870
 9964POPC   C1B14085  13.173  -2.518  16.450
 9964POPC   C2B14086  13.220  -2.689  16.542
 9964POPC   C3B14087  13.267  -2.860  16.634
 9964POPC   C4B14088  13.314  -3.031  16.726
 9965POPC   NC314089   7.594  12.143  23.318
 9965POPC   PO414090   7.556  12.168  23.513
 9965POPC   GL114091   7.518  12.193  23.708
 9965POPC   GL214092   7.603  12.145  23.731
 9965POPC   C1A14093   7.480  12.218  23.903
 9965POPC   D2A14094   7.441  12.242  24.097
 9965POPC   C3A14095   7.403  12.267  24.292
 9965POPC   C4A14096   7.365  12.292  24.487
 9965POPC   C1B14097   7.381  12.044  23.905
 9965POPC   C2B14098   7.342  12.069  24.100
 9965POPC   C3B14099   7.304  12.093  24.295
 9965POPC   C4B14100   7.266  12.118  24.490
 9966POPC   NC314101  -2.367  10.380   3.426
 9966POPC   PO414102  -2.546  10.383   3.337
 9966POPC   GL114103  -2.725  10.386   3.248
 9966POPC   GL214104  -2.750  10.301   3.295
 9966POPC   C1A14105  -2.904  10.389   3.160
 9966POPC   D2A14106  -3.084  10.392   3.071
 9966POPC   C3A14107  -3.263  10.395   2.983
 9966POPC   C4A14108  -3.442  10.398   2.894
 9966POPC   C1B14109  -2.830  10.285   3.006
 9966POPC   C2B14110  -3.009  10.288   2.917
 9966POPC   C3B14111  -3.189  10.291   2.829
 9966POPC   C4B14112  -3.368  10.294   2.740
 9967POPC   NC314113   0.593  17.776   3.168
 9967POPC   PO414114   0.460  17.891   3.073
 9967POPC   GL114115   0.327  18.006   2.978
 9967POPC   GL214116   0.273  18.013   3.062
 9967POPC   C1A14117   0.193  18.120   2.882
 9967POPC   D2A14118   0.060  18.235   2.787
 9967POPC   C3A14119  -0.074  18.349   2.691
 9967POPC   C4A14120  -0.207  18.464   2.596
 9967POPC   C1B14121   0.090  17.957   2.831
 9967POPC   C2B14122  -0.044  18.072   2.736
 9967POPC   C3B14123  -0.177  18.186   2.640
 9967POPC   C4B14124  -0.311  18.301   2.545
 9968POPC   NC314125  10.015  19.149  -0.391
 9968POPC   PO414126  10.017  19.281  -0.541
 9968POPC   GL114127  10.019  19.413  -0.691
 9968POPC   GL214128  10.095  19.462  -0.647
 9968POPC   C1A14129  10.022  19.545  -0.841
 9968POPC   D2A14130  10.024  19.677  -0.992
 9968POPC   C3A14131  10.027  19.809  -1.142
 9968POPC   C4A14132  10.029  19.941  -1.292
 9968POPC   C1B14133   9.890  19.659  -0.743
 9968POPC   C2B14134   9.892  19.791  -0.894
 9968POPC   C3B14135   9.895  19.923  -1.044
 9968POPC   C4B14136   9.897  20.055  -1.194
 9969POPC   NC314137   1.056   1.395   3.451
 9969POPC   PO414138   0.933   1.272   3.353
 9969POPC   GL114139   0.810   1.149   3.255
 9969POPC   GL214140   0.850   1.071   3.303
 9969POPC   C1A14141   0.686   1.026   3.157
 9969POPC   D2A14142   0.563   0.902   3.058
 9969POPC   C3A14143   0.439   0.779   2.960
 9969POPC   C4A14144   0.316   0.656   2.862
 9969POPC   C1B14145   0.822   1.006   3.011
 9969POPC   C2B14146   0.698   0.883   2.913
 9969POPC   C3B14147   0.575   0.759   2.815
 9969POPC   C4B14148   0.452   0.636   2.716
 9970POPC   NC314149  -0.142  15.217  17.993
 9970POPC   PO414150  -0.281  15.296  18.113
 9970POPC   GL114151  -0.420  15.375  18.233
 9970POPC   GL214152  -0.367  15.459  18.240
 9970POPC   C1A14153  -0.559  15.454  18.353
 9970POPC   D2A14154  -0.699  15.533  18.473
 9970POPC   C3A14155  -0.838  15.612  18.593
 9970POPC   C4A14156  -0.977  15.691  18.713
 9970POPC   C1B14157  -0.464  15.380  18.512
 9970POPC   C2B14158  -0.603  15.459  18.632
 9970POPC   C3B14159  -0.743  15.538  18.752
 9970POPC   C4B14160  -0.882  15.617  18.872
 9971POPC   NC314161  10.214  -3.735  11.585
 9971POPC   PO414162  10.219  -3.934  11.606
 9971POPC   GL114163  10.224  -4.133  11.627
 9971POPC   GL214164  10.276  -4.141  11.542
 9971POPC   C1A14165  10.228  -4.332  11.649
 9971POPC   D2A14166  10.233  -4.530  11.670
 9971POPC   C3A14167  10.237  -4.729  11.692
 9971POPC   C4A14168  10.242  -4.928  11.713
 9971POPC   C1B14169  10.058  -4.347  11.545
 9971POPC   C2B14170  10.062  -4.545  11.567
 9971POPC   C3B14171  10.067  -4.744  11.588
 9971POPC   C4B14172  10.071  -4.943  11.610
 9972POPC   NC314173  -0.542  14.616   1.925
 9972POPC   PO414174  -0.692  14.687   1.814
 9972POPC   GL114175  -0.842  14.758   1.703
 9972POPC   GL214176  -0.803  14.850   1.708
 9972POPC   C1A14177  -0.993  14.830   1.592
 9972POPC   D2A14178  -1.143  14.901   1.482
 9972POPC   C3A14179  -1.294  14.973   1.371
 9972POPC   C4A14180  -1.444  15.044   1.260
 9972POPC   C1B14181  -1.098  14.866   1.759
 9972POPC   C2B14182  -1.248  14.938   1.648
 9972POPC   C3B14183  -1.399  15.009   1.537
 9972POPC   C4B14184  -1.549  15.081   1.426
 9973POPC   NC314185   6.278  13.270  22.856
 9973POPC   PO414186   6.234  13.301  23.048
 9973POPC   GL114187   6.190  13.332  23.240
 9973POPC   GL214188   6.236  13.247  23.265
 9973POPC   C1A14189   6.145  13.364  23.433
 9973POPC   D2A14190   6.101  13.395  23.625
 9973POPC   C3A14191   6.056  13.427  23.818
 9973POPC   C4A14192   6.012  13.458  24.010
 9973POPC   C1B14193   5.974  13.264  23.410
 9973POPC   C2B14194   5.929  13.295  23.602
 9973POPC   C3B14195   5.885  13.326  23.794
 9973POPC   C4B14196   5.840  13.358  23.987
 9974POPC   NC314197  21.917  15.225   5.532
 9974POPC   PO414198  22.090  15.309   5.478
 9974POPC   GL114199  22.263  15.393   5.424
 9974POPC   GL214200  22.214  15.454   5.361
 9974POPC   C1A14201  22.436  15.478   5.369
 9974POPC   D2A14202  22.609  15.562   5.315
 9974POPC   C3A14203  22.782  15.647   5.260
 9974POPC   C4A14204  22.955  15.731   5.206
 9974POPC   C1B14205  22.456  15.342   5.223
 9974POPC   C2B14206  22.629  15.427   5.169
 9974POPC   C3B14207  22.802  15.511   5.115
 9974POPC   C4B14208  22.975  15.596   5.060
 9975POPC   NC314209   8.388  13.208  23.278
 9975POPC   PO414210   8.359  13.249  23.472
 9975POPC   GL114211   8.330  13.290  23.666
 9975POPC   GL214212   8.414  13.241  23.689
 9975POPC   C1A14213   8.301  13.332  23.859
 9975POPC   D2A14214   8.271  13.373  24.053
 9975POPC   C3A14215   8.242  13.415  24.246
 9975POPC   C4A14216   8.213  13.456  24.440
 9975POPC   C1B14217   8.196  13.163  23.880
 9975POPC   C2B14218   8.167  13.204  24.073
 9975POPC   C3B14219   8.138  13.245  24.267
 9975POPC   C4B14220   8.108  13.287  24.460
 9976POPC   NC314221  10.878   1.231  -0.745
 9976POPC   PO414222  10.896   1.107  -0.901
 9976POPC   GL114223  10.914   0.983  -1.057
 9976POPC   GL214224  11.012   0.975  -1.039
 9976POPC   C1A14225  10.932   0.859  -1.213
 9976POPC   D2A14226  10.951   0.735  -1.369
 9976POPC   C3A14227  10.969   0.611  -1.525
 9976POPC   C4A14228  10.987   0.487  -1.681
 9976POPC   C1B14229  10.968   1.015  -1.333
 9976POPC   C2B14230  10.986   0.891  -1.489
 9976POPC   C3B14231  11.004   0.767  -1.645
 9976POPC   C4B14232  11.022   0.643  -1.801
 9977POPC   NC314233   7.123   3.317  21.719
 9977POPC   PO414234   7.088   3.229  21.895
 9977POPC   GL114235   7.053   3.141  22.071
 9977POPC   GL214236   7.152   3.139  22.089
 9977POPC   C1A14237   7.019   3.053  22.248
 9977POPC   D2A14238   6.984   2.966  22.424
 9977POPC   C3A14239   6.950   2.878  22.601
 9977POPC   C4A14240   6.915   2.790  22.777
 9977POPC   C1B14241   7.030   2.874  22.161
 9977POPC   C2B14242   6.995   2.786  22.337
 9977POPC   C3B14243   6.961   2.698  22.513
 9977POPC   C4B14244   6.926   2.610  22.690
 9978POPC   NC314245  17.833  21.116  12.190
 9978POPC   PO414246  17.951  21.274  12.224
 9978POPC   GL114247  18.069  21.432  12.258
 9978POPC   GL214248  18.135  21.397  12.193
 9978POPC   C1A14249  18.187  21.590  12.293
 9978POPC   D2A14250  18.304  21.747  12.327
 9978POPC   C3A14251  18.422  21.905  12.362
 9978POPC   C4A14252  18.540  22.063  12.396
 9978POPC   C1B14253  18.278  21.489  12.440
 9978POPC   C2B14254  18.396  21.647  12.474
 9978POPC   C3B14255  18.514  21.805  12.508
 9978POPC   C4B14256  18.632  21.963  12.543
 9979POPC   NC314257  15.251  -2.414   7.116
 9979POPC   PO414258  15.329  -2.593   7.074
 9979POPC   GL114259  15.407  -2.772   7.032
 9979POPC   GL214260  15.499  -2.736   7.050
 9979POPC   C1A14261  15.485  -2.951   6.989
 9979POPC   D2A14262  15.564  -3.131   6.947
 9979POPC   C3A14263  15.642  -3.310   6.904
 9979POPC   C4A14264  15.720  -3.489   6.862
 9979POPC   C1B14265  15.503  -2.898   6.797
 9979POPC   C2B14266  15.581  -3.078   6.755
 9979POPC   C3B14267  15.659  -3.257   6.712
 9979POPC   C4B14268  15.738  -3.436   6.670
 9980POPC   NC314269  11.295  16.102  22.242
 9980POPC   PO414270  11.322  16.183  22.423
 9980POPC   GL114271  11.349  16.264  22.604
 9980POPC   GL214272  11.444  16.236  22.603
 9980POPC   C1A14273  11.375  16.346  22.785
 9980POPC   D2A14274  11.402  16.427  22.965
 9980POPC   C3A14275  11.428  16.509  23.146
 9980POPC   C4A14276  11.455  16.590  23.327
 9980POPC   C1B14277  11.324  16.172  22.870
 9980POPC   C2B14278  11.351  16.254  23.051
 9980POPC   C3B14279  11.378  16.335  23.232
 9980POPC   C4B14280  11.404  16.417  23.413
 9981POPC   NC314281  -1.577   4.012   4.765
 9981POPC   PO414282  -1.745   3.922   4.703
 9981POPC   GL114283  -1.913   3.832   4.641
 9981POPC   GL214284  -1.967   3.893   4.698
 9981POPC   C1A14285  -2.080   3.743   4.578
 9981POPC   D2A14286  -2.248   3.653   4.516
 9981POPC   C3A14287  -2.415   3.564   4.453
 9981POPC   C4A14288  -2.583   3.474   4.391
 9981POPC   C1B14289  -2.066   3.612   4.729
 9981POPC   C2B14290  -2.234   3.522   4.666
 9981POPC   C3B14291  -2.401   3.433   4.604
 9981POPC   C4B14292  -2.569   3.343   4.542
 9982POPC   NC314293  -0.501  16.418   3.383
 9982POPC   PO414294  -0.656  16.506   3.292
 9982POPC   GL114295  -0.811  16.594   3.201
 9982POPC   GL214296  -0.815  16.662   3.274
 9982POPC   C1A14297  -0.965  16.682   3.109
 9982POPC   D2A14298  -1.120  16.770   3.018
 9982POPC   C3A14299  -1.274  16.858   2.926
 9982POPC   C4A14300  -1.429  16.946   2.835
 9982POPC   C1B14301  -1.092  16.565   3.211
 9982POPC   C2B14302  -1.246  16.653   3.120
 9982POPC   C3B14303  -1.401  16.741   3.028
 9982POPC   C4B14304  -1.556  16.829   2.937
 9983POPC   NC314305   4.940   4.767  21.830
 9983POPC   PO414306   4.870   4.694  22.003
 9983POPC   GL114307   4.800   4.621  22.176
 9983POPC   GL214308   4.817   4.528  22.143
 9983POPC   C1A14309   4.730   4.549  22.349
 9983POPC   D2A14310   4.661   4.476  22.521
 9983POPC   C3A14311   4.591   4.404  22.694
 9983POPC   C4A14312   4.521   4.331  22.867
 9983POPC   C1B14313   4.546   4.543  22.272
 9983POPC   C2B14314   4.476   4.470  22.444
 9983POPC   C3B14315   4.406   4.398  22.617
 9983POPC   C4B14316   4.337   4.325  22.790
 9984POPC   NC314317  22.178  11.584   3.819
 9984POPC   PO414318  22.354  11.605   3.727
 9984POPC   GL114319  22.530  11.626   3.635
 9984POPC   GL214320  22.520  11.534   3.596
 9984POPC   C1A14321  22.707  11.646   3.543
 9984POPC   D2A14322  22.883  11.667   3.452
 9984POPC   C3A14323  23.060  11.687   3.360
 9984POPC   C4A14324  23.236  11.708   3.268
 9984POPC   C1B14325  22.799  11.567   3.702
 9984POPC   C2B14326  22.975  11.588   3.611
 9984POPC   C3B14327  23.152  11.608   3.519
 9984POPC   C4B14328  23.328  11.629   3.427
 9985POPC   NC314329  22.117  16.224  11.595
 9985POPC   PO414330  22.293  16.315  11.620
 9985POPC   GL114331  22.469  16.406  11.645
 9985POPC   GL214332  22.506  16.323  11.687
 9985POPC   C1A14333  22.646  16.497  11.669
 9985POPC   D2A14334  22.822  16.588  11.694
 9985POPC   C3A14335  22.999  16.679  11.718
 9985POPC   C4A14336  23.175  16.770  11.743
 9985POPC   C1B14337  22.587  16.563  11.849
 9985POPC   C2B14338  22.764  16.654  11.873
 9985POPC   C3B14339  22.940  16.745  11.898
 9985POPC   C4B14340  23.116  16.836  11.923
 9986POPC   NC314341  22.770   5.598   7.463
 9986POPC   PO414342  22.955   5.532   7.425
 9986POPC   GL114343  23.140   5.466   7.387
 9986POPC   GL214344  23.128   5.486   7.290
 9986POPC   C1A14345  23.325   5.400   7.350
 9986POPC   D2A14346  23.510   5.333   7.312
 9986POPC   C3A14347  23.695   5.267   7.275
 9986POPC   C4A14348  23.880   5.201   7.237
 9986POPC   C1B14349  23.253   5.215   7.320
 9986POPC   C2B14350  23.438   5.149   7.283
 9986POPC   C3B14351  23.623   5.083   7.245
 9986POPC   C4B14352  23.808   5.017   7.207
 9987POPC   NC314353  12.543  15.443  -2.475
 9987POPC   PO414354  12.581  15.522  -2.655
 9987POPC   GL114355  12.619  15.601  -2.835
 9987POPC   GL214356  12.716  15.580  -2.824
 9987POPC   C1A14357  12.656  15.680  -3.015
 9987POPC   D2A14358  12.694  15.758  -3.195
 9987POPC   C3A14359  12.731  15.837  -3.375
 9987POPC   C4A14360  12.769  15.916  -3.555
 9987POPC   C1B14361  12.686  15.858  -2.931
 9987POPC   C2B14362  12.723  15.937  -3.111
 9987POPC   C3B14363  12.761  16.016  -3.291
 9987POPC   C4B14364  12.799  16.095  -3.471
 9988POPC   NC314365  23.403   8.513  12.402
 9988POPC   PO414366  23.600   8.495  12.431
 9988POPC   GL114367  23.797   8.477  12.460
 9988POPC   GL214368  23.802   8.411  12.385
 9988POPC   C1A14369  23.994   8.459  12.489
 9988POPC   D2A14370  24.192   8.442  12.517
 9988POPC   C3A14371  24.389   8.424  12.546
 9988POPC   C4A14372  24.586   8.406  12.575
 9988POPC   C1B14373  23.962   8.310  12.618
 9988POPC   C2B14374  24.159   8.292  12.647
 9988POPC   C3B14375  24.356   8.275  12.676
 9988POPC   C4B14376  24.554   8.257  12.704
 9989POPC   NC314377  -2.157   6.774  16.225
 9989POPC   PO414378  -2.331   6.735  16.315
 9989POPC   GL114379  -2.505   6.696  16.405
 9989POPC   GL214380  -2.457   6.644  16.476
 9989POPC   C1A14381  -2.679   6.657  16.495
 9989POPC   D2A14382  -2.854   6.618  16.585
 9989POPC   C3A14383  -3.028   6.579  16.675
 9989POPC   C4A14384  -3.202   6.540  16.765
 9989POPC   C1B14385  -2.698   6.490  16.386
 9989POPC   C2B14386  -2.873   6.451  16.476
 9989POPC   C3B14387  -3.047   6.412  16.566
 9989POPC   C4B14388  -3.221   6.373  16.656
 9990POPC   NC314389  10.061   1.356  20.770
 9990POPC   PO414390  10.069   1.229  20.924
 9990POPC   GL114391  10.077   1.102  21.078
 9990POPC   GL214392  10.155   1.152  21.116
 9990POPC   C1A14393  10.085   0.974  21.232
 9990POPC   D2A14394  10.093   0.847  21.386
 9990POPC   C3A14395  10.101   0.719  21.540
 9990POPC   C4A14396  10.109   0.592  21.694
 9990POPC   C1B14397  10.211   0.858  21.129
 9990POPC   C2B14398  10.219   0.730  21.283
 9990POPC   C3B14399  10.227   0.603  21.437
 9990POPC   C4B14400  10.235   0.476  21.591
 9991POPC   NC314401   7.624  -1.487  17.385
 9991POPC   PO414402   7.593  -1.653  17.492
 9991POPC   GL114403   7.562  -1.819  17.599
 9991POPC   GL214404   7.626  -1.869  17.540
 9991POPC   C1A14405   7.531  -1.985  17.706
 9991POPC   D2A14406   7.501  -2.151  17.814
 9991POPC   C3A14407   7.470  -2.317  17.921
 9991POPC   C4A14408   7.439  -2.483  18.028
 9991POPC   C1B14409   7.380  -2.035  17.585
 9991POPC   C2B14410   7.349  -2.201  17.693
 9991POPC   C3B14411   7.319  -2.367  17.800
 9991POPC   C4B14412   7.288  -2.533  17.907
 9992POPC   NC314413   1.544  21.000   9.745
 9992POPC   PO414414   1.428  21.162   9.732
 9992POPC   GL114415   1.312  21.324   9.719
 9992POPC   GL214416   1.389  21.382   9.746
 9992POPC   C1A14417   1.196  21.487   9.705
 9992POPC   D2A14418   1.081  21.649   9.692
 9992POPC   C3A14419   0.965  21.812   9.678
 9992POPC   C4A14420   0.849  21.974   9.665
 9992POPC   C1B14421   1.144  21.465   9.897
 9992POPC   C2B14422   1.029  21.628   9.884
 9992POPC   C3B14423   0.913  21.790   9.870
 9992POPC   C4B14424   0.797  21.953   9.857
 9993POPC   NC314425  16.109  13.385  -2.000
 9993POPC   PO414426  16.202  13.433  -2.170
 9993POPC   GL114427  16.295  13.481  -2.340
 9993POPC   GL214428  16.212  13.527  -2.373
 9993POPC   C1A14429  16.388  13.530  -2.511
 9993POPC   D2A14430  16.480  13.578  -2.681
 9993POPC   C3A14431  16.573  13.627  -2.852
 9993POPC   C4A14432  16.666  13.675  -3.022
 9993POPC   C1B14433  16.326  13.358  -2.593
 9993POPC   C2B14434  16.419  13.406  -2.763
 9993POPC   C3B14435  16.512  13.455  -2.934
 9993POPC   C4B14436  16.605  13.503  -3.104
 9994POPC   NC314437  20.944  16.964   5.579
 9994POPC   PO414438  21.105  17.069   5.524
 9994POPC   GL114439  21.266  17.174   5.469
 9994POPC   GL214440  21.249  17.150   5.374
 9994POPC   C1A14441  21.428  17.279   5.415
 9994POPC   D2A14442  21.589  17.383   5.360
 9994POPC   C3A14443  21.751  17.488   5.306
 9994POPC   C4A14444  21.912  17.593   5.251
 9994POPC   C1B14445  21.541  17.115   5.435
 9994POPC   C2B14446  21.702  17.220   5.380
 9994POPC   C3B14447  21.864  17.324   5.325
 9994POPC   C4B14448  22.025  17.429   5.271
 9995POPC   NC314449   6.021   9.777  23.176
 9995POPC   PO414450   5.970   9.789  23.369
 9995POPC   GL114451   5.919   9.801  23.562
 9995POPC   GL214452   6.015   9.798  23.588
 9995POPC   C1A14453   5.868   9.813  23.755
 9995POPC   D2A14454   5.816   9.826  23.948
 9995POPC   C3A14455   5.765   9.838  24.141
 9995POPC   C4A14456   5.714   9.850  24.334
 9995POPC   C1B14457   5.859   9.614  23.765
 9995POPC   C2B14458   5.808   9.626  23.958
 9995POPC   C3B14459   5.757   9.638  24.151
 9995POPC   C4B14460   5.706   9.650  24.344
 9996POPC   NC314461  20.291   9.038   0.909
 9996POPC   PO414462  20.446   9.032   0.782
 9996POPC   GL114463  20.601   9.026   0.655
 9996POPC   GL214464  20.562   9.103   0.604
 9996POPC   C1A14465  20.755   9.020   0.528
 9996POPC   D2A14466  20.910   9.013   0.402
 9996POPC   C3A14467  21.064   9.007   0.275
 9996POPC   C4A14468  21.219   9.001   0.148
 9996POPC   C1B14469  20.654   8.892   0.412
 9996POPC   C2B14470  20.809   8.886   0.285
 9996POPC   C3B14471  20.964   8.880   0.158
 9996POPC   C4B14472  21.118   8.874   0.031
 9997POPC   NC314473  20.829   6.727  17.624
 9997POPC   PO414474  20.989   6.681  17.735
 9997POPC   GL114475  21.149   6.635  17.846
 9997POPC   GL214476  21.183   6.576  17.773
 9997POPC   C1A14477  21.309   6.589  17.957
 9997POPC   D2A14478  21.468   6.542  18.068
 9997POPC   C3A14479  21.628   6.496  18.179
 9997POPC   C4A14480  21.788   6.450  18.290
 9997POPC   C1B14481  21.209   6.434  18.035
 9997POPC   C2B14482  21.369   6.388  18.146
 9997POPC   C3B14483  21.529   6.341  18.257
 9997POPC   C4B14484  21.689   6.295  18.368
 9998POPC   NC314485  23.163  12.601  12.631
 9998POPC   PO414486  23.355  12.638  12.672
 9998POPC   GL114487  23.547  12.675  12.713
 9998POPC   GL214488  23.535  12.770  12.687
 9998POPC   C1A14489  23.740  12.711  12.754
 9998POPC   D2A14490  23.932  12.748  12.794
 9998POPC   C3A14491  24.125  12.784  12.835
 9998POPC   C4A14492  24.317  12.821  12.876
 9998POPC   C1B14493  23.788  12.668  12.565
 9998POPC   C2B14494  23.981  12.704  12.605
 9998POPC   C3B14495  24.173  12.741  12.646
 9998POPC   C4B14496  24.365  12.777  12.687
 9999POPC   NC314497  -3.189   9.286  14.541
 9999POPC   PO414498  -3.377   9.278  14.609
 9999POPC   GL114499  -3.565   9.270  14.677
 9999POPC   GL214500  -3.549   9.177  14.711
 9999POPC   C1A14501  -3.753   9.262  14.745
 9999POPC   D2A14502  -3.941   9.253  14.812
 9999POPC   C3A14503  -4.129   9.245  14.880
 9999POPC   C4A14504  -4.317   9.237  14.948
 9999POPC   C1B14505  -3.813   9.186  14.570
 9999POPC   C2B14506  -4.001   9.177  14.637
 9999POPC   C3B14507  -4.189   9.169  14.705
 9999POPC   C4B14508  -4.377   9.161  14.773
10000POPC   NC314509  -3.230  14.306  11.476
10000POPC   PO414510  -3.418  14.371  11.498
10000POPC   GL114511  -3.606  14.436  11.520
10000POPC   GL214512  -3.631  14.349  11.562
10000POPC   C1A14513  -3.794  14.501  11.541
10000POPC   D2A14514  -3.982  14.565  11.563
10000POPC   C3A14515  -4.170  14.630  11.584
10000POPC   C4A14516  -4.358  14.695  11.606
10000POPC   C1B14517  -3.840  14.427  11.361
10000POPC   C2B14518  -4.028  14.492  11.382
10000POPC   C3B14519  -4.216  14.557  11.404
10000POPC   C4B14520  -4.404  14.622  11.426
10001POPC   NC314521   6.527   7.093  23.034
10001POPC   PO414522   6.483   7.043  23.223
10001POPC   GL114523   6.439   6.993  23.412
10001POPC   GL214524   6.533   7.013  23.439
10001POPC   C1A14525   6.395   6.943  23.600
10001POPC   D2A14526   6.352   6.893  23.789
10001POPC   C3A14527   6.308   6.843  23.977
10001POPC   C4A14528   6.264   6.793  24.166
10001POPC   C1B14529   6.446   6.753  23.562
10001POPC   C2B14530   6.402   6.703  23.750
10001POPC   C3B14531   6.359   6.653  23.939
10001POPC   C4B14532   6.315   6.603  24.128
10002POPC   NC314533   3.016  21.705  12.684
10002POPC   PO414534   2.923  21.875  12.734
10002POPC   GL114535   2.830  22.045  12.784
10002POPC   GL214536   2.915  22.080  12.823
10002POPC   C1A14537   2.737  22.215  12.833
10002POPC   D2A14538   2.645  22.386  12.883
10002POPC   C3A14539   2.552  22.556  12.932
10002POPC   C4A14540   2.459  22.726  12.982
10002POPC   C1B14541   2.688  22.137  13.010
10002POPC   C2B14542   2.596  22.307  13.060
10002POPC   C3B14543   2.503  22.477  13.110
10002POPC   C4B14544   2.410  22.647  13.159
10003POPC   NC314545  -0.403   1.465  13.727
10003POPC   PO414546  -0.553   1.345  13.783
10003POPC   GL114547  -0.703   1.225  13.839
10003POPC   GL214548  -0.657   1.208  13.926
10003POPC   C1A14549  -0.853   1.105  13.895
10003POPC   D2A14550  -1.003   0.986  13.950
10003POPC   C3A14551  -1.153   0.866  14.006
10003POPC   C4A14552  -1.303   0.746  14.062
10003POPC   C1B14553  -0.758   0.949  13.813
10003POPC   C2B14554  -0.908   0.829  13.869
10003POPC   C3B14555  -1.058   0.710  13.925
10003POPC   C4B14556  -1.208   0.590  13.980
10004POPC   NC314557   4.704  18.546   0.240
10004POPC   PO414558   4.632  18.673   0.103
10004POPC   GL114559   4.560  18.800  -0.034
10004POPC   GL214560   4.644  18.790  -0.088
10004POPC   C1A14561   4.488  18.927  -0.171
10004POPC   D2A14562   4.416  19.053  -0.308
10004POPC   C3A14563   4.344  19.180  -0.445
10004POPC   C4A14564   4.272  19.307  -0.582
10004POPC   C1B14565   4.570  19.080  -0.072
10004POPC   C2B14566   4.498  19.207  -0.209
10004POPC   C3B14567   4.426  19.334  -0.346
10004POPC   C4B14568   4.354  19.460  -0.483
10005POPC   NC314569  17.473  13.783  20.699
10005POPC   PO414570  17.589  13.839  20.852
10005POPC   GL114571  17.705  13.895  21.005
10005POPC   GL214572  17.777  13.921  20.941
10005POPC   C1A14573  17.820  13.951  21.159
10005POPC   D2A14574  17.936  14.006  21.312
10005POPC   C3A14575  18.051  14.062  21.466
10005POPC   C4A14576  18.167  14.118  21.619
10005POPC   C1B14577  17.897  13.766  21.168
10005POPC   C2B14578  18.012  13.822  21.322
10005POPC   C3B14579  18.128  13.878  21.475
10005POPC   C4B14580  18.243  13.933  21.629
10006POPC   NC314581  13.359  23.294  11.618
10006POPC   PO414582  13.408  23.486  11.644
10006POPC   GL114583  13.457  23.678  11.670
10006POPC   GL214584  13.503  23.655  11.756
10006POPC   C1A14585  13.506  23.870  11.697
10006POPC   D2A14586  13.555  24.063  11.723
10006POPC   C3A14587  13.604  24.255  11.750
10006POPC   C4A14588  13.653  24.447  11.776
10006POPC   C1B14589  13.335  23.900  11.797
10006POPC   C2B14590  13.384  24.092  11.823
10006POPC   C3B14591  13.433  24.284  11.850
10006POPC   C4B14592  13.482  24.477  11.876
10007POPC   NC314593   9.050  22.963  14.797
10007POPC   PO414594   9.036  23.149  14.869
10007POPC   GL114595   9.022  23.335  14.941
10007POPC   GL214596   9.067  23.306  15.025
10007POPC   C1A14597   9.007  23.521  15.012
10007POPC   D2A14598   8.993  23.708  15.084
10007POPC   C3A14599   8.978  23.894  15.155
10007POPC   C4A14600   8.964  24.080  15.227
10007POPC   C1B14601   8.829  23.477  15.092
10007POPC   C2B14602   8.815  23.663  15.164
10007POPC   C3B14603   8.801  23.849  15.235
10007POPC   C4B14604   8.786  24.036  15.307
10008POPC   NC314605   7.105  23.422   7.703
10008POPC   PO414606   7.072  23.617   7.673
10008POPC   GL114607   7.039  23.812   7.643
10008POPC   GL214608   7.050  23.829   7.741
10008POPC   C1A14609   7.006  24.007   7.613
10008POPC   D2A14610   6.973  24.202   7.584
10008POPC   C3A14611   6.940  24.397   7.554
10008POPC   C4A14612   6.907  24.592   7.524
10008POPC   C1B14613   6.810  23.978   7.640
10008POPC   C2B14614   6.777  24.173   7.610
10008POPC   C3B14615   6.744  24.368   7.581
10008POPC   C4B14616   6.711  24.563   7.551
10009POPC   NC314617  14.551  14.356  22.237
10009POPC   PO414618  14.613  14.425  22.414
10009POPC   GL114619  14.675  14.494  22.591
10009POPC   GL214620  14.685  14.401  22.624
10009POPC   C1A14621  14.738  14.564  22.768
10009POPC   D2A14622  14.800  14.633  22.944
10009POPC   C3A14623  14.863  14.703  23.121
10009POPC   C4A14624  14.925  14.772  23.298
10009POPC   C1B14625  14.549  14.569  22.832
10009POPC   C2B14626  14.611  14.638  23.009
10009POPC   C3B14627  14.673  14.707  23.186
10009POPC   C4B14628  14.736  14.777  23.363
10010POPC   NC314629   5.669   4.296  -2.052
10010POPC   PO414630   5.604   4.213  -2.222
10010POPC   GL114631   5.539   4.130  -2.392
10010POPC   GL214632   5.601   4.053  -2.378
10010POPC   C1A14633   5.474   4.048  -2.562
10010POPC   D2A14634   5.410   3.965  -2.733
10010POPC   C3A14635   5.345   3.883  -2.903
10010POPC   C4A14636   5.280   3.800  -3.073
10010POPC   C1B14637   5.618   4.143  -2.663
10010POPC   C2B14638   5.553   4.061  -2.834
10010POPC   C3B14639   5.488   3.978  -3.004
10010POPC   C4B14640   5.424   3.896  -3.174
10011POPC   NC314641  14.891  15.660  21.524
10011POPC   PO414642  14.960  15.744  21.692
10011POPC   GL114643  15.029  15.828  21.860
10011POPC   GL214644  15.044  15.738  21.899
10011POPC   C1A14645  15.098  15.913  22.027
10011POPC   D2A14646  15.168  15.997  22.195
10011POPC   C3A14647  15.237  16.082  22.362
10011POPC   C4A14648  15.306  16.166  22.530
10011POPC   C1B14649  14.913  15.916  22.102
10011POPC   C2B14650  14.982  16.001  22.270
10011POPC   C3B14651  15.051  16.085  22.437
10011POPC   C4B14652  15.121  16.169  22.605
10012POPC   NC314653  13.679  12.709  23.003
10012POPC   PO414654  13.726  12.752  23.193
10012POPC   GL114655  13.773  12.795  23.383
10012POPC   GL214656  13.841  12.861  23.351
10012POPC   C1A14657  13.819  12.838  23.572
10012POPC   D2A14658  13.866  12.882  23.762
10012POPC   C3A14659  13.912  12.925  23.951
10012POPC   C4A14660  13.959  12.968  24.141
10012POPC   C1B14661  13.958  12.695  23.571
10012POPC   C2B14662  14.005  12.738  23.760
10012POPC   C3B14663  14.051  12.781  23.950
10012POPC   C4B14664  14.098  12.824  24.140
10013POPC   NC314665   7.343  16.947  -1.829
10013POPC   PO414666   7.307  17.044  -2.000
10013POPC   GL114667   7.271  17.141  -2.171
10013POPC   GL214668   7.364  17.120  -2.202
10013POPC   C1A14669   7.235  17.239  -2.342
10013POPC   D2A14670   7.199  17.336  -2.512
10013POPC   C3A14671   7.163  17.434  -2.683
10013POPC   C4A14672   7.127  17.531  -2.854
10013POPC   C1B14673   7.302  17.408  -2.259
10013POPC   C2B14674   7.266  17.506  -2.430
10013POPC   C3B14675   7.230  17.603  -2.601
10013POPC   C4B14676   7.194  17.701  -2.771
10014POPC   NC314677  15.312  19.184   1.082
10014POPC   PO414678  15.398  19.319   0.962
10014POPC   GL114679  15.484  19.454   0.842
10014POPC   GL214680  15.554  19.387   0.818
10014POPC   C1A14681  15.570  19.589   0.722
10014POPC   D2A14682  15.655  19.724   0.602
10014POPC   C3A14683  15.741  19.859   0.482
10014POPC   C4A14684  15.827  19.994   0.362
10014POPC   C1B14685  15.682  19.653   0.874
10014POPC   C2B14686  15.768  19.788   0.754
10014POPC   C3B14687  15.854  19.923   0.634
10014POPC   C4B14688  15.939  20.058   0.514
10015POPC   NC314689  15.692  12.777  -2.355
10015POPC   PO414690  15.778  12.812  -2.532
10015POPC   GL114691  15.864  12.847  -2.709
10015POPC   GL214692  15.792  12.794  -2.754
10015POPC   C1A14693  15.949  12.883  -2.886
10015POPC   D2A14694  16.035  12.918  -3.064
10015POPC   C3A14695  16.120  12.954  -3.241
10015POPC   C4A14696  16.206  12.989  -3.418
10015POPC   C1B14697  16.060  12.717  -2.866
10015POPC   C2B14698  16.145  12.753  -3.043
10015POPC   C3B14699  16.231  12.788  -3.220
10015POPC   C4B14700  16.316  12.824  -3.398
10016POPC   NC314701  11.163   8.256  23.640
10016POPC   PO414702  11.187   8.230  23.837
10016POPC   GL114703  11.211   8.204  24.034
10016POPC   GL214704  11.216   8.303  24.046
10016POPC   C1A14705  11.234   8.178  24.231
10016POPC   D2A14706  11.258   8.151  24.427
10016POPC   C3A14707  11.281   8.125  24.624
10016POPC   C4A14708  11.305   8.099  24.821
10016POPC   C1B14709  11.432   8.169  24.206
10016POPC   C2B14710  11.456   8.143  24.402
10016POPC   C3B14711  11.480   8.117  24.599
10016POPC   C4B14712  11.503   8.091  24.796
10017POPC   NC314713  22.294   6.707  15.056
10017POPC   PO414714  22.472   6.660  15.134
10017POPC   GL114715  22.650   6.613  15.212
10017POPC   GL214716  22.689   6.696  15.172
10017POPC   C1A14717  22.828   6.566  15.290
10017POPC   D2A14718  23.006   6.519  15.368
10017POPC   C3A14719  23.184   6.472  15.446
10017POPC   C4A14720  23.362   6.425  15.524
10017POPC   C1B14721  22.873   6.464  15.124
10017POPC   C2B14722  23.051   6.417  15.202
10017POPC   C3B14723  23.229   6.370  15.280
10017POPC   C4B14724  23.407   6.323  15.358
10018POPC   NC314725  17.111   0.615   2.734
10018POPC   PO414726  17.217   0.480   2.632
10018POPC   GL114727  17.323   0.345   2.530
10018POPC   GL214728  17.290   0.384   2.444
10018POPC   C1A14729  17.429   0.209   2.427
10018POPC   D2A14730  17.534   0.074   2.325
10018POPC   C3A14731  17.640  -0.062   2.222
10018POPC   C4A14732  17.746  -0.197   2.120
10018POPC   C1B14733  17.272   0.085   2.430
10018POPC   C2B14734  17.378  -0.050   2.327
10018POPC   C3B14735  17.484  -0.186   2.225
10018POPC   C4B14736  17.589  -0.321   2.122
10019POPC   NC314737   1.483  12.333  -0.766
10019POPC   PO414738   1.363  12.362  -0.923
10019POPC   GL114739   1.243  12.391  -1.080
10019POPC   GL214740   1.206  12.473  -1.037
10019POPC   C1A14741   1.123  12.420  -1.238
10019POPC   D2A14742   1.004  12.450  -1.395
10019POPC   C3A14743   0.884  12.479  -1.553
10019POPC   C4A14744   0.764  12.508  -1.710
10019POPC   C1B14745   0.982  12.309  -1.151
10019POPC   C2B14746   0.862  12.339  -1.308
10019POPC   C3B14747   0.742  12.368  -1.465
10019POPC   C4B14748   0.622  12.397  -1.623
10020POPC   NC314749  -2.697  15.737  11.228
10020POPC   PO414750  -2.879  15.818  11.248
10020POPC   GL114751  -3.061  15.899  11.268
10020POPC   GL214752  -3.069  15.858  11.359
10020POPC   C1A14753  -3.243  15.980  11.289
10020POPC   D2A14754  -3.424  16.060  11.309
10020POPC   C3A14755  -3.606  16.141  11.330
10020POPC   C4A14756  -3.788  16.222  11.350
10020POPC   C1B14757  -3.324  15.816  11.208
10020POPC   C2B14758  -3.506  15.897  11.228
10020POPC   C3B14759  -3.688  15.978  11.248
10020POPC   C4B14760  -3.870  16.059  11.269
10021POPC   NC314761  -2.304  12.697  16.050
10021POPC   PO414762  -2.479  12.735  16.140
10021POPC   GL114763  -2.654  12.773  16.230
10021POPC   GL214764  -2.607  12.835  16.294
10021POPC   C1A14765  -2.828  12.812  16.320
10021POPC   D2A14766  -3.003  12.850  16.409
10021POPC   C3A14767  -3.177  12.889  16.499
10021POPC   C4A14768  -3.352  12.927  16.589
10021POPC   C1B14769  -2.798  12.658  16.444
10021POPC   C2B14770  -2.972  12.697  16.534
10021POPC   C3B14771  -3.147  12.735  16.624
10021POPC   C4B14772  -3.322  12.774  16.714
10022POPC   NC314773   3.831  11.898  -2.357
10022POPC   PO414774   3.737  11.925  -2.532
10022POPC   GL114775   3.643  11.952  -2.707
10022POPC   GL214776   3.612  12.042  -2.676
10022POPC   C1A14777   3.549  11.980  -2.881
10022POPC   D2A14778   3.456  12.007  -3.056
10022POPC   C3A14779   3.362  12.035  -3.230
10022POPC   C4A14780   3.268  12.062  -3.405
10022POPC   C1B14781   3.384  11.896  -2.806
10022POPC   C2B14782   3.290  11.924  -2.980
10022POPC   C3B14783   3.197  11.951  -3.155
10022POPC   C4B14784   3.103  11.978  -3.329
10023POPC   NC314785   2.623  18.174   1.334
10023POPC   PO414786   2.518  18.294   1.214
10023POPC   GL114787   2.413  18.414   1.094
10023POPC   GL214788   2.497  18.444   1.049
10023POPC   C1A14789   2.308  18.535   0.974
10023POPC   D2A14790   2.202  18.655   0.854
10023POPC   C3A14791   2.097  18.776   0.734
10023POPC   C4A14792   1.992  18.896   0.614
10023POPC   C1B14793   2.326  18.683   1.107
10023POPC   C2B14794   2.221  18.804   0.987
10023POPC   C3B14795   2.116  18.924   0.867
10023POPC   C4B14796   2.011  19.044   0.747
10024POPC   NC314797   9.877  -1.017  18.334
10024POPC   PO414798   9.883  -1.172  18.460
10024POPC   GL114799   9.889  -1.327  18.586
10024POPC   GL214800   9.952  -1.375  18.524
10024POPC   C1A14801   9.895  -1.483  18.711
10024POPC   D2A14802   9.901  -1.638  18.837
10024POPC   C3A14803   9.907  -1.794  18.962
10024POPC   C4A14804   9.913  -1.949  19.088
10024POPC   C1B14805   9.740  -1.566  18.616
10024POPC   C2B14806   9.746  -1.721  18.742
10024POPC   C3B14807   9.752  -1.876  18.867
10024POPC   C4B14808   9.758  -2.032  18.993
10025POPC   NC314809  -1.014   1.813  12.629
10025POPC   PO414810  -1.173   1.699  12.671
10025POPC   GL114811  -1.332   1.585  12.713
10025POPC   GL214812  -1.289   1.557  12.799
10025POPC   C1A14813  -1.491   1.471  12.755
10025POPC   D2A14814  -1.650   1.357  12.796
10025POPC   C3A14815  -1.809   1.243  12.838
10025POPC   C4A14816  -1.968   1.129  12.880
10025POPC   C1B14817  -1.405   1.316  12.662
10025POPC   C2B14818  -1.564   1.202  12.703
10025POPC   C3B14819  -1.723   1.088  12.745
10025POPC   C4B14820  -1.882   0.974  12.787
10026POPC   NC314821  20.427   3.160   4.081
10026POPC   PO414822  20.577   3.061   3.993
10026POPC   GL114823  20.727   2.962   3.905
10026POPC   GL214824  20.785   3.043   3.913
10026POPC   C1A14825  20.877   2.863   3.817
10026POPC   D2A14826  21.027   2.764   3.730
10026POPC   C3A14827  21.177   2.665   3.642
10026POPC   C4A14828  21.327   2.566   3.554
10026POPC   C1B14829  20.814   2.926   3.638
10026POPC   C2B14830  20.964   2.827   3.551
10026POPC   C3B14831  21.114   2.728   3.463
10026POPC   C4B14832  21.264   2.629   3.375
10027POPC   NC314833  12.656  -3.630   9.822
10027POPC   PO414834  12.694  -3.826   9.824
10027POPC   GL114835  12.732  -4.022   9.826
10027POPC   GL214836  12.779  -4.012   9.913
10027POPC   C1A14837  12.769  -4.219   9.828
10027POPC   D2A14838  12.807  -4.415   9.829
10027POPC   C3A14839  12.844  -4.612   9.831
10027POPC   C4A14840  12.882  -4.808   9.833
10027POPC   C1B14841  12.941  -4.187   9.731
10027POPC   C2B14842  12.979  -4.383   9.733
10027POPC   C3B14843  13.016  -4.580   9.734
10027POPC   C4B14844  13.054  -4.776   9.736
10028POPC   NC314845   9.628  11.662  23.678
10028POPC   PO414846   9.618  11.688  23.876
10028POPC   GL114847   9.608  11.714  24.074
10028POPC   GL214848   9.645  11.623  24.088
10028POPC   C1A14849   9.598  11.741  24.272
10028POPC   D2A14850   9.588  11.767  24.470
10028POPC   C3A14851   9.578  11.794  24.668
10028POPC   C4A14852   9.568  11.820  24.866
10028POPC   C1B14853   9.413  11.665  24.273
10028POPC   C2B14854   9.403  11.692  24.471
10028POPC   C3B14855   9.393  11.718  24.669
10028POPC   C4B14856   9.383  11.744  24.867
10029POPC   NC314857   8.096  12.950  23.284
10029POPC   PO414858   8.063  12.987  23.478
10029POPC   GL114859   8.030  13.024  23.672
10029POPC   GL214860   8.121  12.988  23.694
10029POPC   C1A14861   7.998  13.061  23.866
10029POPC   D2A14862   7.965  13.099  24.059
10029POPC   C3A14863   7.933  13.136  24.253
10029POPC   C4A14864   7.900  13.173  24.447
10029POPC   C1B14865   7.919  12.879  23.888
10029POPC   C2B14866   7.887  12.916  24.081
10029POPC   C3B14867   7.854  12.953  24.275
10029POPC   C4B14868   7.821  12.990  24.469
10030POPC   NC314869   7.156  -1.631  17.004
10030POPC   PO414870   7.119  -1.799  17.107
10030POPC   GL114871   7.082  -1.967  17.210
10030POPC   GL214872   7.139  -2.018  17.145
10030POPC   C1A14873   7.045  -2.134  17.312
10030POPC   D2A14874   7.008  -2.302  17.415
10030POPC   C3A14875   6.971  -2.469  17.517
10030POPC   C4A14876   6.934  -2.637  17.620
10030POPC   C1B14877   6.885  -2.169  17.198
10030POPC   C2B14878   6.848  -2.336  17.301
10030POPC   C3B14879   6.811  -2.504  17.403
10030POPC   C4B14880   6.774  -2.671  17.506
10031POPC   NC314881  -3.087   5.833  12.328
10031POPC   PO414882  -3.275   5.773  12.362
10031POPC   GL114883  -3.463   5.713  12.396
10031POPC   GL214884  -3.450   5.730  12.494
10031POPC   C1A14885  -3.651   5.653  12.430
10031POPC   D2A14886  -3.838   5.593  12.464
10031POPC   C3A14887  -4.026   5.533  12.498
10031POPC   C4A14888  -4.214   5.473  12.532
10031POPC   C1B14889  -3.586   5.465  12.455
10031POPC   C2B14890  -3.774   5.405  12.489
10031POPC   C3B14891  -3.962   5.345  12.523
10031POPC   C4B14892  -4.150   5.285  12.557
10032POPC   NC314893  -3.647  11.056   7.369
10032POPC   PO414894  -3.842  11.072   7.327
10032POPC   GL114895  -4.037  11.088   7.285
10032POPC   GL214896  -4.059  11.032   7.364
10032POPC   C1A14897  -4.232  11.104   7.243
10032POPC   D2A14898  -4.426  11.121   7.200
10032POPC   C3A14899  -4.621  11.137   7.158
10032POPC   C4A14900  -4.816  11.153   7.116
10032POPC   C1B14901  -4.221  10.940   7.129
10032POPC   C2B14902  -4.415  10.957   7.087
10032POPC   C3B14903  -4.610  10.973   7.044
10032POPC   C4B14904  -4.805  10.989   7.002
10033POPC   NC314905  16.876   3.431  19.897
10033POPC   PO414906  16.981   3.339  20.040
10033POPC   GL114907  17.086   3.247  20.183
10033POPC   GL214908  17.159   3.227  20.117
10033POPC   C1A14909  17.191   3.155  20.326
10033POPC   D2A14910  17.297   3.063  20.469
10033POPC   C3A14911  17.402   2.971  20.612
10033POPC   C4A14912  17.507   2.879  20.755
10033POPC   C1B14913  17.102   2.982  20.280
10033POPC   C2B14914  17.208   2.890  20.423
10033POPC   C3B14915  17.313   2.798  20.566
10033POPC   C4B14916  17.418   2.706  20.709
10034POPC   NC314917  13.082  23.145  12.758
10034POPC   PO414918  13.125  23.335  12.802
10034POPC   GL114919  13.168  23.525  12.846
10034POPC   GL214920  13.196  23.541  12.751
10034POPC   C1A14921  13.212  23.715  12.890
10034POPC   D2A14922  13.255  23.906  12.933
10034POPC   C3A14923  13.299  24.096  12.977
10034POPC   C4A14924  13.342  24.286  13.021
10034POPC   C1B14925  13.399  23.662  12.936
10034POPC   C2B14926  13.442  23.852  12.980
10034POPC   C3B14927  13.486  24.042  13.023
10034POPC   C4B14928  13.529  24.233  13.067
10035POPC   NC314929   8.151   1.473  20.768
10035POPC   PO414930   8.130   1.352  20.926
10035POPC   GL114931   8.109   1.231  21.084
10035POPC   GL214932   8.205   1.207  21.078
10035POPC   C1A14933   8.087   1.111  21.242
10035POPC   D2A14934   8.066   0.990  21.400
10035POPC   C3A14935   8.044   0.870  21.558
10035POPC   C4A14936   8.023   0.749  21.716
10035POPC   C1B14937   8.041   0.959  21.120
10035POPC   C2B14938   8.019   0.839  21.278
10035POPC   C3B14939   7.998   0.718  21.436
10035POPC   C4B14940   7.976   0.597  21.594
10036POPC   NC314941   7.995  -1.937   3.184
10036POPC   PO414942   7.969  -2.109   3.086
10036POPC   GL114943   7.943  -2.281   2.988
10036POPC   GL214944   8.042  -2.294   2.983
10036POPC   C1A14945   7.917  -2.454   2.890
10036POPC   D2A14946   7.890  -2.626   2.793
10036POPC   C3A14947   7.864  -2.799   2.695
10036POPC   C4A14948   7.838  -2.971   2.597
10036POPC   C1B14949   7.920  -2.355   2.716
10036POPC   C2B14950   7.894  -2.528   2.618
10036POPC   C3B14951   7.867  -2.700   2.521
10036POPC   C4B14952   7.841  -2.873   2.423
10037POPC   NC314953  23.466   7.621  10.228
10037POPC   PO414954  23.664   7.594  10.230
10037POPC   GL114955  23.862   7.567  10.232
10037POPC   GL214956  23.850   7.472  10.207
10037POPC   C1A14957  24.060   7.541  10.234
10037POPC   D2A14958  24.259   7.514  10.236
10037POPC   C3A14959  24.457   7.488  10.238
10037POPC   C4A14960  24.655   7.461  10.240
10037POPC   C1B14961  24.052   7.491  10.428
10037POPC   C2B14962  24.250   7.464  10.430
10037POPC   C3B14963  24.448   7.438  10.432
10037POPC   C4B14964  24.646   7.411  10.434
10038POPC   NC314965  -3.938  11.100  11.197
10038POPC   PO414966  -4.136  11.114  11.217
10038POPC   GL114967  -4.334  11.128  11.237
10038POPC   GL214968  -4.323  11.211  11.292
10038POPC   C1A14969  -4.533  11.142  11.257
10038POPC   D2A14970  -4.731  11.156  11.278
10038POPC   C3A14971  -4.930  11.170  11.298
10038POPC   C4A14972  -5.128  11.184  11.318
10038POPC   C1B14973  -4.524  11.031  11.423
10038POPC   C2B14974  -4.722  11.045  11.444
10038POPC   C3B14975  -4.921  11.059  11.464
10038POPC   C4B14976  -5.119  11.073  11.484
10039POPC   NC314977   5.798   5.124  -2.456
10039POPC   PO414978   5.739   5.056  -2.635
10039POPC   GL114979   5.680   4.988  -2.814
10039POPC   GL214980   5.723   4.899  -2.794
10039POPC   C1A14981   5.622   4.919  -2.992
10039POPC   D2A14982   5.563   4.851  -3.171
10039POPC   C3A14983   5.505   4.782  -3.349
10039POPC   C4A14984   5.446   4.714  -3.528
10039POPC   C1B14985   5.793   4.983  -3.073
10039POPC   C2B14986   5.734   4.915  -3.252
10039POPC   C3B14987   5.676   4.847  -3.430
10039POPC   C4B14988   5.617   4.778  -3.609
10040POPC   NC314989  -3.960   8.898  10.643
10040POPC   PO414990  -4.158   8.878  10.659
10040POPC   GL114991  -4.356   8.858  10.675
10040POPC   GL214992  -4.357   8.927  10.748
10040POPC   C1A14993  -4.555   8.839  10.691
10040POPC   D2A14994  -4.753   8.819  10.708
10040POPC   C3A14995  -4.952   8.800  10.724
10040POPC   C4A14996  -5.150   8.780  10.740
10040POPC   C1B14997  -4.529   8.694  10.827
10040POPC   C2B14998  -4.728   8.674  10.843
10040POPC   C3B14999  -4.926   8.655  10.859
10040POPC   C4B15000  -5.125   8.635  10.876
10041POPC   NC315001  10.132  22.901   4.853
10041POPC   PO415002  10.143  23.087   4.781
10041POPC   GL115003  10.154  23.273   4.709
10041POPC   GL215004  10.152  23.237   4.616
10041POPC   C1A15005  10.165  23.459   4.637
10041POPC   D2A15006  10.176  23.646   4.564
10041POPC   C3A15007  10.187  23.832   4.492
10041POPC   C4A15008  10.198  24.018   4.420
10041POPC   C1B15009  10.365  23.448   4.637
10041POPC   C2B15010  10.376  23.634   4.565
10041POPC   C3B15011  10.387  23.820   4.493
10041POPC   C4B15012  10.398  24.006   4.420
10042POPC   NC315013  18.350  18.875   3.709
10042POPC   PO415014  18.471  19.003   3.615
10042POPC   GL115015  18.592  19.131   3.521
10042POPC   GL215016  18.658  19.058   3.505
10042POPC   C1A15017  18.713  19.260   3.427
10042POPC   D2A15018  18.835  19.388   3.334
10042POPC   C3A15019  18.956  19.517   3.240
10042POPC   C4A15020  19.077  19.645   3.146
10042POPC   C1B15021  18.804  19.301   3.601
10042POPC   C2B15022  18.925  19.430   3.507
10042POPC   C3B15023  19.046  19.558   3.413
10042POPC   C4B15024  19.167  19.686   3.319
10043POPC   NC315025  21.460  10.835   2.504
10043POPC   PO415026  21.625  10.845   2.391
10043POPC   GL115027  21.790  10.855   2.278
10043POPC   GL215028  21.774  10.953   2.264
10043POPC   C1A15029  21.955  10.865   2.165
10043POPC   D2A15030  22.119  10.875   2.053
10043POPC   C3A15031  22.284  10.885   1.940
10043POPC   C4A15032  22.449  10.895   1.827
10043POPC   C1B15033  21.846  10.823   2.003
10043POPC   C2B15034  22.011  10.833   1.890
10043POPC   C3B15035  22.175  10.843   1.777
10043POPC   C4B15036  22.340  10.853   1.664
10044POPC   NC315037  -1.114  14.891   3.066
10044POPC   PO415038  -1.277  14.966   2.977
10044POPC   GL115039  -1.440  15.041   2.888
10044POPC   GL215040  -1.457  15.099   2.968
10044POPC   C1A15041  -1.603  15.116   2.800
10044POPC   D2A15042  -1.765  15.192   2.711
10044POPC   C3A15043  -1.928  15.267   2.623
10044POPC   C4A15044  -2.091  15.342   2.534
10044POPC   C1B15045  -1.714  14.971   2.881
10044POPC   C2B15046  -1.877  15.047   2.792
10044POPC   C3B15047  -2.039  15.122   2.704
10044POPC   C4B15048  -2.202  15.197   2.615
10045POPC   NC315049  -1.573  16.992   6.399
10045POPC   PO415050  -1.741  17.084   6.342
10045POPC   GL115051  -1.909  17.176   6.285
10045POPC   GL215052  -1.939  17.181   6.380
10045POPC   C1A15053  -2.077  17.269   6.227
10045POPC   D2A15054  -2.244  17.361   6.170
10045POPC   C3A15055  -2.412  17.454   6.112
10045POPC   C4A15056  -2.580  17.546   6.055
10045POPC   C1B15057  -2.167  17.092   6.207
10045POPC   C2B15058  -2.335  17.184   6.149
10045POPC   C3B15059  -2.503  17.276   6.092
10045POPC   C4B15060  -2.670  17.369   6.034
10046POPC   NC315061  11.100   2.375  -1.542
10046POPC   PO415062  11.120   2.265  -1.708
10046POPC   GL115063  11.140   2.155  -1.874
10046POPC   GL215064  11.200   2.225  -1.913
10046POPC   C1A15065  11.160   2.046  -2.040
10046POPC   D2A15066  11.179   1.936  -2.207
10046POPC   C3A15067  11.199   1.827  -2.373
10046POPC   C4A15068  11.219   1.717  -2.539
10046POPC   C1B15069  11.002   2.139  -2.120
10046POPC   C2B15070  11.021   2.029  -2.287
10046POPC   C3B15071  11.041   1.919  -2.453
10046POPC   C4B15072  11.061   1.810  -2.619
10047POPC   NC315073   8.721  22.060  16.689
10047POPC   PO415074   8.702  22.234  16.785
10047POPC   GL115075   8.683  22.408  16.881
10047POPC   GL215076   8.774  22.396  16.921
10047POPC   C1A15077   8.665  22.583  16.977
10047POPC   D2A15078   8.646  22.757  17.073
10047POPC   C3A15079   8.628  22.932  17.169
10047POPC   C4A15080   8.609  23.106  17.265
10047POPC   C1B15081   8.582  22.488  17.133
10047POPC   C2B15082   8.564  22.663  17.229
10047POPC   C3B15083   8.545  22.837  17.325
10047POPC   C4B15084   8.526  23.012  17.421
10048POPC   NC315085  14.161  22.566  13.839
10048POPC   PO415086  14.225  22.746  13.897
10048POPC   GL115087  14.289  22.926  13.955
10048POPC   GL215088  14.352  22.929  13.877
10048POPC   C1A15089  14.354  23.106  14.013
10048POPC   D2A15090  14.418  23.287  14.071
10048POPC   C3A15091  14.483  23.467  14.129
10048POPC   C4A15092  14.547  23.647  14.187
10048POPC   C1B15093  14.497  23.020  14.123
10048POPC   C2B15094  14.561  23.200  14.181
10048POPC   C3B15095  14.625  23.380  14.239
10048POPC   C4B15096  14.690  23.561  14.297
10049POPC   NC315097   1.089  16.878   1.644
10049POPC   PO415098   0.961  16.977   1.526
10049POPC   GL115099   0.833  17.076   1.408
10049POPC   GL215100   0.906  17.139   1.382
10049POPC   C1A15101   0.705  17.174   1.291
10049POPC   D2A15102   0.576  17.273   1.173
10049POPC   C3A15103   0.448  17.371   1.056
10049POPC   C4A15104   0.320  17.470   0.938
10049POPC   C1B15105   0.656  17.293   1.444
10049POPC   C2B15106   0.527  17.392   1.326
10049POPC   C3B15107   0.399  17.490   1.209
10049POPC   C4B15108   0.271  17.589   1.091
10050POPC   NC315109   0.687  10.235  20.311
10050POPC   PO415110   0.550  10.237  20.457
10050POPC   GL115111   0.413  10.239  20.603
10050POPC   GL215112   0.462  10.165  20.649
10050POPC   C1A15113   0.277  10.241  20.749
10050POPC   D2A15114   0.140  10.244  20.896
10050POPC   C3A15115   0.004  10.246  21.042
10050POPC   C4A15116  -0.133  10.248  21.188
10050POPC   C1B15117   0.167  10.108  20.649
10050POPC   C2B15118   0.030  10.110  20.795
10050POPC   C3B15119  -0.106  10.112  20.941
10050POPC   C4B15120  -0.243  10.114  21.087
10051POPC   NC315121  23.534  11.701  10.725
10051POPC   PO415122  23.733  11.719  10.737
10051POPC   GL115123  23.932  11.737  10.749
10051POPC   GL215124  23.932  11.792  10.666
10051POPC   C1A15125  24.131  11.755  10.762
10051POPC   D2A15126  24.329  11.774  10.774
10051POPC   C3A15127  24.528  11.792  10.787
10051POPC   C4A15128  24.727  11.810  10.799
10051POPC   C1B15129  24.153  11.589  10.653
10051POPC   C2B15130  24.351  11.607  10.665
10051POPC   C3B15131  24.550  11.625  10.678
10051POPC   C4B15132  24.749  11.644  10.690
10052POPC   NC315133  20.792   1.483  10.891
10052POPC   PO415134  20.950   1.361  10.906
10052POPC   GL115135  21.108   1.239  10.921
10052POPC   GL215136  21.165   1.316  10.950
10052POPC   C1A15137  21.266   1.117  10.936
10052POPC   D2A15138  21.423   0.995  10.950
10052POPC   C3A15139  21.581   0.873  10.965
10052POPC   C4A15140  21.739   0.751  10.980
10052POPC   C1B15141  21.312   1.154  10.745
10052POPC   C2B15142  21.470   1.032  10.760
10052POPC   C3B15143  21.628   0.910  10.774
10052POPC   C4B15144  21.786   0.788  10.789
10053POPC   NC315145   6.860  12.175  23.160
10053POPC   PO415146   6.816  12.200  23.353
10053POPC   GL115147   6.772  12.225  23.546
10053POPC   GL215148   6.862  12.263  23.562
10053POPC   C1A15149   6.727  12.249  23.740
10053POPC   D2A15150   6.683  12.274  23.933
10053POPC   C3A15151   6.638  12.298  24.127
10053POPC   C4A15152   6.594  12.323  24.320
10053POPC   C1B15153   6.798  12.066  23.779
10053POPC   C2B15154   6.754  12.091  23.973
10053POPC   C3B15155   6.709  12.116  24.166
10053POPC   C4B15156   6.665  12.140  24.360
10054POPC   NC315157   2.791  21.369   6.838
10054POPC   PO415158   2.685  21.533   6.795
10054POPC   GL115159   2.579  21.697   6.752
10054POPC   GL215160   2.664  21.750   6.744
10054POPC   C1A15161   2.473  21.861   6.709
10054POPC   D2A15162   2.368  22.026   6.666
10054POPC   C3A15163   2.262  22.190   6.623
10054POPC   C4A15164   2.156  22.354   6.580
10054POPC   C1B15165   2.465  21.907   6.904
10054POPC   C2B15166   2.359  22.071   6.861
10054POPC   C3B15167   2.253  22.235   6.818
10054POPC   C4B15168   2.148  22.399   6.775
10055POPC   NC315169  14.873   3.024  -1.037
10055POPC   PO415170  14.944   2.922  -1.193
10055POPC   GL115171  15.015   2.820  -1.349
10055POPC   GL215172  14.944   2.859  -1.407
10055POPC   C1A15173  15.086   2.717  -1.505
10055POPC   D2A15174  15.158   2.615  -1.662
10055POPC   C3A15175  15.229   2.512  -1.818
10055POPC   C4A15176  15.300   2.410  -1.974
10055POPC   C1B15177  14.966   2.564  -1.460
10055POPC   C2B15178  15.037   2.462  -1.616
10055POPC   C3B15179  15.108   2.359  -1.773
10055POPC   C4B15180  15.179   2.257  -1.929
10056POPC   NC315181   8.582  -0.921  18.392
10056POPC   PO415182   8.565  -1.078  18.514
10056POPC   GL115183   8.548  -1.235  18.636
10056POPC   GL215184   8.608  -1.288  18.577
10056POPC   C1A15185   8.530  -1.392  18.759
10056POPC   D2A15186   8.513  -1.550  18.881
10056POPC   C3A15187   8.495  -1.707  19.004
10056POPC   C4A15188   8.478  -1.864  19.126
10056POPC   C1B15189   8.372  -1.456  18.654
10056POPC   C2B15190   8.355  -1.614  18.777
10056POPC   C3B15191   8.337  -1.771  18.899
10056POPC   C4B15192   8.320  -1.928  19.021
10057POPC   NC315193  -2.058   3.519  12.658
10057POPC   PO415194  -2.231   3.428  12.699
10057POPC   GL115195  -2.404   3.337  12.740
10057POPC   GL215196  -2.432   3.415  12.795
10057POPC   C1A15197  -2.578   3.246  12.781
10057POPC   D2A15198  -2.751   3.156  12.821
10057POPC   C3A15199  -2.925   3.065  12.862
10057POPC   C4A15200  -3.098   2.974  12.903
10057POPC   C1B15201  -2.495   3.161  12.942
10057POPC   C2B15202  -2.669   3.071  12.982
10057POPC   C3B15203  -2.842   2.980  13.023
10057POPC   C4B15204  -3.015   2.889  13.064
10058POPC   NC315205   8.278  -0.728   1.306
10058POPC   PO415206   8.254  -0.884   1.183
10058POPC   GL115207   8.230  -1.040   1.060
10058POPC   GL215208   8.324  -1.069   1.079
10058POPC   C1A15209   8.206  -1.196   0.937
10058POPC   D2A15210   8.181  -1.352   0.815
10058POPC   C3A15211   8.157  -1.508   0.692
10058POPC   C4A15212   8.133  -1.664   0.569
10058POPC   C1B15213   8.271  -1.086   0.784
10058POPC   C2B15214   8.247  -1.242   0.661
10058POPC   C3B15215   8.223  -1.398   0.539
10058POPC   C4B15216   8.199  -1.554   0.416
10059POPC   NC315217  22.482   6.557  14.503
10059POPC   PO415218  22.662   6.506  14.573
10059POPC   GL115219  22.842   6.455  14.643
10059POPC   GL215220  22.877   6.546  14.620
10059POPC   C1A15221  23.022   6.404  14.713
10059POPC   D2A15222  23.203   6.353  14.783
10059POPC   C3A15223  23.383   6.302  14.853
10059POPC   C4A15224  23.563   6.251  14.923
10059POPC   C1B15225  23.075   6.339  14.531
10059POPC   C2B15226  23.255   6.288  14.601
10059POPC   C3B15227  23.435   6.237  14.671
10059POPC   C4B15228  23.615   6.186  14.741
10060POPC   NC315229  18.491  13.503  19.998
10060POPC   PO415230  18.614  13.555  20.147
10060POPC   GL115231  18.737  13.607  20.296
10060POPC   GL215232  18.791  13.661  20.232
10060POPC   C1A15233  18.860  13.660  20.445
10060POPC   D2A15234  18.983  13.712  20.593
10060POPC   C3A15235  19.106  13.765  20.742
10060POPC   C4A15236  19.229  13.817  20.891
10060POPC   C1B15237  18.974  13.500  20.407
10060POPC   C2B15238  19.097  13.552  20.555
10060POPC   C3B15239  19.220  13.605  20.704
10060POPC   C4B15240  19.343  13.657  20.853
10061POPC   NC315241  23.376  12.380   7.878
10061POPC   PO415242  23.572  12.411   7.852
10061POPC   GL115243  23.768  12.442   7.826
10061POPC   GL215244  23.759  12.420   7.729
10061POPC   C1A15245  23.964  12.473   7.801
10061POPC   D2A15246  24.160  12.503   7.775
10061POPC   C3A15247  24.356  12.534   7.750
10061POPC   C4A15248  24.552  12.565   7.724
10061POPC   C1B15249  24.000  12.280   7.842
10061POPC   C2B15250  24.196  12.311   7.816
10061POPC   C3B15251  24.392  12.342   7.790
10061POPC   C4B15252  24.588  12.373   7.765
10062POPC   NC315253   6.743  -2.425  15.303
10062POPC   PO415254   6.701  -2.604  15.382
10062POPC   GL115255   6.659  -2.783  15.461
10062POPC   GL215256   6.689  -2.827  15.376
10062POPC   C1A15257   6.618  -2.962  15.540
10062POPC   D2A15258   6.576  -3.141  15.619
10062POPC   C3A15259   6.535  -3.320  15.698
10062POPC   C4A15260   6.493  -3.499  15.777
10062POPC   C1B15261   6.431  -2.950  15.469
10062POPC   C2B15262   6.390  -3.129  15.548
10062POPC   C3B15263   6.348  -3.308  15.627
10062POPC   C4B15264   6.306  -3.487  15.706
10063POPC   NC315265   2.192   0.352  16.320
10063POPC   PO415266   2.082   0.213  16.413
10063POPC   GL115267   1.972   0.074  16.506
10063POPC   GL215268   1.992   0.117  16.594
10063POPC   C1A15269   1.863  -0.066  16.598
10063POPC   D2A15270   1.753  -0.205  16.691
10063POPC   C3A15271   1.644  -0.345  16.783
10063POPC   C4A15272   1.534  -0.484  16.876
10063POPC   C1B15273   2.025  -0.180  16.618
10063POPC   C2B15274   1.916  -0.320  16.711
10063POPC   C3B15275   1.806  -0.459  16.803
10063POPC   C4B15276   1.697  -0.599  16.896
10064POPC   NC315277   6.207  17.200  -1.377
10064POPC   PO415278   6.154  17.300  -1.542
10064POPC   GL115279   6.101  17.400  -1.707
10064POPC   GL215280   6.185  17.369  -1.752
10064POPC   C1A15281   6.049  17.501  -1.872
10064POPC   D2A15282   5.996  17.601  -2.036
10064POPC   C3A15283   5.944  17.702  -2.201
10064POPC   C4A15284   5.891  17.802  -2.366
10064POPC   C1B15285   6.147  17.662  -1.805
10064POPC   C2B15286   6.094  17.762  -1.969
10064POPC   C3B15287   6.041  17.863  -2.134
10064POPC   C4B15288   5.989  17.963  -2.299
10065POPC   NC315289  14.439   5.950  -2.465
10065POPC   PO415290  14.509   5.898  -2.645
10065POPC   GL115291  14.579   5.846  -2.825
10065POPC   GL215292  14.509   5.902  -2.869
10065POPC   C1A15293  14.649   5.793  -3.005
10065POPC   D2A15294  14.720   5.741  -3.184
10065POPC   C3A15295  14.790   5.688  -3.364
10065POPC   C4A15296  14.860   5.636  -3.544
10065POPC   C1B15297  14.525   5.637  -3.008
10065POPC   C2B15298  14.595   5.584  -3.187
10065POPC   C3B15299  14.665   5.532  -3.367
10065POPC   C4B15300  14.736   5.479  -3.547
10066POPC   NC315301  -1.483  16.719  14.157
10066POPC   PO415302  -1.642  16.823  14.219
10066POPC   GL115303  -1.801  16.927  14.281
10066POPC   GL215304  -1.742  17.005  14.303
10066POPC   C1A15305  -1.960  17.031  14.343
10066POPC   D2A15306  -2.120  17.135  14.405
10066POPC   C3A15307  -2.279  17.239  14.467
10066POPC   C4A15308  -2.438  17.343  14.529
10066POPC   C1B15309  -1.935  16.960  14.528
10066POPC   C2B15310  -2.094  17.064  14.590
10066POPC   C3B15311  -2.253  17.168  14.652
10066POPC   C4B15312  -2.412  17.272  14.714
10067POPC   NC315313   2.163   6.805  -1.159
10067POPC   PO415314   2.049   6.758  -1.316
10067POPC   GL115315   1.935   6.711  -1.473
10067POPC   GL215316   1.853   6.718  -1.416
10067POPC   C1A15317   1.821   6.664  -1.631
10067POPC   D2A15318   1.707   6.616  -1.788
10067POPC   C3A15319   1.593   6.569  -1.946
10067POPC   C4A15320   1.479   6.522  -2.103
10067POPC   C1B15321   1.837   6.470  -1.584
10067POPC   C2B15322   1.723   6.423  -1.741
10067POPC   C3B15323   1.609   6.375  -1.899
10067POPC   C4B15324   1.495   6.328  -2.056
10068POPC   NC315325  15.914  19.279  18.282
10068POPC   PO415326  16.003  19.418  18.395
10068POPC   GL115327  16.092  19.557  18.508
10068POPC   GL215328  16.168  19.494  18.525
10068POPC   C1A15329  16.181  19.696  18.620
10068POPC   D2A15330  16.271  19.835  18.733
10068POPC   C3A15331  16.360  19.974  18.845
10068POPC   C4A15332  16.449  20.113  18.958
10068POPC   C1B15333  16.086  19.626  18.782
10068POPC   C2B15334  16.176  19.765  18.894
10068POPC   C3B15335  16.265  19.904  19.007
10068POPC   C4B15336  16.354  20.043  19.120
10069POPC   NC315337  11.241  23.741   9.204
10069POPC   PO415338  11.258  23.940   9.195
10069POPC   GL115339  11.275  24.139   9.186
10069POPC   GL215340  11.354  24.135   9.248
10069POPC   C1A15341  11.292  24.338   9.177
10069POPC   D2A15342  11.310  24.537   9.168
10069POPC   C3A15343  11.327  24.736   9.159
10069POPC   C4A15344  11.344  24.935   9.150
10069POPC   C1B15345  11.169  24.356   9.334
10069POPC   C2B15346  11.187  24.555   9.325
10069POPC   C3B15347  11.204  24.754   9.316
10069POPC   C4B15348  11.221  24.953   9.307
10070POPC   NC315349   6.578  19.601  19.263
10070POPC   PO415350   6.534  19.740  19.400
10070POPC   GL115351   6.490  19.879  19.537
10070POPC   GL215352   6.539  19.948  19.483
10070POPC   C1A15353   6.445  20.018  19.673
10070POPC   D2A15354   6.401  20.157  19.810
10070POPC   C3A15355   6.356  20.296  19.946
10070POPC   C4A15356   6.312  20.435  20.083
10070POPC   C1B15357   6.614  19.975  19.772
10070POPC   C2B15358   6.569  20.114  19.909
10070POPC   C3B15359   6.525  20.253  20.045
10070POPC   C4B15360   6.480  20.392  20.182
10071POPC   NC315361   8.312  13.484  23.206
10071POPC   PO415362   8.283  13.528  23.399
10071POPC   GL115363   8.254  13.572  23.592
10071POPC   GL215364   8.334  13.518  23.616
10071POPC   C1A15365   8.225  13.617  23.785
10071POPC   D2A15366   8.196  13.661  23.977
10071POPC   C3A15367   8.167  13.706  24.170
10071POPC   C4A15368   8.138  13.750  24.363
10071POPC   C1B15369   8.108  13.455  23.804
10071POPC   C2B15370   8.079  13.500  23.997
10071POPC   C3B15371   8.050  13.544  24.190
10071POPC   C4B15372   8.021  13.589  24.383
10072POPC   NC315373  12.509  13.926  22.896
10072POPC   PO415374  12.543  13.989  23.083
10072POPC   GL115375  12.577  14.052  23.270
10072POPC   GL215376  12.673  14.066  23.247
10072POPC   C1A15377  12.611  14.115  23.457
10072POPC   D2A15378  12.645  14.178  23.643
10072POPC   C3A15379  12.679  14.241  23.830
10072POPC   C4A15380  12.713  14.304  24.017
10072POPC   C1B15381  12.652  13.927  23.512
10072POPC   C2B15382  12.686  13.990  23.699
10072POPC   C3B15383  12.720  14.053  23.886
10072POPC   C4B15384  12.754  14.116  24.073
10073POPC   NC315385   6.382  -2.758  14.205
10073POPC   PO415386   6.331  -2.942  14.266
10073POPC   GL115387   6.280  -3.126  14.327
10073POPC   GL215388   6.326  -3.165  14.247
10073POPC   C1A15389   6.229  -3.309  14.388
10073POPC   D2A15390   6.178  -3.493  14.448
10073POPC   C3A15391   6.127  -3.676  14.509
10073POPC   C4A15392   6.076  -3.860  14.570
10073POPC   C1B15393   6.059  -3.297  14.283
10073POPC   C2B15394   6.008  -3.480  14.343
10073POPC   C3B15395   5.957  -3.664  14.404
10073POPC   C4B15396   5.906  -3.848  14.465
10074POPC   NC315397  -0.704  17.379   4.844
10074POPC   PO415398  -0.859  17.481   4.769
10074POPC   GL115399  -1.014  17.583   4.694
10074POPC   GL215400  -1.044  17.606   4.787
10074POPC   C1A15401  -1.169  17.685   4.619
10074POPC   D2A15402  -1.324  17.786   4.544
10074POPC   C3A15403  -1.479  17.888   4.469
10074POPC   C4A15404  -1.634  17.990   4.394
10074POPC   C1B15405  -1.281  17.519   4.625
10074POPC   C2B15406  -1.436  17.621   4.550
10074POPC   C3B15407  -1.591  17.722   4.475
10074POPC   C4B15408  -1.746  17.824   4.400
10075POPC   NC315409   9.469  18.803  -0.684
10075POPC   PO415410   9.465  18.932  -0.837
10075POPC   GL115411   9.461  19.061  -0.990
10075POPC   GL215412   9.488  19.135  -0.928
10075POPC   C1A15413   9.457  19.190  -1.143
10075POPC   D2A15414   9.453  19.319  -1.295
10075POPC   C3A15415   9.449  19.448  -1.448
10075POPC   C4A15416   9.445  19.577  -1.601
10075POPC   C1B15417   9.264  19.229  -1.105
10075POPC   C2B15418   9.260  19.358  -1.258
10075POPC   C3B15419   9.256  19.487  -1.410
10075POPC   C4B15420   9.252  19.616  -1.563
10076POPC   NC315421   8.173  20.884  18.329
10076POPC   PO415422   8.144  21.036  18.455
10076POPC   GL115423   8.115  21.188  18.581
10076POPC   GL215424   8.207  21.175  18.618
10076POPC   C1A15425   8.086  21.341  18.708
10076POPC   D2A15426   8.058  21.493  18.834
10076POPC   C3A15427   8.029  21.646  18.961
10076POPC   C4A15428   8.000  21.798  19.087
10076POPC   C1B15429   8.014  21.214  18.844
10076POPC   C2B15430   7.985  21.366  18.971
10076POPC   C3B15431   7.956  21.519  19.097
10076POPC   C4B15432   7.927  21.671  19.223
10077POPC   NC315433  14.572   1.876  -0.291
10077POPC   PO415434  14.635   1.753  -0.436
10077POPC   GL115435  14.698   1.630  -0.581
10077POPC   GL215436  14.670   1.697  -0.650
10077POPC   C1A15437  14.760   1.507  -0.726
10077POPC   D2A15438  14.823   1.385  -0.870
10077POPC   C3A15439  14.885   1.262  -1.015
10077POPC   C4A15440  14.948   1.139  -1.160
10077POPC   C1B15441  14.578   1.425  -0.734
10077POPC   C2B15442  14.641   1.302  -0.879
10077POPC   C3B15443  14.704   1.179  -1.023
10077POPC   C4B15444  14.766   1.056  -1.168
10078POPC   NC315445  -0.027  16.070  17.511
10078POPC   PO415446  -0.167  16.160  17.623
10078POPC   GL115447  -0.307  16.250  17.735
10078POPC   GL215448  -0.246  16.329  17.747
10078POPC   C1A15449  -0.446  16.339  17.846
10078POPC   D2A15450  -0.586  16.429  17.958
10078POPC   C3A15451  -0.725  16.518  18.069
10078POPC   C4A15452  -0.865  16.608  18.181
10078POPC   C1B15453  -0.369  16.255  18.010
10078POPC   C2B15454  -0.508  16.345  18.122
10078POPC   C3B15455  -0.648  16.435  18.234
10078POPC   C4B15456  -0.788  16.524  18.345
10079POPC   NC315457   0.784  12.681  -0.138
10079POPC   PO415458   0.657  12.713  -0.289
10079POPC   GL115459   0.530  12.745  -0.440
10079POPC   GL215460   0.474  12.803  -0.381
10079POPC   C1A15461   0.403  12.777  -0.591
10079POPC   D2A15462   0.276  12.808  -0.743
10079POPC   C3A15463   0.149  12.840  -0.894
10079POPC   C4A15464   0.022  12.872  -1.045
10079POPC   C1B15465   0.297  12.617  -0.536
10079POPC   C2B15466   0.170  12.649  -0.687
10079POPC   C3B15467   0.043  12.680  -0.838
10079POPC   C4B15468  -0.084  12.712  -0.989
10080POPC   NC315469  10.029  18.452  -0.980
10080POPC   PO415470  10.032  18.579  -1.134
10080POPC   GL115471  10.035  18.706  -1.288
10080POPC   GL215472  10.086  18.772  -1.233
10080POPC   C1A15473  10.038  18.834  -1.442
10080POPC   D2A15474  10.040  18.961  -1.597
10080POPC   C3A15475  10.043  19.089  -1.751
10080POPC   C4A15476  10.046  19.216  -1.905
10080POPC   C1B15477   9.866  18.914  -1.379
10080POPC   C2B15478   9.869  19.042  -1.533
10080POPC   C3B15479   9.871  19.169  -1.687
10080POPC   C4B15480   9.874  19.297  -1.842
10081POPC   NC315481  20.419  13.077   1.534
10081POPC   PO415482  20.573  13.114   1.412
10081POPC   GL115483  20.727  13.151   1.290
10081POPC   GL215484  20.664  13.190   1.222
10081POPC   C1A15485  20.881  13.188   1.167
10081POPC   D2A15486  21.034  13.225   1.045
10081POPC   C3A15487  21.188  13.262   0.922
10081POPC   C4A15488  21.342  13.299   0.800
10081POPC   C1B15489  20.858  13.008   1.084
10081POPC   C2B15490  21.012  13.045   0.962
10081POPC   C3B15491  21.166  13.082   0.839
10081POPC   C4B15492  21.319  13.119   0.717
10082POPC   NC315493  18.374   1.161  16.378
10082POPC   PO415494  18.495   1.035  16.475
10082POPC   GL115495  18.616   0.909  16.572
10082POPC   GL215496  18.683   0.983  16.584
10082POPC   C1A15497  18.737   0.783  16.670
10082POPC   D2A15498  18.859   0.658  16.767
10082POPC   C3A15499  18.980   0.532  16.865
10082POPC   C4A15500  19.101   0.406  16.962
10082POPC   C1B15501  18.823   0.732  16.497
10082POPC   C2B15502  18.944   0.606  16.594
10082POPC   C3B15503  19.065   0.480  16.691
10082POPC   C4B15504  19.187   0.354  16.789
10083POPC   NC315505   5.823  10.956  -3.297
10083POPC   PO415506   5.765  10.968  -3.488
10083POPC   GL115507   5.707  10.980  -3.679
10083POPC   GL215508   5.662  10.891  -3.671
10083POPC   C1A15509   5.649  10.993  -3.870
10083POPC   D2A15510   5.590  11.005  -4.061
10083POPC   C3A15511   5.532  11.018  -4.252
10083POPC   C4A15512   5.474  11.030  -4.443
10083POPC   C1B15513   5.818  10.903  -3.927
10083POPC   C2B15514   5.759  10.915  -4.118
10083POPC   C3B15515   5.701  10.927  -4.309
10083POPC   C4B15516   5.643  10.940  -4.500
10084POPC   NC315517  18.363   0.810  15.890
10084POPC   PO415518  18.487   0.677  15.974
10084POPC   GL115519  18.611   0.544  16.058
10084POPC   GL215520  18.689   0.596  16.024
10084POPC   C1A15521  18.734   0.411  16.142
10084POPC   D2A15522  18.858   0.279  16.227
10084POPC   C3A15523  18.981   0.146  16.311
10084POPC   C4A15524  19.105   0.013  16.395
10084POPC   C1B15525  18.732   0.303  15.974
10084POPC   C2B15526  18.856   0.170  16.059
10084POPC   C3B15527  18.979   0.037  16.143
10084POPC   C4B15528  19.103  -0.095  16.227
10085POPC   NC315529  -1.305  16.013  15.531
10085POPC   PO415530  -1.464  16.104  15.610
10085POPC   GL115531  -1.623  16.195  15.689
10085POPC   GL215532  -1.587  16.179  15.781
10085POPC   C1A15533  -1.782  16.287  15.769
10085POPC   D2A15534  -1.942  16.378  15.848
10085POPC   C3A15535  -2.101  16.470  15.928
10085POPC   C4A15536  -2.260  16.561  16.007
10085POPC   C1B15537  -1.879  16.112  15.776
10085POPC   C2B15538  -2.038  16.203  15.855
10085POPC   C3B15539  -2.198  16.295  15.935
10085POPC   C4B15540  -2.357  16.386  16.014
10086POPC   NC315541  12.060  22.869   5.535
10086POPC   PO415542  12.098  23.054   5.470
10086POPC   GL115543  12.136  23.239   5.405
10086POPC   GL215544  12.193  23.202   5.332
10086POPC   C1A15545  12.174  23.425   5.340
10086POPC   D2A15546  12.212  23.610   5.276
10086POPC   C3A15547  12.250  23.796   5.211
10086POPC   C4A15548  12.288  23.981   5.146
10086POPC   C1B15549  12.334  23.434   5.460
10086POPC   C2B15550  12.372  23.619   5.395
10086POPC   C3B15551  12.410  23.804   5.330
10086POPC   C4B15552  12.448  23.990   5.265
10087POPC   NC315553  16.220   2.786  -0.103
10087POPC   PO415554  16.316   2.682  -0.244
10087POPC   GL115555  16.412   2.578  -0.385
10087POPC   GL215556  16.369   2.634  -0.456
10087POPC   C1A15557  16.508   2.475  -0.527
10087POPC   D2A15558  16.605   2.371  -0.668
10087POPC   C3A15559  16.701   2.268  -0.810
10087POPC   C4A15560  16.797   2.164  -0.951
10087POPC   C1B15561  16.356   2.345  -0.536
10087POPC   C2B15562  16.452   2.242  -0.677
10087POPC   C3B15563  16.549   2.138  -0.818
10087POPC   C4B15564  16.645   2.035  -0.960
10088POPC   NC315565  15.723   0.548   1.645
10088POPC   PO415566  15.806   0.411   1.525
10088POPC   GL115567  15.889   0.274   1.405
10088POPC   GL215568  15.912   0.345   1.339
10088POPC   C1A15569  15.972   0.137   1.286
10088POPC   D2A15570  16.054  -0.001   1.166
10088POPC   C3A15571  16.137  -0.138   1.047
10088POPC   C4A15572  16.220  -0.275   0.927
10088POPC   C1B15573  15.796   0.110   1.195
10088POPC   C2B15574  15.878  -0.028   1.075
10088POPC   C3B15575  15.961  -0.165   0.956
10088POPC   C4B15576  16.044  -0.302   0.836
10089POPC   NC315577  13.825  17.265  21.038
10089POPC   PO415578  13.881  17.366  21.201
10089POPC   GL115579  13.937  17.467  21.364
10089POPC   GL215580  14.004  17.396  21.385
10089POPC   C1A15581  13.993  17.568  21.527
10089POPC   D2A15582  14.049  17.670  21.691
10089POPC   C3A15583  14.105  17.771  21.854
10089POPC   C4A15584  14.161  17.872  22.017
10089POPC   C1B15585  13.856  17.470  21.635
10089POPC   C2B15586  13.912  17.571  21.799
10089POPC   C3B15587  13.968  17.672  21.962
10089POPC   C4B15588  14.024  17.774  22.125
10090POPC   NC315589  20.990  17.616  12.994
10090POPC   PO415590  21.148  17.730  13.039
10090POPC   GL115591  21.306  17.844  13.084
10090POPC   GL215592  21.312  17.873  12.989
10090POPC   C1A15593  21.465  17.957  13.129
10090POPC   D2A15594  21.623  18.071  13.174
10090POPC   C3A15595  21.782  18.184  13.219
10090POPC   C4A15596  21.940  18.298  13.264
10090POPC   C1B15597  21.586  17.804  13.089
10090POPC   C2B15598  21.745  17.917  13.134
10090POPC   C3B15599  21.903  18.031  13.179
10090POPC   C4B15600  22.062  18.144  13.224
10091POPC   NC315601  20.791   1.655  11.751
10091POPC   PO415602  20.947   1.534  11.784
10091POPC   GL115603  21.103   1.413  11.817
10091POPC   GL215604  21.151   1.488  11.864
10091POPC   C1A15605  21.259   1.292  11.850
10091POPC   D2A15606  21.415   1.172  11.882
10091POPC   C3A15607  21.571   1.051  11.915
10091POPC   C4A15608  21.727   0.930  11.948
10091POPC   C1B15609  21.340   1.350  11.676
10091POPC   C2B15610  21.496   1.229  11.709
10091POPC   C3B15611  21.652   1.108  11.742
10091POPC   C4B15612  21.808   0.988  11.775
10092POPC   NC315613  -3.155  10.582  14.633
10092POPC   PO415614  -3.344  10.585  14.699
10092POPC   GL115615  -3.533  10.588  14.765
10092POPC   GL215616  -3.512  10.669  14.820
10092POPC   C1A15617  -3.721  10.591  14.832
10092POPC   D2A15618  -3.910  10.595  14.898
10092POPC   C3A15619  -4.098  10.598  14.965
10092POPC   C4A15620  -4.287  10.601  15.031
10092POPC   C1B15621  -3.669  10.474  14.985
10092POPC   C2B15622  -3.858  10.478  15.052
10092POPC   C3B15623  -4.046  10.481  15.118
10092POPC   C4B15624  -4.235  10.484  15.185
10093POPC   NC315625  20.170  18.763   7.173
10093POPC   PO415626  20.325  18.882   7.129
10093POPC   GL115627  20.480  19.001   7.085
10093POPC   GL215628  20.524  18.925   7.036
10093POPC   C1A15629  20.635  19.119   7.040
10093POPC   D2A15630  20.789  19.238   6.996
10093POPC   C3A15631  20.944  19.356   6.951
10093POPC   C4A15632  21.099  19.475   6.907
10093POPC   C1B15633  20.726  19.063   7.209
10093POPC   C2B15634  20.881  19.182   7.165
10093POPC   C3B15635  21.036  19.300   7.120
10093POPC   C4B15636  21.190  19.419   7.076
10094POPC   NC315637   2.915  12.174  21.712
10094POPC   PO415638   2.808  12.212  21.876
10094POPC   GL115639   2.701  12.250  22.040
10094POPC   GL215640   2.743  12.341  22.047
10094POPC   C1A15641   2.594  12.289  22.205
10094POPC   D2A15642   2.487  12.327  22.369
10094POPC   C3A15643   2.380  12.366  22.534
10094POPC   C4A15644   2.273  12.404  22.698
10094POPC   C1B15645   2.740  12.213  22.318
10094POPC   C2B15646   2.633  12.251  22.482
10094POPC   C3B15647   2.526  12.289  22.647
10094POPC   C4B15648   2.419  12.328  22.811
10095POPC   NC315649  18.971   1.484  16.016
10095POPC   PO415650  19.098   1.357  16.103
10095POPC   GL115651  19.225   1.230  16.190
10095POPC   GL215652  19.279   1.307  16.225
10095POPC   C1A15653  19.352   1.102  16.277
10095POPC   D2A15654  19.480   0.975  16.365
10095POPC   C3A15655  19.607   0.847  16.452
10095POPC   C4A15656  19.734   0.720  16.539
10095POPC   C1B15657  19.464   1.100  16.111
10095POPC   C2B15658  19.591   0.973  16.199
10095POPC   C3B15659  19.718   0.845  16.286
10095POPC   C4B15660  19.846   0.718  16.373
10096POPC   NC315661  14.396  14.523  22.224
10096POPC   PO415662  14.452  14.595  22.402
10096POPC   GL115663  14.508  14.667  22.580
10096POPC   GL215664  14.520  14.574  22.614
10096POPC   C1A15665  14.564  14.739  22.758
10096POPC   D2A15666  14.621  14.811  22.936
10096POPC   C3A15667  14.677  14.883  23.114
10096POPC   C4A15668  14.733  14.955  23.292
10096POPC   C1B15669  14.374  14.736  22.819
10096POPC   C2B15670  14.430  14.808  22.997
10096POPC   C3B15671  14.486  14.880  23.175
10096POPC   C4B15672  14.543  14.952  23.353
10097POPC   NC315673  12.188  23.524   8.206
10097POPC   PO415674  12.222  23.719   8.178
10097POPC   GL115675  12.256  23.914   8.150
10097POPC   GL215676  12.307  23.918   8.236
10097POPC   C1A15677  12.291  24.109   8.121
10097POPC   D2A15678  12.325  24.304   8.093
10097POPC   C3A15679  12.360  24.499   8.064
10097POPC   C4A15680  12.394  24.694   8.036
10097POPC   C1B15681  12.122  24.153   8.219
10097POPC   C2B15682  12.156  24.348   8.190
10097POPC   C3B15683  12.190  24.543   8.162
10097POPC   C4B15684  12.225  24.738   8.133
10098POPC   NC315685  -1.272   6.246   2.477
10098POPC   PO415686  -1.432   6.201   2.366
10098POPC   GL115687  -1.592   6.156   2.255
10098POPC   GL215688  -1.624   6.093   2.326
10098POPC   C1A15689  -1.753   6.111   2.144
10098POPC   D2A15690  -1.913   6.066   2.034
10098POPC   C3A15691  -2.074   6.021   1.923
10098POPC   C4A15692  -2.234   5.976   1.812
10098POPC   C1B15693  -1.651   5.962   2.058
10098POPC   C2B15694  -1.811   5.917   1.947
10098POPC   C3B15695  -1.972   5.872   1.836
10098POPC   C4B15696  -2.132   5.827   1.725
10099POPC   NC315697  12.342  23.580   8.907
10099POPC   PO415698  12.377  23.776   8.890
10099POPC   GL115699  12.412  23.972   8.873
10099POPC   GL215700  12.493  23.963   8.931
10099POPC   C1A15701  12.447  24.168   8.856
10099POPC   D2A15702  12.482  24.365   8.839
10099POPC   C3A15703  12.517  24.561   8.822
10099POPC   C4A15704  12.552  24.757   8.805
10099POPC   C1B15705  12.335  24.202   9.018
10099POPC   C2B15706  12.370  24.399   9.001
10099POPC   C3B15707  12.405  24.595   8.984
10099POPC   C4B15708  12.440  24.791   8.967
10100POPC   NC315709  22.446   9.862  15.791
10100POPC   PO415710  22.625   9.861  15.880
10100POPC   GL115711  22.804   9.860  15.969
10100POPC   GL215712  22.844   9.816  15.888
10100POPC   C1A15713  22.983   9.858  16.058
10100POPC   D2A15714  23.163   9.857  16.147
10100POPC   C3A15715  23.342   9.855  16.236
10100POPC   C4A15716  23.521   9.854  16.325
10100POPC   C1B15717  22.943   9.678  16.136
10100POPC   C2B15718  23.123   9.677  16.225
10100POPC   C3B15719  23.302   9.675  16.314
10100POPC   C4B15720  23.481   9.674  16.403
10101POPC   NC315721  13.910   1.814  -0.498
10101POPC   PO415722  13.964   1.691  -0.646
10101POPC   GL115723  14.018   1.568  -0.794
10101POPC   GL215724  14.107   1.612  -0.799
10101POPC   C1A15725  14.072   1.444  -0.942
10101POPC   D2A15726  14.126   1.321  -1.089
10101POPC   C3A15727  14.180   1.197  -1.237
10101POPC   C4A15728  14.234   1.074  -1.385
10101POPC   C1B15729  14.000   1.574  -1.076
10101POPC   C2B15730  14.054   1.450  -1.224
10101POPC   C3B15731  14.108   1.327  -1.372
10101POPC   C4B15732  14.162   1.204  -1.519
10102POPC   NC315733   1.464  16.585  18.704
10102POPC   PO415734   1.345  16.677  18.836
10102POPC   GL115735   1.226  16.769  18.968
10102POPC   GL215736   1.306  16.810  19.012
10102POPC   C1A15737   1.107  16.861  19.100
10102POPC   D2A15738   0.989  16.953  19.232
10102POPC   C3A15739   0.870  17.045  19.364
10102POPC   C4A15740   0.751  17.137  19.496
10102POPC   C1B15741   1.121  16.703  19.222
10102POPC   C2B15742   1.002  16.795  19.354
10102POPC   C3B15743   0.883  16.887  19.486
10102POPC   C4B15744   0.765  16.979  19.618
10103POPC   NC315745  17.351  18.958   2.645
10103POPC   PO415746  17.461  19.089   2.541
10103POPC   GL115747  17.571  19.220   2.437
10103POPC   GL215748  17.574  19.156   2.360
10103POPC   C1A15749  17.682  19.350   2.333
10103POPC   D2A15750  17.792  19.481   2.230
10103POPC   C3A15751  17.903  19.611   2.126
10103POPC   C4A15752  18.013  19.742   2.022
10103POPC   C1B15753  17.849  19.267   2.406
10103POPC   C2B15754  17.959  19.398   2.303
10103POPC   C3B15755  18.069  19.529   2.199
10103POPC   C4B15756  18.180  19.659   2.095
10104POPC   NC315757  -1.169  13.407  17.664
10104POPC   PO415758  -1.328  13.451  17.776
10104POPC   GL115759  -1.487  13.495  17.888
10104POPC   GL215760  -1.428  13.539  17.956
10104POPC   C1A15761  -1.647  13.540  18.001
10104POPC   D2A15762  -1.806  13.584  18.113
10104POPC   C3A15763  -1.966  13.629  18.226
10104POPC   C4A15764  -2.125  13.673  18.338
10104POPC   C1B15765  -1.628  13.365  18.096
10104POPC   C2B15766  -1.787  13.410  18.209
10104POPC   C3B15767  -1.947  13.454  18.321
10104POPC   C4B15768  -2.106  13.498  18.434
10105POPC   NC315769  20.262  11.479  18.939
10105POPC   PO415770  20.406  11.505  19.076
10105POPC   GL115771  20.550  11.531  19.213
10105POPC   GL215772  20.596  11.596  19.152
10105POPC   C1A15773  20.694  11.557  19.349
10105POPC   D2A15774  20.837  11.583  19.486
10105POPC   C3A15775  20.981  11.609  19.622
10105POPC   C4A15776  21.125  11.635  19.759
10105POPC   C1B15777  20.798  11.407  19.268
10105POPC   C2B15778  20.941  11.433  19.405
10105POPC   C3B15779  21.085  11.459  19.541
10105POPC   C4B15780  21.229  11.485  19.678
10106POPC   NC315781  -3.242  13.689   7.618
10106POPC   PO415782  -3.431  13.740   7.578
10106POPC   GL115783  -3.620  13.791   7.538
10106POPC   GL215784  -3.627  13.835   7.627
10106POPC   C1A15785  -3.809  13.843   7.497
10106POPC   D2A15786  -3.998  13.894   7.457
10106POPC   C3A15787  -4.187  13.946   7.416
10106POPC   C4A15788  -4.376  13.997   7.376
10106POPC   C1B15789  -3.873  13.670   7.576
10106POPC   C2B15790  -4.062  13.722   7.535
10106POPC   C3B15791  -4.251  13.773   7.495
10106POPC   C4B15792  -4.440  13.824   7.455
10107POPC   NC315793  17.057   2.470  19.050
10107POPC   PO415794  17.163   2.362  19.181
10107POPC   GL115795  17.269   2.254  19.312
10107POPC   GL215796  17.353   2.293  19.276
10107POPC   C1A15797  17.375   2.146  19.443
10107POPC   D2A15798  17.480   2.037  19.573
10107POPC   C3A15799  17.586   1.929  19.704
10107POPC   C4A15800  17.692   1.821  19.835
10107POPC   C1B15801  17.387   1.997  19.309
10107POPC   C2B15802  17.493   1.889  19.440
10107POPC   C3B15803  17.599   1.781  19.571
10107POPC   C4B15804  17.705   1.672  19.702
10108POPC   NC315805  -1.270   9.003  18.094
10108POPC   PO415806  -1.430   8.994  18.213
10108POPC   GL115807  -1.590   8.985  18.332
10108POPC   GL215808  -1.545   8.916  18.388
10108POPC   C1A15809  -1.751   8.977  18.451
10108POPC   D2A15810  -1.911   8.968  18.570
10108POPC   C3A15811  -2.072   8.960  18.689
10108POPC   C4A15812  -2.232   8.951  18.808
10108POPC   C1B15813  -1.829   8.834  18.335
10108POPC   C2B15814  -1.989   8.825  18.454
10108POPC   C3B15815  -2.150   8.816  18.573
10108POPC   C4B15816  -2.310   8.808  18.692
10109POPC   NC315817   2.217   9.251  21.557
10109POPC   PO415818   2.102   9.235  21.720
10109POPC   GL115819   1.987   9.219  21.883
10109POPC   GL215820   2.066   9.188  21.936
10109POPC   C1A15821   1.872   9.204  22.046
10109POPC   D2A15822   1.757   9.188  22.209
10109POPC   C3A15823   1.642   9.173  22.372
10109POPC   C4A15824   1.527   9.157  22.535
10109POPC   C1B15825   1.829   9.015  21.997
10109POPC   C2B15826   1.714   8.999  22.160
10109POPC   C3B15827   1.599   8.984  22.323
10109POPC   C4B15828   1.484   8.968  22.486
10110POPC   NC315829  22.497  15.081  12.514
10110POPC   PO415830  22.679  15.155  12.550
10110POPC   GL115831  22.861  15.229  12.586
10110POPC   GL215832  22.894  15.190  12.499
10110POPC   C1A15833  23.043  15.303  12.621
10110POPC   D2A15834  23.226  15.378  12.657
10110POPC   C3A15835  23.408  15.452  12.692
10110POPC   C4A15836  23.590  15.526  12.728
10110POPC   C1B15837  23.094  15.135  12.716
10110POPC   C2B15838  23.276  15.209  12.752
10110POPC   C3B15839  23.458  15.283  12.787
10110POPC   C4B15840  23.640  15.357  12.823
10111POPC   NC315841  12.385  -3.280  13.048
10111POPC   PO415842  12.422  -3.471  13.094
10111POPC   GL115843  12.459  -3.662  13.140
10111POPC   GL215844  12.519  -3.670  13.060
10111POPC   C1A15845  12.496  -3.853  13.186
10111POPC   D2A15846  12.532  -4.044  13.233
10111POPC   C3A15847  12.569  -4.235  13.279
10111POPC   C4A15848  12.606  -4.426  13.325
10111POPC   C1B15849  12.339  -3.910  13.075
10111POPC   C2B15850  12.376  -4.101  13.121
10111POPC   C3B15851  12.413  -4.292  13.168
10111POPC   C4B15852  12.450  -4.483  13.214
10112POPC   NC315853   6.069   8.895  -3.351
10112POPC   PO415854   6.017   8.880  -3.544
10112POPC   GL115855   5.965   8.865  -3.737
10112POPC   GL215856   5.932   8.772  -3.720
10112POPC   C1A15857   5.914   8.850  -3.929
10112POPC   D2A15858   5.862   8.836  -4.122
10112POPC   C3A15859   5.811   8.821  -4.314
10112POPC   C4A15860   5.759   8.806  -4.507
10112POPC   C1B15861   6.095   8.777  -3.972
10112POPC   C2B15862   6.043   8.763  -4.165
10112POPC   C3B15863   5.992   8.748  -4.357
10112POPC   C4B15864   5.940   8.733  -4.550
10113POPC   NC315865  -3.337  10.166  14.143
10113POPC   PO415866  -3.527  10.169  14.206
10113POPC   GL115867  -3.717  10.172  14.269
10113POPC   GL215868  -3.711  10.075  14.292
10113POPC   C1A15869  -3.907  10.175  14.332
10113POPC   D2A15870  -4.096  10.179  14.394
10113POPC   C3A15871  -4.286  10.182  14.457
10113POPC   C4A15872  -4.476  10.185  14.520
10113POPC   C1B15873  -3.968  10.128  14.147
10113POPC   C2B15874  -4.158  10.131  14.210
10113POPC   C3B15875  -4.348  10.134  14.273
10113POPC   C4B15876  -4.538  10.138  14.336
10114POPC   NC315877  10.184   1.678  21.018
10114POPC   PO415878  10.192   1.557  21.177
10114POPC   GL115879  10.200   1.436  21.336
10114POPC   GL215880  10.283   1.482  21.367
10114POPC   C1A15881  10.207   1.315  21.495
10114POPC   D2A15882  10.215   1.195  21.655
10114POPC   C3A15883  10.222   1.074  21.814
10114POPC   C4A15884  10.230   0.953  21.973
10114POPC   C1B15885  10.318   1.185  21.391
10114POPC   C2B15886  10.325   1.064  21.551
10114POPC   C3B15887  10.333   0.944  21.710
10114POPC   C4B15888  10.341   0.823  21.869
10115POPC   NC315889  -2.972  14.169  13.186
10115POPC   PO415890  -3.157  14.232  13.230
10115POPC   GL115891  -3.342  14.295  13.274
10115POPC   GL215892  -3.335  14.253  13.364
10115POPC   C1A15893  -3.527  14.357  13.318
10115POPC   D2A15894  -3.711  14.420  13.361
10115POPC   C3A15895  -3.896  14.482  13.405
10115POPC   C4A15896  -4.081  14.545  13.449
10115POPC   C1B15897  -3.602  14.187  13.245
10115POPC   C2B15898  -3.786  14.249  13.289
10115POPC   C3B15899  -3.971  14.312  13.333
10115POPC   C4B15900  -4.156  14.374  13.376
10116POPC   NC315901   3.771  20.516   3.413
10116POPC   PO415902   3.676  20.668   3.324
10116POPC   GL115903   3.581  20.820   3.235
10116POPC   GL215904   3.641  20.885   3.281
10116POPC   C1A15905   3.487  20.972   3.145
10116POPC   D2A15906   3.392  21.124   3.056
10116POPC   C3A15907   3.298  21.276   2.966
10116POPC   C4A15908   3.203  21.428   2.877
10116POPC   C1B15909   3.358  20.981   3.298
10116POPC   C2B15910   3.263  21.133   3.208
10116POPC   C3B15911   3.169  21.285   3.119
10116POPC   C4B15912   3.074  21.437   3.030
10117POPC   NC315913   6.397  -0.419  18.417
10117POPC   PO415914   6.347  -0.569  18.539
10117POPC   GL115915   6.297  -0.719  18.661
10117POPC   GL215916   6.350  -0.782  18.606
10117POPC   C1A15917   6.246  -0.869  18.784
10117POPC   D2A15918   6.196  -1.018  18.906
10117POPC   C3A15919   6.145  -1.168  19.029
10117POPC   C4A15920   6.095  -1.318  19.151
10117POPC   C1B15921   6.085  -0.906  18.671
10117POPC   C2B15922   6.035  -1.056  18.794
10117POPC   C3B15923   5.984  -1.206  18.916
10117POPC   C4B15924   5.934  -1.356  19.039
10118POPC   NC315925  10.827  23.582   7.536
10118POPC   PO415926  10.842  23.778   7.500
10118POPC   GL115927  10.857  23.974   7.464
10118POPC   GL215928  10.937  23.979   7.524
10118POPC   C1A15929  10.871  24.170   7.428
10118POPC   D2A15930  10.886  24.367   7.393
10118POPC   C3A15931  10.900  24.563   7.357
10118POPC   C4A15932  10.915  24.759   7.321
10118POPC   C1B15933  10.753  24.208   7.585
10118POPC   C2B15934  10.767  24.404   7.549
10118POPC   C3B15935  10.782  24.600   7.514
10118POPC   C4B15936  10.797  24.796   7.478
10119POPC   NC315937   3.999  -0.495   2.984
10119POPC   PO415938   3.913  -0.640   2.876
10119POPC   GL115939   3.827  -0.785   2.768
10119POPC   GL215940   3.915  -0.806   2.726
10119POPC   C1A15941   3.741  -0.930   2.660
10119POPC   D2A15942   3.654  -1.074   2.553
10119POPC   C3A15943   3.568  -1.219   2.445
10119POPC   C4A15944   3.482  -1.364   2.337
10119POPC   C1B15945   3.701  -0.798   2.515
10119POPC   C2B15946   3.615  -0.943   2.407
10119POPC   C3B15947   3.529  -1.088   2.299
10119POPC   C4B15948   3.443  -1.232   2.192
10120POPC   NC315949   5.525  14.397  -2.479
10120POPC   PO415950   5.461  14.463  -2.656
10120POPC   GL115951   5.397  14.529  -2.833
10120POPC   GL215952   5.319  14.573  -2.789
10120POPC   C1A15953   5.332  14.595  -3.011
10120POPC   D2A15954   5.268  14.661  -3.188
10120POPC   C3A15955   5.203  14.727  -3.366
10120POPC   C4A15956   5.139  14.793  -3.543
10120POPC   C1B15957   5.224  14.428  -3.033
10120POPC   C2B15958   5.160  14.494  -3.211
10120POPC   C3B15959   5.095  14.560  -3.388
10120POPC   C4B15960   5.031  14.626  -3.566
10121POPC   NC315961   6.668  -2.501  15.085
10121POPC   PO415962   6.625  -2.681  15.161
10121POPC   GL115963   6.582  -2.861  15.237
10121POPC   GL215964   6.631  -2.905  15.161
10121POPC   C1A15965   6.539  -3.041  15.313
10121POPC   D2A15966   6.496  -3.221  15.388
10121POPC   C3A15967   6.453  -3.401  15.464
10121POPC   C4A15968   6.410  -3.581  15.540
10121POPC   C1B15969   6.370  -3.046  15.205
10121POPC   C2B15970   6.327  -3.226  15.281
10121POPC   C3B15971   6.284  -3.406  15.357
10121POPC   C4B15972   6.241  -3.586  15.433
10122POPC   NC315973  -3.248   9.579   5.646
10122POPC   PO415974  -3.439   9.578   5.586
10122POPC   GL115975  -3.630   9.577   5.526
10122POPC   GL215976  -3.650   9.505   5.593
10122POPC   C1A15977  -3.821   9.576   5.466
10122POPC   D2A15978  -4.011   9.574   5.406
10122POPC   C3A15979  -4.202   9.573   5.346
10122POPC   C4A15980  -4.393   9.572   5.286
10122POPC   C1B15981  -3.777   9.436   5.329
10122POPC   C2B15982  -3.968   9.435   5.269
10122POPC   C3B15983  -4.158   9.434   5.209
10122POPC   C4B15984  -4.349   9.433   5.149
10123POPC   NC315985  11.859  15.652  -2.509
10123POPC   PO415986  11.888  15.734  -2.689
10123POPC   GL115987  11.917  15.816  -2.869
10123POPC   GL215988  12.014  15.792  -2.864
10123POPC   C1A15989  11.946  15.897  -3.049
10123POPC   D2A15990  11.976  15.979  -3.230
10123POPC   C3A15991  12.005  16.060  -3.410
10123POPC   C4A15992  12.034  16.142  -3.590
10123POPC   C1B15993  11.985  16.073  -2.963
10123POPC   C2B15994  12.015  16.155  -3.144
10123POPC   C3B15995  12.044  16.237  -3.324
10123POPC   C4B15996  12.073  16.318  -3.504
10124POPC   NC315997   2.788  20.780  14.894
10124POPC   PO415998   2.688  20.939  14.962
10124POPC   GL115999   2.588  21.098  15.030
10124POPC   GL216000   2.634  21.089  15.119
10124POPC   C1A16001   2.488  21.257  15.099
10124POPC   D2A16002   2.388  21.417  15.167
10124POPC   C3A16003   2.288  21.576  15.236
10124POPC   C4A16004   2.188  21.735  15.304
10124POPC   C1B16005   2.341  21.138  15.163
10124POPC   C2B16006   2.241  21.297  15.231
10124POPC   C3B16007   2.141  21.456  15.299
10124POPC   C4B16008   2.041  21.615  15.368
10125POPC   NC316009   2.478  10.596  21.704
10125POPC   PO416010   2.367  10.615  21.869
10125POPC   GL116011   2.256  10.634  22.034
10125POPC   GL216012   2.276  10.732  22.037
10125POPC   C1A16013   2.145  10.653  22.200
10125POPC   D2A16014   2.034  10.671  22.365
10125POPC   C3A16015   1.923  10.690  22.531
10125POPC   C4A16016   1.812  10.709  22.696
10125POPC   C1B16017   2.306  10.616  22.312
10125POPC   C2B16018   2.195  10.635  22.478
10125POPC   C3B16019   2.084  10.654  22.643
10125POPC   C4B16020   1.973  10.672  22.808
10126POPC   NC316021   3.392   1.822   0.953
10126POPC   PO416022   3.299   1.702   0.823
10126POPC   GL116023   3.206   1.582   0.693
10126POPC   GL216024   3.291   1.574   0.640
10126POPC   C1A16025   3.114   1.462   0.563
10126POPC   D2A16026   3.021   1.341   0.432
10126POPC   C3A16027   2.929   1.221   0.302
10126POPC   C4A16028   2.836   1.101   0.172
10126POPC   C1B16029   3.060   1.621   0.454
10126POPC   C2B16030   2.967   1.500   0.324
10126POPC   C3B16031   2.875   1.380   0.194
10126POPC   C4B16032   2.782   1.260   0.064
10127POPC   NC316033  -0.531   6.327   1.489
10127POPC   PO416034  -0.680   6.279   1.365
10127POPC   GL116035  -0.829   6.231   1.241
10127POPC   GL216036  -0.886   6.204   1.319
10127POPC   C1A16037  -0.979   6.182   1.117
10127POPC   D2A16038  -1.128   6.134   0.993
10127POPC   C3A16039  -1.278   6.085   0.869
10127POPC   C4A16040  -1.427   6.037   0.745
10127POPC   C1B16041  -0.908   5.996   1.105
10127POPC   C2B16042  -1.057   5.947   0.981
10127POPC   C3B16043  -1.207   5.899   0.857
10127POPC   C4B16044  -1.356   5.850   0.733
10128POPC   NC316045  15.856   4.390  -1.254
10128POPC   PO416046  15.948   4.318  -1.417
10128POPC   GL116047  16.040   4.246  -1.580
10128POPC   GL216048  16.099   4.327  -1.582
10128POPC   C1A16049  16.131   4.175  -1.743
10128POPC   D2A16050  16.223   4.103  -1.905
10128POPC   C3A16051  16.314   4.032  -2.068
10128POPC   C4A16052  16.406   3.960  -2.231
10128POPC   C1B16053  15.999   4.269  -1.859
10128POPC   C2B16054  16.090   4.198  -2.022
10128POPC   C3B16055  16.182   4.126  -2.184
10128POPC   C4B16056  16.273   4.054  -2.347
10129POPC   NC316057  -3.545   7.206   7.555
10129POPC   PO416058  -3.737   7.161   7.522
10129POPC   GL116059  -3.929   7.116   7.489
10129POPC   GL216060  -3.954   7.161   7.575
10129POPC   C1A16061  -4.121   7.071   7.456
10129POPC   D2A16062  -4.313   7.027   7.422
10129POPC   C3A16063  -4.505   6.982   7.389
10129POPC   C4A16064  -4.697   6.937   7.356
10129POPC   C1B16065  -4.097   6.898   7.552
10129POPC   C2B16066  -4.289   6.853   7.519
10129POPC   C3B16067  -4.481   6.808   7.486
10129POPC   C4B16068  -4.673   6.763   7.453
10130POPC   NC316069  -3.981   8.737   9.881
10130POPC   PO416070  -4.180   8.716   9.885
10130POPC   GL116071  -4.379   8.695   9.889
10130POPC   GL216072  -4.383   8.755   9.969
10130POPC   C1A16073  -4.578   8.674   9.893
10130POPC   D2A16074  -4.776   8.654   9.896
10130POPC   C3A16075  -4.975   8.633   9.900
10130POPC   C4A16076  -5.174   8.612   9.904
10130POPC   C1B16077  -4.559   8.516  10.013
10130POPC   C2B16078  -4.758   8.495  10.017
10130POPC   C3B16079  -4.956   8.474  10.020
10130POPC   C4B16080  -5.155   8.453  10.024
10131POPC   NC316081   0.812   8.571  -0.415
10131POPC   PO416082   0.680   8.556  -0.564
10131POPC   GL116083   0.548   8.541  -0.713
10131POPC   GL216084   0.565   8.442  -0.718
10131POPC   C1A16085   0.415   8.526  -0.862
10131POPC   D2A16086   0.283   8.510  -1.012
10131POPC   C3A16087   0.150   8.495  -1.161
10131POPC   C4A16088   0.018   8.480  -1.310
10131POPC   C1B16089   0.561   8.557  -0.995
10131POPC   C2B16090   0.429   8.542  -1.144
10131POPC   C3B16091   0.296   8.527  -1.294
10131POPC   C4B16092   0.164   8.512  -1.443
10132POPC   NC316093  11.457  22.099  16.478
10132POPC   PO416094  11.486  22.271  16.575
10132POPC   GL116095  11.515  22.443  16.672
10132POPC   GL216096  11.611  22.444  16.642
10132POPC   C1A16097  11.544  22.616  16.769
10132POPC   D2A16098  11.574  22.788  16.866
10132POPC   C3A16099  11.603  22.961  16.963
10132POPC   C4A16100  11.632  23.133  17.060
10132POPC   C1B16101  11.597  22.515  16.933
10132POPC   C2B16102  11.627  22.687  17.030
10132POPC   C3B16103  11.656  22.859  17.127
10132POPC   C4B16104  11.685  23.032  17.224
10133POPC   NC316105  14.120  -2.821  13.023
10133POPC   PO416106  14.183  -3.005  13.070
10133POPC   GL116107  14.246  -3.189  13.117
10133POPC   GL216108  14.299  -3.152  13.193
10133POPC   C1A16109  14.309  -3.373  13.163
10133POPC   D2A16110  14.372  -3.557  13.210
10133POPC   C3A16111  14.435  -3.741  13.256
10133POPC   C4A16112  14.498  -3.925  13.303
10133POPC   C1B16113  14.467  -3.350  13.042
10133POPC   C2B16114  14.530  -3.534  13.089
10133POPC   C3B16115  14.593  -3.718  13.136
10133POPC   C4B16116  14.656  -3.902  13.182
10134POPC   NC316117  -2.125  17.043   9.729
10134POPC   PO416118  -2.298  17.143   9.730
10134POPC   GL116119  -2.471  17.243   9.731
10134POPC   GL216120  -2.499  17.194   9.813
10134POPC   C1A16121  -2.644  17.344   9.731
10134POPC   D2A16122  -2.817  17.444   9.732
10134POPC   C3A16123  -2.990  17.545   9.732
10134POPC   C4A16124  -3.163  17.645   9.733
10134POPC   C1B16125  -2.727  17.201   9.618
10134POPC   C2B16126  -2.900  17.302   9.618
10134POPC   C3B16127  -3.073  17.402   9.619
10134POPC   C4B16128  -3.246  17.503   9.620
10135POPC   NC316129  -0.440  15.229  17.623
10135POPC   PO416130  -0.584  15.309  17.737
10135POPC   GL116131  -0.728  15.389  17.851
10135POPC   GL216132  -0.691  15.480  17.834
10135POPC   C1A16133  -0.872  15.468  17.965
10135POPC   D2A16134  -1.016  15.548  18.078
10135POPC   C3A16135  -1.160  15.627  18.192
10135POPC   C4A16136  -1.304  15.707  18.306
10135POPC   C1B16137  -0.754  15.451  18.125
10135POPC   C2B16138  -0.898  15.531  18.239
10135POPC   C3B16139  -1.042  15.610  18.353
10135POPC   C4B16140  -1.186  15.690  18.467
10136POPC   NC316141  19.683   1.661   4.766
10136POPC   PO416142  19.825   1.541   4.692
10136POPC   GL116143  19.967   1.421   4.618
10136POPC   GL216144  20.030   1.499   4.612
10136POPC   C1A16145  20.109   1.301   4.544
10136POPC   D2A16146  20.250   1.182   4.469
10136POPC   C3A16147  20.392   1.062   4.395
10136POPC   C4A16148  20.534   0.942   4.321
10136POPC   C1B16149  20.044   1.340   4.358
10136POPC   C2B16150  20.186   1.220   4.284
10136POPC   C3B16151  20.328   1.101   4.210
10136POPC   C4B16152  20.470   0.981   4.136
10137POPC   NC316153  16.985  12.817  -1.624
10137POPC   PO416154  17.091  12.855  -1.789
10137POPC   GL116155  17.197  12.893  -1.954
10137POPC   GL216156  17.117  12.935  -1.996
10137POPC   C1A16157  17.303  12.931  -2.119
10137POPC   D2A16158  17.409  12.969  -2.285
10137POPC   C3A16159  17.515  13.007  -2.450
10137POPC   C4A16160  17.621  13.045  -2.615
10137POPC   C1B16161  17.249  12.754  -2.195
10137POPC   C2B16162  17.355  12.792  -2.360
10137POPC   C3B16163  17.461  12.830  -2.525
10137POPC   C4B16164  17.567  12.868  -2.690
10138POPC   NC316165  23.445  11.473  11.888
10138POPC   PO416166  23.643  11.491  11.913
10138POPC   GL116167  23.841  11.509  11.938
10138POPC   GL216168  23.845  11.571  11.859
10138POPC   C1A16169  24.038  11.528  11.962
10138POPC   D2A16170  24.236  11.546  11.987
10138POPC   C3A16171  24.433  11.565  12.011
10138POPC   C4A16172  24.631  11.583  12.036
10138POPC   C1B16173  24.068  11.371  11.841
10138POPC   C2B16174  24.265  11.390  11.866
10138POPC   C3B16175  24.463  11.408  11.890
10138POPC   C4B16176  24.661  11.427  11.915
10139POPC   NC316177   6.101  19.756   0.895
10139POPC   PO416178   6.053  19.903   0.768
10139POPC   GL116179   6.005  20.050   0.641
10139POPC   GL216180   6.050  20.116   0.700
10139POPC   C1A16181   5.957  20.196   0.514
10139POPC   D2A16182   5.908  20.343   0.386
10139POPC   C3A16183   5.860  20.489   0.259
10139POPC   C4A16184   5.812  20.636   0.132
10139POPC   C1B16185   5.785  20.226   0.612
10139POPC   C2B16186   5.737  20.372   0.485
10139POPC   C3B16187   5.689  20.519   0.358
10139POPC   C4B16188   5.641  20.666   0.231
10140POPC   NC316189  -1.426  17.797  11.792
10140POPC   PO416190  -1.586  17.912  11.823
10140POPC   GL116191  -1.746  18.027  11.854
10140POPC   GL216192  -1.761  17.983  11.942
10140POPC   C1A16193  -1.907  18.143  11.885
10140POPC   D2A16194  -2.067  18.258  11.915
10140POPC   C3A16195  -2.228  18.374  11.946
10140POPC   C4A16196  -2.388  18.489  11.977
10140POPC   C1B16197  -2.022  18.006  11.796
10140POPC   C2B16198  -2.183  18.121  11.827
10140POPC   C3B16199  -2.343  18.237  11.858
10140POPC   C4B16200  -2.504  18.352  11.888
10141POPC   NC316201  14.366  22.768  12.824
10141POPC   PO416202  14.432  22.952  12.865
10141POPC   GL116203  14.498  23.136  12.906
10141POPC   GL216204  14.547  23.101  12.986
10141POPC   C1A16205  14.564  23.320  12.947
10141POPC   D2A16206  14.630  23.505  12.988
10141POPC   C3A16207  14.696  23.689  13.029
10141POPC   C4A16208  14.762  23.873  13.070
10141POPC   C1B16209  14.403  23.353  13.061
10141POPC   C2B16210  14.469  23.537  13.102
10141POPC   C3B16211  14.535  23.721  13.143
10141POPC   C4B16212  14.601  23.905  13.184
10142POPC   NC316213   0.321   2.352  16.486
10142POPC   PO416214   0.184   2.243  16.582
10142POPC   GL116215   0.047   2.134  16.678
10142POPC   GL216216   0.108   2.054  16.675
10142POPC   C1A16217  -0.090   2.024  16.774
10142POPC   D2A16218  -0.228   1.915  16.870
10142POPC   C3A16219  -0.365   1.805  16.966
10142POPC   C4A16220  -0.502   1.696  17.062
10142POPC   C1B16221  -0.170   1.971  16.599
10142POPC   C2B16222  -0.308   1.861  16.695
10142POPC   C3B16223  -0.445   1.752  16.791
10142POPC   C4B16224  -0.582   1.642  16.887
10143POPC   NC316225  11.321   6.259  23.205
10143POPC   PO416226  11.340   6.207  23.397
10143POPC   GL116227  11.359   6.155  23.589
10143POPC   GL216228  11.401   6.068  23.561
10143POPC   C1A16229  11.378   6.102  23.781
10143POPC   D2A16230  11.397   6.050  23.973
10143POPC   C3A16231  11.416   5.997  24.165
10143POPC   C4A16232  11.435   5.945  24.357
10143POPC   C1B16233  11.198   6.016  23.775
10143POPC   C2B16234  11.217   5.964  23.967
10143POPC   C3B16235  11.236   5.911  24.159
10143POPC   C4B16236  11.255   5.859  24.351
10144POPC   NC316237   4.920  -2.257   5.693
10144POPC   PO416238   4.853  -2.435   5.632
10144POPC   GL116239   4.786  -2.613   5.571
10144POPC   GL216240   4.795  -2.649   5.664
10144POPC   C1A16241   4.719  -2.791   5.509
10144POPC   D2A16242   4.653  -2.970   5.448
10144POPC   C3A16243   4.586  -3.148   5.386
10144POPC   C4A16244   4.519  -3.326   5.325
10144POPC   C1B16245   4.907  -2.848   5.470
10144POPC   C2B16246   4.840  -3.026   5.408
10144POPC   C3B16247   4.773  -3.205   5.347
10144POPC   C4B16248   4.707  -3.383   5.285
10145POPC   NC316249   7.333  17.852  21.046
10145POPC   PO416250   7.294  17.972  21.201
10145POPC   GL116251   7.255  18.092  21.356
10145POPC   GL216252   7.333  18.150  21.330
10145POPC   C1A16253   7.217  18.213  21.511
10145POPC   D2A16254   7.178  18.333  21.666
10145POPC   C3A16255   7.140  18.454  21.821
10145POPC   C4A16256   7.101  18.574  21.976
10145POPC   C1B16257   7.338  18.103  21.626
10145POPC   C2B16258   7.300  18.224  21.781
10145POPC   C3B16259   7.261  18.344  21.936
10145POPC   C4B16260   7.222  18.465  22.091
10146POPC   NC316261   8.378  -0.014   0.463
10146POPC   PO416262   8.355  -0.159   0.327
10146POPC   GL116263   8.332  -0.304   0.191
10146POPC   GL216264   8.395  -0.362   0.242
10146POPC   C1A16265   8.309  -0.448   0.055
10146POPC   D2A16266   8.285  -0.593  -0.082
10146POPC   C3A16267   8.262  -0.737  -0.218
10146POPC   C4A16268   8.239  -0.882  -0.354
10146POPC   C1B16269   8.462  -0.374  -0.051
10146POPC   C2B16270   8.438  -0.518  -0.187
10146POPC   C3B16271   8.415  -0.663  -0.323
10146POPC   C4B16272   8.392  -0.808  -0.459
10147POPC   NC316273  15.050  21.460   4.174
10147POPC   PO416274  15.123  21.626   4.091
10147POPC   GL116275  15.196  21.792   4.008
10147POPC   GL216276  15.268  21.795   4.077
10147POPC   C1A16277  15.270  21.959   3.925
10147POPC   D2A16278  15.343  22.125   3.842
10147POPC   C3A16279  15.417  22.292   3.759
10147POPC   C4A16280  15.490  22.458   3.676
10147POPC   C1B16281  15.152  22.070   4.043
10147POPC   C2B16282  15.225  22.236   3.960
10147POPC   C3B16283  15.299  22.402   3.877
10147POPC   C4B16284  15.372  22.569   3.794
10148POPC   NC316285   1.181   8.279  -0.698
10148POPC   PO416286   1.054   8.260  -0.851
10148POPC   GL116287   0.927   8.241  -1.004
10148POPC   GL216288   0.886   8.329  -0.981
10148POPC   C1A16289   0.800   8.222  -1.158
10148POPC   D2A16290   0.673   8.204  -1.311
10148POPC   C3A16291   0.546   8.185  -1.465
10148POPC   C4A16292   0.419   8.166  -1.618
10148POPC   C1B16293   0.669   8.130  -1.038
10148POPC   C2B16294   0.542   8.111  -1.192
10148POPC   C3B16295   0.415   8.092  -1.345
10148POPC   C4B16296   0.288   8.073  -1.498
10149POPC   NC316297  20.978  11.965   1.987
10149POPC   PO416298  21.138  11.988   1.869
10149POPC   GL116299  21.298  12.011   1.751
10149POPC   GL216300  21.254  12.089   1.707
10149POPC   C1A16301  21.458  12.034   1.633
10149POPC   D2A16302  21.617  12.056   1.515
10149POPC   C3A16303  21.777  12.079   1.397
10149POPC   C4A16304  21.937  12.102   1.279
10149POPC   C1B16305  21.375  11.911   1.498
10149POPC   C2B16306  21.535  11.934   1.380
10149POPC   C3B16307  21.695  11.957   1.262
10149POPC   C4B16308  21.855  11.980   1.144
10150POPC   NC316309   9.157  12.269  -3.725
10150POPC   PO416310   9.148  12.301  -3.922
10150POPC   GL116311   9.139  12.333  -4.119
10150POPC   GL216312   9.230  12.293  -4.130
10150POPC   C1A16313   9.130  12.365  -4.316
10150POPC   D2A16314   9.122  12.398  -4.514
10150POPC   C3A16315   9.113  12.430  -4.711
10150POPC   C4A16316   9.104  12.462  -4.908
10150POPC   C1B16317   9.213  12.546  -4.291
10150POPC   C2B16318   9.204  12.578  -4.488
10150POPC   C3B16319   9.195  12.610  -4.685
10150POPC   C4B16320   9.187  12.642  -4.882
10151POPC   NC316321  15.523  22.337   7.506
10151POPC   PO416322  15.606  22.516   7.475
10151POPC   GL116323  15.689  22.695   7.444
10151POPC   GL216324  15.764  22.651   7.393
10151POPC   C1A16325  15.773  22.874   7.413
10151POPC   D2A16326  15.856  23.053   7.381
10151POPC   C3A16327  15.940  23.232   7.350
10151POPC   C4A16328  16.023  23.411   7.319
10151POPC   C1B16329  15.878  22.855   7.582
10151POPC   C2B16330  15.961  23.034   7.551
10151POPC   C3B16331  16.044  23.213   7.519
10151POPC   C4B16332  16.128  23.392   7.488
10152POPC   NC316333   2.037  17.155  18.797
10152POPC   PO416334   1.924  17.253  18.929
10152POPC   GL116335   1.811  17.351  19.061
10152POPC   GL216336   1.893  17.386  19.106
10152POPC   C1A16337   1.697  17.450  19.193
10152POPC   D2A16338   1.584  17.548  19.326
10152POPC   C3A16339   1.470  17.647  19.458
10152POPC   C4A16340   1.357  17.745  19.590
10152POPC   C1B16341   1.699  17.290  19.314
10152POPC   C2B16342   1.585  17.388  19.446
10152POPC   C3B16343   1.472  17.487  19.578
10152POPC   C4B16344   1.359  17.585  19.710
10153POPC   NC316345  -0.038  19.191   6.828
10153POPC   PO416346  -0.170  19.334   6.781
10153POPC   GL116347  -0.302  19.477   6.734
10153POPC   GL216348  -0.301  19.509   6.829
10153POPC   C1A16349  -0.434  19.620   6.688
10153POPC   D2A16350  -0.567  19.762   6.641
10153POPC   C3A16351  -0.699  19.905   6.595
10153POPC   C4A16352  -0.831  20.048   6.548
10153POPC   C1B16353  -0.585  19.495   6.732
10153POPC   C2B16354  -0.717  19.638   6.685
10153POPC   C3B16355  -0.849  19.781   6.639
10153POPC   C4B16356  -0.981  19.923   6.592
10154POPC   NC316357  20.578  17.519   5.608
10154POPC   PO416358  20.735  17.630   5.553
10154POPC   GL116359  20.892  17.741   5.498
10154POPC   GL216360  20.877  17.715   5.402
10154POPC   C1A16361  21.049  17.851   5.443
10154POPC   D2A16362  21.207  17.962   5.387
10154POPC   C3A16363  21.364  18.072   5.332
10154POPC   C4A16364  21.521  18.183   5.277
10154POPC   C1B16365  21.169  17.693   5.466
10154POPC   C2B16366  21.326  17.803   5.410
10154POPC   C3B16367  21.484  17.914   5.355
10154POPC   C4B16368  21.641  18.024   5.300
10155POPC   NC316369  16.690  21.913  11.120
10155POPC   PO416370  16.783  22.090  11.127
10155POPC   GL116371  16.876  22.267  11.134
10155POPC   GL216372  16.933  22.234  11.210
10155POPC   C1A16373  16.970  22.444  11.141
10155POPC   D2A16374  17.063  22.620  11.147
10155POPC   C3A16375  17.157  22.797  11.154
10155POPC   C4A16376  17.250  22.974  11.161
10155POPC   C1B16377  16.833  22.511  11.270
10155POPC   C2B16378  16.927  22.687  11.277
10155POPC   C3B16379  17.020  22.864  11.284
10155POPC   C4B16380  17.113  23.041  11.291
10156POPC   NC316381  -1.102  12.990  17.899
10156POPC   PO416382  -1.260  13.025  18.017
10156POPC   GL116383  -1.418  13.060  18.135
10156POPC   GL216384  -1.356  13.076  18.212
10156POPC   C1A16385  -1.576  13.095  18.253
10156POPC   D2A16386  -1.733  13.130  18.370
10156POPC   C3A16387  -1.891  13.165  18.488
10156POPC   C4A16388  -2.049  13.200  18.606
10156POPC   C1B16389  -1.584  12.901  18.299
10156POPC   C2B16390  -1.742  12.936  18.417
10156POPC   C3B16391  -1.900  12.971  18.535
10156POPC   C4B16392  -2.058  13.006  18.652
10157POPC   NC316393  -2.030   6.706  16.434
10157POPC   PO416394  -2.201   6.666  16.529
10157POPC   GL116395  -2.372   6.626  16.624
10157POPC   GL216396  -2.330   6.651  16.711
10157POPC   C1A16397  -2.544   6.585  16.719
10157POPC   D2A16398  -2.715   6.545  16.813
10157POPC   C3A16399  -2.887   6.504  16.908
10157POPC   C4A16400  -3.058   6.464  17.003
10157POPC   C1B16401  -2.484   6.396  16.746
10157POPC   C2B16402  -2.656   6.356  16.840
10157POPC   C3B16403  -2.827   6.315  16.935
10157POPC   C4B16404  -2.998   6.275  17.030
10158POPC   NC316405   1.869   5.376  -0.372
10158POPC   PO416406   1.754   5.304  -0.519
10158POPC   GL116407   1.639   5.232  -0.666
10158POPC   GL216408   1.560   5.236  -0.606
10158POPC   C1A16409   1.525   5.160  -0.813
10158POPC   D2A16410   1.410   5.088  -0.961
10158POPC   C3A16411   1.296   5.016  -1.108
10158POPC   C4A16412   1.181   4.944  -1.255
10158POPC   C1B16413   1.562   4.974  -0.751
10158POPC   C2B16414   1.447   4.902  -0.898
10158POPC   C3B16415   1.332   4.830  -1.045
10158POPC   C4B16416   1.218   4.758  -1.192
10159POPC   NC316417  11.355   8.291  -3.769
10159POPC   PO416418  11.370   8.264  -3.967
10159POPC   GL116419  11.385   8.237  -4.165
10159POPC   GL216420  11.331   8.319  -4.180
10159POPC   C1A16421  11.400   8.210  -4.362
10159POPC   D2A16422  11.415   8.183  -4.560
10159POPC   C3A16423  11.430   8.156  -4.757
10159POPC   C4A16424  11.445   8.129  -4.955
10159POPC   C1B16425  11.233   8.100  -4.360
10159POPC   C2B16426  11.248   8.073  -4.558
10159POPC   C3B16427  11.263   8.046  -4.755
10159POPC   C4B16428  11.278   8.019  -4.953
10160POPC   NC316429  10.295  -3.513   6.638
10160POPC   PO416430  10.291  -3.708   6.593
10160POPC   GL116431  10.287  -3.903   6.548
10160POPC   GL216432  10.385  -3.901   6.531
10160POPC   C1A16433  10.283  -4.098   6.503
10160POPC   D2A16434  10.278  -4.292   6.458
10160POPC   C3A16435  10.274  -4.487   6.413
10160POPC   C4A16436  10.270  -4.682   6.368
10160POPC   C1B16437  10.249  -4.053   6.311
10160POPC   C2B16438  10.245  -4.247   6.266
10160POPC   C3B16439  10.241  -4.442   6.221
10160POPC   C4B16440  10.237  -4.637   6.176
10161POPC   NC316441  19.440   2.419  16.574
10161POPC   PO416442  19.570   2.307  16.677
10161POPC   GL116443  19.700   2.195  16.780
10161POPC   GL216444  19.775   2.255  16.751
10161POPC   C1A16445  19.830   2.083  16.883
10161POPC   D2A16446  19.960   1.972  16.985
10161POPC   C3A16447  20.090   1.860  17.088
10161POPC   C4A16448  20.220   1.748  17.191
10161POPC   C1B16449  19.860   1.969  16.721
10161POPC   C2B16450  19.990   1.858  16.824
10161POPC   C3B16451  20.120   1.746  16.927
10161POPC   C4B16452  20.250   1.634  17.029
10162POPC   NC316453  11.851  -3.732   8.901
10162POPC   PO416454  11.875  -3.930   8.890
10162POPC   GL116455  11.899  -4.128   8.879
10162POPC   GL216456  11.946  -4.127   8.967
10162POPC   C1A16457  11.922  -4.326   8.868
10162POPC   D2A16458  11.946  -4.525   8.857
10162POPC   C3A16459  11.969  -4.723   8.846
10162POPC   C4A16460  11.993  -4.921   8.835
10162POPC   C1B16461  12.097  -4.300   8.774
10162POPC   C2B16462  12.120  -4.499   8.763
10162POPC   C3B16463  12.144  -4.697   8.752
10162POPC   C4B16464  12.168  -4.895   8.741
10163POPC   NC316465   8.854   0.771  -0.389
10163POPC   PO416466   8.836   0.635  -0.534
10163POPC   GL116467   8.818   0.499  -0.679
10163POPC   GL216468   8.883   0.439  -0.632
10163POPC   C1A16469   8.800   0.363  -0.825
10163POPC   D2A16470   8.783   0.226  -0.970
10163POPC   C3A16471   8.765   0.090  -1.116
10163POPC   C4A16472   8.747  -0.046  -1.261
10163POPC   C1B16473   8.952   0.448  -0.923
10163POPC   C2B16474   8.934   0.312  -1.069
10163POPC   C3B16475   8.916   0.176  -1.214
10163POPC   C4B16476   8.899   0.039  -1.360
10164POPC   NC316477  11.765   9.197  -3.818
10164POPC   PO416478  11.789   9.184  -4.016
10164POPC   GL116479  11.813   9.171  -4.214
10164POPC   GL216480  11.826   9.270  -4.219
10164POPC   C1A16481  11.836   9.159  -4.412
10164POPC   D2A16482  11.860   9.146  -4.611
10164POPC   C3A16483  11.883   9.134  -4.809
10164POPC   C4A16484  11.907   9.121  -5.007
10164POPC   C1B16485  11.639   9.184  -4.437
10164POPC   C2B16486  11.663   9.172  -4.636
10164POPC   C3B16487  11.687   9.159  -4.834
10164POPC   C4B16488  11.710   9.146  -5.032
10165POPC   NC316489   7.871  -1.269  17.779
10165POPC   PO416490   7.844  -1.432  17.891
10165POPC   GL116491   7.817  -1.595  18.003
10165POPC   GL216492   7.909  -1.626  17.980
10165POPC   C1A16493   7.790  -1.759  18.115
10165POPC   D2A16494   7.762  -1.922  18.227
10165POPC   C3A16495   7.735  -2.086  18.339
10165POPC   C4A16496   7.708  -2.249  18.451
10165POPC   C1B16497   7.718  -1.856  17.956
10165POPC   C2B16498   7.691  -2.020  18.068
10165POPC   C3B16499   7.664  -2.183  18.180
10165POPC   C4B16500   7.637  -2.346  18.292
10166POPC   NC316501  22.995  13.184   6.694
10166POPC   PO416502  23.184  13.231   6.650
10166POPC   GL116503  23.373  13.278   6.606
10166POPC   GL216504  23.343  13.317   6.519
10166POPC   C1A16505  23.562  13.325   6.561
10166POPC   D2A16506  23.752  13.373   6.517
10166POPC   C3A16507  23.941  13.420   6.472
10166POPC   C4A16508  24.130  13.467   6.428
10166POPC   C1B16509  23.586  13.148   6.473
10166POPC   C2B16510  23.775  13.195   6.428
10166POPC   C3B16511  23.964  13.242   6.384
10166POPC   C4B16512  24.154  13.289   6.340
10167POPC   NC316513  23.114  11.601  13.490
10167POPC   PO416514  23.305  11.627  13.543
10167POPC   GL116515  23.496  11.653  13.596
10167POPC   GL216516  23.508  11.717  13.520
10167POPC   C1A16517  23.687  11.680  13.649
10167POPC   D2A16518  23.878  11.706  13.702
10167POPC   C3A16519  24.069  11.733  13.755
10167POPC   C4A16520  24.260  11.759  13.808
10167POPC   C1B16521  23.741  11.528  13.530
10167POPC   C2B16522  23.932  11.555  13.583
10167POPC   C3B16523  24.123  11.581  13.636
10167POPC   C4B16524  24.314  11.608  13.689
10168POPC   NC316525   1.211  11.603  20.596
10168POPC   PO416526   1.088  11.632  20.751
10168POPC   GL116527   0.965  11.661  20.906
10168POPC   GL216528   1.042  11.652  20.969
10168POPC   C1A16529   0.842  11.690  21.061
10168POPC   D2A16530   0.719  11.720  21.216
10168POPC   C3A16531   0.596  11.749  21.371
10168POPC   C4A16532   0.473  11.778  21.526
10168POPC   C1B16533   0.809  11.493  21.072
10168POPC   C2B16534   0.686  11.523  21.227
10168POPC   C3B16535   0.563  11.552  21.382
10168POPC   C4B16536   0.440  11.581  21.537
10169POPC   NC316537  15.341  22.376   7.272
10169POPC   PO416538  15.422  22.556   7.237
10169POPC   GL116539  15.503  22.736   7.202
10169POPC   GL216540  15.575  22.693   7.147
10169POPC   C1A16541  15.583  22.915   7.167
10169POPC   D2A16542  15.664  23.095   7.131
10169POPC   C3A16543  15.744  23.274   7.096
10169POPC   C4A16544  15.825  23.454   7.061
10169POPC   C1B16545  15.696  22.897   7.331
10169POPC   C2B16546  15.777  23.076   7.295
10169POPC   C3B16547  15.857  23.256   7.260
10169POPC   C4B16548  15.938  23.435   7.225
10170POPC   NC316549  15.695  22.210   7.261
10170POPC   PO416550  15.780  22.388   7.227
10170POPC   GL116551  15.865  22.566   7.193
10170POPC   GL216552  15.940  22.521   7.144
10170POPC   C1A16553  15.950  22.744   7.159
10170POPC   D2A16554  16.034  22.922   7.124
10170POPC   C3A16555  16.119  23.100   7.090
10170POPC   C4A16556  16.204  23.278   7.056
10170POPC   C1B16557  16.051  22.729   7.330
10170POPC   C2B16558  16.136  22.907   7.296
10170POPC   C3B16559  16.221  23.085   7.262
10170POPC   C4B16560  16.306  23.263   7.228
10171POPC   NC316561   5.017  22.525  13.246
10171POPC   PO416562   4.945  22.705  13.295
10171POPC   GL116563   4.873  22.885  13.344
10171POPC   GL216564   4.865  22.856  13.439
10171POPC   C1A16565   4.801  23.065  13.393
10171POPC   D2A16566   4.728  23.245  13.441
10171POPC   C3A16567   4.656  23.425  13.490
10171POPC   C4A16568   4.584  23.605  13.539
10171POPC   C1B16569   4.615  23.000  13.357
10171POPC   C2B16570   4.543  23.180  13.406
10171POPC   C3B16571   4.470  23.360  13.455
10171POPC   C4B16572   4.398  23.540  13.503
10172POPC   NC316573   7.937   8.782  -3.716
10172POPC   PO416574   7.911   8.763  -3.913
10172POPC   GL116575   7.885   8.744  -4.110
10172POPC   GL216576   7.793   8.706  -4.095
10172POPC   C1A16577   7.858   8.725  -4.308
10172POPC   D2A16578   7.832   8.705  -4.505
10172POPC   C3A16579   7.805   8.686  -4.703
10172POPC   C4A16580   7.779   8.667  -4.900
10172POPC   C1B16581   7.936   8.540  -4.300
10172POPC   C2B16582   7.910   8.521  -4.498
10172POPC   C3B16583   7.883   8.502  -4.695
10172POPC   C4B16584   7.857   8.483  -4.892
10173POPC   NC316585  14.900  16.086  -1.440
10173POPC   PO416586  14.972  16.174  -1.605
10173POPC   GL116587  15.044  16.262  -1.770
10173POPC   GL216588  15.057  16.173  -1.812
10173POPC   C1A16589  15.116  16.350  -1.934
10173POPC   D2A16590  15.187  16.439  -2.099
10173POPC   C3A16591  15.259  16.527  -2.263
10173POPC   C4A16592  15.331  16.615  -2.428
10173POPC   C1B16593  15.300  16.342  -1.858
10173POPC   C2B16594  15.372  16.430  -2.023
10173POPC   C3B16595  15.444  16.518  -2.187
10173POPC   C4B16596  15.516  16.606  -2.352
10174POPC   NC316597  19.260   0.079   7.521
10174POPC   PO416598  19.396  -0.063   7.486
10174POPC   GL116599  19.532  -0.205   7.451
10174POPC   GL216600  19.539  -0.175   7.356
10174POPC   C1A16601  19.669  -0.347   7.416
10174POPC   D2A16602  19.805  -0.489   7.380
10174POPC   C3A16603  19.942  -0.631   7.345
10174POPC   C4A16604  20.078  -0.773   7.310
10174POPC   C1B16605  19.523  -0.475   7.365
10174POPC   C2B16606  19.660  -0.617   7.330
10174POPC   C3B16607  19.796  -0.759   7.295
10174POPC   C4B16608  19.932  -0.901   7.260
10175POPC   NC316609  18.786  -0.042  13.346
10175POPC   PO416610  18.913  -0.188  13.396
10175POPC   GL116611  19.040  -0.334  13.446
10175POPC   GL216612  19.105  -0.266  13.481
10175POPC   C1A16613  19.167  -0.480  13.496
10175POPC   D2A16614  19.295  -0.627  13.546
10175POPC   C3A16615  19.422  -0.773  13.596
10175POPC   C4A16616  19.549  -0.919  13.646
10175POPC   C1B16617  19.252  -0.469  13.315
10175POPC   C2B16618  19.379  -0.615  13.365
10175POPC   C3B16619  19.507  -0.761  13.415
10175POPC   C4B16620  19.634  -0.907  13.465
10176POPC   NC316621  19.144  19.852  12.556
10176POPC   PO416622  19.280  19.990  12.604
10176POPC   GL116623  19.416  20.128  12.652
10176POPC   GL216624  19.469  20.059  12.702
10176POPC   C1A16625  19.553  20.266  12.700
10176POPC   D2A16626  19.689  20.405  12.748
10176POPC   C3A16627  19.826  20.543  12.796
10176POPC   C4A16628  19.962  20.681  12.844
10176POPC   C1B16629  19.451  20.309  12.866
10176POPC   C2B16630  19.587  20.448  12.914
10176POPC   C3B16631  19.723  20.586  12.962
10176POPC   C4B16632  19.860  20.724  13.010
10177POPC   NC316633  12.213   9.202  -3.756
10177POPC   PO416634  12.245   9.189  -3.953
10177POPC   GL116635  12.277   9.176  -4.150
10177POPC   GL216636  12.266   9.275  -4.158
10177POPC   C1A16637  12.309   9.163  -4.347
10177POPC   D2A16638  12.341   9.151  -4.544
10177POPC   C3A16639  12.373   9.138  -4.741
10177POPC   C4A16640  12.405   9.125  -4.938
10177POPC   C1B16641  12.113   9.139  -4.377
10177POPC   C2B16642  12.145   9.126  -4.574
10177POPC   C3B16643  12.177   9.113  -4.771
10177POPC   C4B16644  12.209   9.101  -4.968
10178POPC   NC316645  11.515  22.311  16.062
10178POPC   PO416646  11.543  22.488  16.152
10178POPC   GL116647  11.571  22.665  16.242
10178POPC   GL216648  11.664  22.669  16.204
10178POPC   C1A16649  11.600  22.841  16.331
10178POPC   D2A16650  11.628  23.018  16.421
10178POPC   C3A16651  11.657  23.194  16.510
10178POPC   C4A16652  11.685  23.371  16.600
10178POPC   C1B16653  11.671  22.748  16.493
10178POPC   C2B16654  11.699  22.924  16.583
10178POPC   C3B16655  11.728  23.101  16.672
10178POPC   C4B16656  11.756  23.277  16.762
10179POPC   NC316657  -3.174   6.058   7.461
10179POPC   PO416658  -3.360   5.989   7.433
10179POPC   GL116659  -3.546   5.920   7.405
10179POPC   GL216660  -3.535   5.859   7.484
10179POPC   C1A16661  -3.731   5.850   7.378
10179POPC   D2A16662  -3.917   5.781   7.350
10179POPC   C3A16663  -4.102   5.711   7.323
10179POPC   C4A16664  -4.288   5.642   7.295
10179POPC   C1B16665  -3.660   5.707   7.258
10179POPC   C2B16666  -3.845   5.638   7.230
10179POPC   C3B16667  -4.031   5.568   7.203
10179POPC   C4B16668  -4.217   5.499   7.175
10180POPC   NC316669   5.887  22.859  13.149
10180POPC   PO416670   5.826  23.043  13.199
10180POPC   GL116671   5.765  23.227  13.249
10180POPC   GL216672   5.844  23.266  13.202
10180POPC   C1A16673   5.705  23.411  13.300
10180POPC   D2A16674   5.644  23.594  13.350
10180POPC   C3A16675   5.584  23.778  13.401
10180POPC   C4A16676   5.523  23.962  13.451
10180POPC   C1B16677   5.812  23.400  13.468
10180POPC   C2B16678   5.751  23.583  13.519
10180POPC   C3B16679   5.691  23.767  13.569
10180POPC   C4B16680   5.630  23.951  13.620
10181POPC   NC316681  12.976  -2.296   4.251
10181POPC   PO416682  13.027  -2.471   4.169
10181POPC   GL116683  13.078  -2.646   4.087
10181POPC   GL216684  13.112  -2.598   4.006
10181POPC   C1A16685  13.129  -2.821   4.005
10181POPC   D2A16686  13.179  -2.997   3.922
10181POPC   C3A16687  13.230  -3.172   3.840
10181POPC   C4A16688  13.281  -3.347   3.758
10181POPC   C1B16689  12.947  -2.835   3.921
10181POPC   C2B16690  12.998  -3.010   3.839
10181POPC   C3B16691  13.049  -3.185   3.757
10181POPC   C4B16692  13.100  -3.360   3.675
10182POPC   NC316693  -2.390  15.489  13.446
10182POPC   PO416694  -2.567  15.568  13.495
10182POPC   GL116695  -2.744  15.647  13.544
10182POPC   GL216696  -2.720  15.641  13.640
10182POPC   C1A16697  -2.921  15.727  13.592
10182POPC   D2A16698  -3.098  15.806  13.641
10182POPC   C3A16699  -3.275  15.886  13.689
10182POPC   C4A16700  -3.452  15.965  13.738
10182POPC   C1B16701  -3.001  15.544  13.599
10182POPC   C2B16702  -3.178  15.623  13.648
10182POPC   C3B16703  -3.355  15.702  13.697
10182POPC   C4B16704  -3.532  15.782  13.745
10183POPC   NC316705  10.634  21.765  17.240
10183POPC   PO416706  10.652  21.932  17.348
10183POPC   GL116707  10.670  22.099  17.456
10183POPC   GL216708  10.733  22.136  17.388
10183POPC   C1A16709  10.688  22.266  17.564
10183POPC   D2A16710  10.706  22.434  17.673
10183POPC   C3A16711  10.724  22.601  17.781
10183POPC   C4A16712  10.742  22.768  17.889
10183POPC   C1B16713  10.842  22.186  17.663
10183POPC   C2B16714  10.860  22.353  17.772
10183POPC   C3B16715  10.878  22.520  17.880
10183POPC   C4B16716  10.896  22.687  17.988
10184POPC   NC316717  16.231  -1.214  15.081
10184POPC   PO416718  16.324  -1.377  15.151
10184POPC   GL116719  16.417  -1.540  15.221
10184POPC   GL216720  16.421  -1.577  15.128
10184POPC   C1A16721  16.510  -1.702  15.291
10184POPC   D2A16722  16.604  -1.865  15.361
10184POPC   C3A16723  16.697  -2.027  15.431
10184POPC   C4A16724  16.790  -2.190  15.501
10184POPC   C1B16725  16.334  -1.791  15.320
10184POPC   C2B16726  16.427  -1.954  15.390
10184POPC   C3B16727  16.520  -2.116  15.460
10184POPC   C4B16728  16.613  -2.279  15.530
10185POPC   NC316729  -1.213   1.783  11.578
10185POPC   PO416730  -1.374   1.667  11.603
10185POPC   GL116731  -1.535   1.551  11.628
10185POPC   GL216732  -1.495   1.515  11.713
10185POPC   C1A16733  -1.696   1.435  11.653
10185POPC   D2A16734  -1.856   1.318  11.679
10185POPC   C3A16735  -2.017   1.202  11.704
10185POPC   C4A16736  -2.178   1.086  11.729
10185POPC   C1B16737  -1.606   1.289  11.550
10185POPC   C2B16738  -1.767   1.173  11.575
10185POPC   C3B16739  -1.928   1.056  11.600
10185POPC   C4B16740  -2.089   0.940  11.625
10186POPC   NC316741   3.010   8.283  21.926
10186POPC   PO416742   2.908   8.250  22.095
10186POPC   GL116743   2.806   8.217  22.264
10186POPC   GL216744   2.816   8.118  22.250
10186POPC   C1A16745   2.703   8.184  22.432
10186POPC   D2A16746   2.601   8.150  22.601
10186POPC   C3A16747   2.498   8.117  22.769
10186POPC   C4A16748   2.396   8.084  22.938
10186POPC   C1B16749   2.533   8.180  22.328
10186POPC   C2B16750   2.430   8.147  22.496
10186POPC   C3B16751   2.328   8.114  22.665
10186POPC   C4B16752   2.225   8.081  22.834
10187POPC   NC316753   8.061  -0.547   1.126
10187POPC   PO416754   8.034  -0.700   1.000
10187POPC   GL116755   8.007  -0.853   0.874
10187POPC   GL216756   8.101  -0.844   0.842
10187POPC   C1A16757   7.980  -1.006   0.748
10187POPC   D2A16758   7.952  -1.158   0.621
10187POPC   C3A16759   7.925  -1.311   0.495
10187POPC   C4A16760   7.898  -1.464   0.369
10187POPC   C1B16761   7.920  -0.878   0.606
10187POPC   C2B16762   7.893  -1.031   0.480
10187POPC   C3B16763   7.865  -1.183   0.354
10187POPC   C4B16764   7.838  -1.336   0.227
10188POPC   NC316765  -1.303   3.001   5.681
10188POPC   PO416766  -1.466   2.898   5.626
10188POPC   GL116767  -1.629   2.795   5.571
10188POPC   GL216768  -1.653   2.783   5.667
10188POPC   C1A16769  -1.791   2.693   5.516
10188POPC   D2A16770  -1.954   2.590   5.460
10188POPC   C3A16771  -2.116   2.488   5.405
10188POPC   C4A16772  -2.279   2.385   5.350
10188POPC   C1B16773  -1.686   2.523   5.520
10188POPC   C2B16774  -1.848   2.420   5.465
10188POPC   C3B16775  -2.011   2.318   5.410
10188POPC   C4B16776  -2.173   2.215   5.355
10189POPC   NC316777  23.354  13.083   8.980
10189POPC   PO416778  23.549  13.126   8.968
10189POPC   GL116779  23.744  13.169   8.956
10189POPC   GL216780  23.747  13.130   8.864
10189POPC   C1A16781  23.939  13.213   8.944
10189POPC   D2A16782  24.133  13.256   8.931
10189POPC   C3A16783  24.328  13.300   8.919
10189POPC   C4A16784  24.523  13.343   8.907
10189POPC   C1B16785  23.983  13.034   9.021
10189POPC   C2B16786  24.178  13.077   9.009
10189POPC   C3B16787  24.373  13.121   8.997
10189POPC   C4B16788  24.568  13.164   8.984
10190POPC   NC316789  20.394   7.671  18.550
10190POPC   PO416790  20.549   7.635  18.672
10190POPC   GL116791  20.704   7.599  18.794
10190POPC   GL216792  20.696   7.501  18.773
10190POPC   C1A16793  20.858   7.562  18.915
10190POPC   D2A16794  21.013   7.526  19.037
10190POPC   C3A16795  21.167   7.489  19.158
10190POPC   C4A16796  21.322   7.453  19.280
10190POPC   C1B16797  20.732   7.540  19.069
10190POPC   C2B16798  20.887   7.503  19.190
10190POPC   C3B16799  21.041   7.467  19.312
10190POPC   C4B16800  21.196   7.431  19.434
10191POPC   NC316801   9.263  -3.193   5.680
10191POPC   PO416802   9.250  -3.382   5.616
10191POPC   GL116803   9.237  -3.571   5.552
10191POPC   GL216804   9.336  -3.579   5.556
10191POPC   C1A16805   9.224  -3.760   5.489
10191POPC   D2A16806   9.210  -3.950   5.425
10191POPC   C3A16807   9.197  -4.139   5.362
10191POPC   C4A16808   9.184  -4.328   5.298
10191POPC   C1B16809   9.237  -3.698   5.299
10191POPC   C2B16810   9.223  -3.887   5.236
10191POPC   C3B16811   9.210  -4.076   5.172
10191POPC   C4B16812   9.197  -4.265   5.109
10192POPC   NC316813  -0.412   9.426   0.753
10192POPC   PO416814  -0.561   9.418   0.619
10192POPC   GL116815  -0.710   9.410   0.485
10192POPC   GL216816  -0.760   9.480   0.537
10192POPC   C1A16817  -0.858   9.403   0.352
10192POPC   D2A16818  -1.007   9.395   0.218
10192POPC   C3A16819  -1.155   9.388   0.085
10192POPC   C4A16820  -1.304   9.380  -0.049
10192POPC   C1B16821  -0.947   9.259   0.459
10192POPC   C2B16822  -1.096   9.252   0.325
10192POPC   C3B16823  -1.244   9.244   0.192
10192POPC   C4B16824  -1.393   9.236   0.058
10193POPC   NC316825   4.346   3.934  -1.243
10193POPC   PO416826   4.260   3.840  -1.397
10193POPC   GL116827   4.174   3.746  -1.551
10193POPC   GL216828   4.089   3.737  -1.498
10193POPC   C1A16829   4.088   3.652  -1.705
10193POPC   D2A16830   4.002   3.557  -1.859
10193POPC   C3A16831   3.916   3.463  -2.013
10193POPC   C4A16832   3.830   3.369  -2.167
10193POPC   C1B16833   4.151   3.476  -1.633
10193POPC   C2B16834   4.065   3.382  -1.787
10193POPC   C3B16835   3.979   3.288  -1.941
10193POPC   C4B16836   3.893   3.193  -2.095
10194POPC   NC316837   9.930   0.760  20.243
10194POPC   PO416838   9.940   0.622  20.388
10194POPC   GL116839   9.950   0.484  20.533
10194POPC   GL216840   9.960   0.557  20.601
10194POPC   C1A16841   9.960   0.346  20.677
10194POPC   D2A16842   9.970   0.209  20.822
10194POPC   C3A16843   9.980   0.071  20.966
10194POPC   C4A16844   9.990  -0.067  21.111
10194POPC   C1B16845  10.159   0.339  20.656
10194POPC   C2B16846  10.169   0.201  20.801
10194POPC   C3B16847  10.179   0.063  20.945
10194POPC   C4B16848  10.189  -0.075  21.090
10195POPC   NC316849   4.622   5.574  22.008
10195POPC   PO416850   4.543   5.512  22.181
10195POPC   GL116851   4.464   5.450  22.354
10195POPC   GL216852   4.459   5.545  22.386
10195POPC   C1A16853   4.384   5.389  22.527
10195POPC   D2A16854   4.305   5.327  22.700
10195POPC   C3A16855   4.225   5.266  22.873
10195POPC   C4A16856   4.146   5.204  23.046
10195POPC   C1B16857   4.568   5.372  22.605
10195POPC   C2B16858   4.488   5.310  22.778
10195POPC   C3B16859   4.409   5.249  22.951
10195POPC   C4B16860   4.329   5.187  23.124
10196POPC   NC316861   7.755  11.575  23.416
10196POPC   PO416862   7.717  11.596  23.611
10196POPC   GL116863   7.679  11.617  23.806
10196POPC   GL216864   7.753  11.553  23.828
10196POPC   C1A16865   7.640  11.638  24.001
10196POPC   D2A16866   7.602  11.660  24.197
10196POPC   C3A16867   7.563  11.681  24.392
10196POPC   C4A16868   7.525  11.702  24.587
10196POPC   C1B16869   7.511  11.486  23.993
10196POPC   C2B16870   7.473  11.507  24.188
10196POPC   C3B16871   7.435  11.528  24.383
10196POPC   C4B16872   7.396  11.549  24.578
10197POPC   NC316873  -3.692   7.175   9.146
10197POPC   PO416874  -3.885   7.123   9.139
10197POPC   GL116875  -4.078   7.071   9.132
10197POPC   GL216876  -4.061   6.999   9.199
10197POPC   C1A16877  -4.271   7.020   9.125
10197POPC   D2A16878  -4.465   6.968   9.117
10197POPC   C3A16879  -4.658   6.917   9.110
10197POPC   C4A16880  -4.851   6.865   9.103
10197POPC   C1B16881  -4.232   6.891   8.976
10197POPC   C2B16882  -4.425   6.840   8.969
10197POPC   C3B16883  -4.618   6.788   8.962
10197POPC   C4B16884  -4.811   6.737   8.955
10198POPC   NC316885   6.198  14.352  -2.719
10198POPC   PO416886   6.144  14.418  -2.900
10198POPC   GL116887   6.090  14.484  -3.081
10198POPC   GL216888   6.028  14.550  -3.038
10198POPC   C1A16889   6.035  14.550  -3.262
10198POPC   D2A16890   5.981  14.615  -3.442
10198POPC   C3A16891   5.926  14.681  -3.623
10198POPC   C4A16892   5.872  14.747  -3.804
10198POPC   C1B16893   5.888  14.415  -3.266
10198POPC   C2B16894   5.833  14.481  -3.447
10198POPC   C3B16895   5.779  14.546  -3.628
10198POPC   C4B16896   5.724  14.612  -3.809
10199POPC   NC316897   8.257  10.964  -3.791
10199POPC   PO416898   8.234  10.976  -3.989
10199POPC   GL116899   8.211  10.988  -4.187
10199POPC   GL216900   8.146  11.063  -4.176
10199POPC   C1A16901   8.188  10.999  -4.386
10199POPC   D2A16902   8.166  11.011  -4.584
10199POPC   C3A16903   8.143  11.022  -4.783
10199POPC   C4A16904   8.120  11.034  -4.981
10199POPC   C1B16905   8.038  10.868  -4.376
10199POPC   C2B16906   8.015  10.880  -4.575
10199POPC   C3B16907   7.992  10.891  -4.773
10199POPC   C4B16908   7.969  10.903  -4.971
10200POPC   NC316909  14.513  22.844  12.120
10200POPC   PO416910  14.586  23.028  12.149
10200POPC   GL116911  14.659  23.212  12.178
10200POPC   GL216912  14.711  23.178  12.257
10200POPC   C1A16913  14.732  23.396  12.207
10200POPC   D2A16914  14.806  23.579  12.237
10200POPC   C3A16915  14.879  23.763  12.266
10200POPC   C4A16916  14.952  23.947  12.295
10200POPC   C1B16917  14.578  23.438  12.328
10200POPC   C2B16918  14.652  23.622  12.357
10200POPC   C3B16919  14.725  23.805  12.386
10200POPC   C4B16920  14.798  23.989  12.415
10201POPC   NC316921   8.931  19.041  20.349
10201POPC   PO416922   8.912  19.175  20.496
10201POPC   GL116923   8.893  19.309  20.643
10201POPC   GL216924   8.945  19.376  20.589
10201POPC   C1A16925   8.873  19.443  20.790
10201POPC   D2A16926   8.854  19.578  20.937
10201POPC   C3A16927   8.834  19.712  21.084
10201POPC   C4A16928   8.815  19.846  21.231
10201POPC   C1B16929   9.043  19.377  20.873
10201POPC   C2B16930   9.023  19.511  21.020
10201POPC   C3B16931   9.004  19.645  21.167
10201POPC   C4B16932   8.984  19.780  21.314
10202POPC   NC316933  16.107   0.292  17.604
10202POPC   PO416934  16.199   0.156  17.718
10202POPC   GL116935  16.291   0.020  17.832
10202POPC   GL216936  16.310  -0.035  17.751
10202POPC   C1A16937  16.384  -0.116  17.946
10202POPC   D2A16938  16.476  -0.251  18.060
10202POPC   C3A16939  16.569  -0.387  18.174
10202POPC   C4A16940  16.661  -0.523  18.288
10202POPC   C1B16941  16.211  -0.212  17.971
10202POPC   C2B16942  16.303  -0.348  18.085
10202POPC   C3B16943  16.395  -0.484  18.199
10202POPC   C4B16944  16.488  -0.620  18.313
10203POPC   NC316945  17.431  -1.610   9.448
10203POPC   PO416946  17.537  -1.779   9.442
10203POPC   GL116947  17.643  -1.948   9.436
10203POPC   GL216948  17.724  -1.896   9.409
10203POPC   C1A16949  17.750  -2.117   9.431
10203POPC   D2A16950  17.856  -2.287   9.425
10203POPC   C3A16951  17.963  -2.456   9.420
10203POPC   C4A16952  18.069  -2.625   9.414
10203POPC   C1B16953  17.701  -2.142   9.238
10203POPC   C2B16954  17.807  -2.311   9.233
10203POPC   C3B16955  17.914  -2.480   9.227
10203POPC   C4B16956  18.020  -2.649   9.222
10204POPC   NC316957  18.244  -0.357  13.715
10204POPC   PO416958  18.363  -0.508  13.771
10204POPC   GL116959  18.482  -0.659  13.827
10204POPC   GL216960  18.535  -0.648  13.743
10204POPC   C1A16961  18.601  -0.810  13.882
10204POPC   D2A16962  18.719  -0.961  13.938
10204POPC   C3A16963  18.838  -1.112  13.993
10204POPC   C4A16964  18.957  -1.263  14.049
10204POPC   C1B16965  18.480  -0.939  13.789
10204POPC   C2B16966  18.599  -1.090  13.845
10204POPC   C3B16967  18.717  -1.241  13.900
10204POPC   C4B16968  18.836  -1.392  13.956
10205POPC   NC316969  15.031  -1.986   5.408
10205POPC   PO416970  15.107  -2.159   5.343
10205POPC   GL116971  15.183  -2.332   5.278
10205POPC   GL216972  15.270  -2.310   5.322
10205POPC   C1A16973  15.259  -2.505   5.213
10205POPC   D2A16974  15.336  -2.679   5.149
10205POPC   C3A16975  15.412  -2.852   5.084
10205POPC   C4A16976  15.488  -3.025   5.019
10205POPC   C1B16977  15.321  -2.415   5.046
10205POPC   C2B16978  15.398  -2.589   4.981
10205POPC   C3B16979  15.474  -2.762   4.916
10205POPC   C4B16980  15.550  -2.935   4.851
10206POPC   NC316981  -1.651   5.257   3.645
10206POPC   PO416982  -1.818   5.191   3.558
10206POPC   GL116983  -1.985   5.125   3.471
10206POPC   GL216984  -2.039   5.192   3.522
10206POPC   C1A16985  -2.153   5.059   3.384
10206POPC   D2A16986  -2.320   4.994   3.296
10206POPC   C3A16987  -2.488   4.928   3.209
10206POPC   C4A16988  -2.655   4.862   3.122
10206POPC   C1B16989  -2.177   4.927   3.531
10206POPC   C2B16990  -2.345   4.861   3.444
10206POPC   C3B16991  -2.512   4.795   3.357
10206POPC   C4B16992  -2.680   4.729   3.269
10207POPC   NC316993   7.386   4.274  -2.485
10207POPC   PO416994   7.358   4.196  -2.667
10207POPC   GL116995   7.330   4.118  -2.849
10207POPC   GL216996   7.377   4.034  -2.820
10207POPC   C1A16997   7.301   4.040  -3.031
10207POPC   D2A16998   7.273   3.962  -3.213
10207POPC   C3A16999   7.244   3.884  -3.395
10207POPC   C4A17000   7.216   3.806  -3.577
10207POPC   C1B17001   7.475   4.118  -3.091
10207POPC   C2B17002   7.447   4.040  -3.273
10207POPC   C3B17003   7.419   3.962  -3.455
10207POPC   C4B17004   7.390   3.884  -3.637
10208POPC   NC317005  20.291  17.615  14.832
10208POPC   PO417006  20.435  17.735  14.902
10208POPC   GL117007  20.579  17.855  14.972
10208POPC   GL217008  20.572  17.911  14.890
10208POPC   C1A17009  20.723  17.974  15.042
10208POPC   D2A17010  20.868  18.094  15.113
10208POPC   C3A17011  21.012  18.213  15.183
10208POPC   C4A17012  21.156  18.333  15.253
10208POPC   C1B17013  20.861  17.861  14.952
10208POPC   C2B17014  21.005  17.981  15.022
10208POPC   C3B17015  21.150  18.100  15.092
10208POPC   C4B17016  21.294  18.220  15.163
10209POPC   NC317017  23.248   8.375   6.962
10209POPC   PO417018  23.443   8.353   6.922
10209POPC   GL117019  23.638   8.331   6.882
10209POPC   GL217020  23.623   8.373   6.792
10209POPC   C1A17021  23.832   8.310   6.841
10209POPC   D2A17022  24.027   8.288   6.801
10209POPC   C3A17023  24.221   8.267   6.760
10209POPC   C4A17024  24.416   8.245   6.720
10209POPC   C1B17025  23.796   8.129   6.764
10209POPC   C2B17026  23.991   8.107   6.723
10209POPC   C3B17027  24.185   8.086   6.683
10209POPC   C4B17028  24.380   8.064   6.643
10210POPC   NC317029  15.964  17.917   0.313
10210POPC   PO417030  16.056  18.029   0.175
10210POPC   GL117031  16.148  18.141   0.037
10210POPC   GL217032  16.231  18.087   0.049
10210POPC   C1A17033  16.240  18.253  -0.100
10210POPC   D2A17034  16.331  18.366  -0.238
10210POPC   C3A17035  16.423  18.478  -0.375
10210POPC   C4A17036  16.515  18.590  -0.513
10210POPC   C1B17037  16.300  18.379   0.043
10210POPC   C2B17038  16.392  18.492  -0.095
10210POPC   C3B17039  16.484  18.604  -0.232
10210POPC   C4B17040  16.575  18.716  -0.370
10211POPC   NC317041   1.729  13.741  20.400
10211POPC   PO417042   1.612  13.797  20.552
10211POPC   GL117043   1.495  13.853  20.704
10211POPC   GL217044   1.575  13.853  20.765
10211POPC   C1A17045   1.378  13.909  20.857
10211POPC   D2A17046   1.262  13.964  21.009
10211POPC   C3A17047   1.145  14.020  21.162
10211POPC   C4A17048   1.028  14.076  21.314
10211POPC   C1B17049   1.345  13.717  20.902
10211POPC   C2B17050   1.229  13.772  21.054
10211POPC   C3B17051   1.112  13.828  21.207
10211POPC   C4B17052   0.995  13.884  21.359
10212POPC   NC317053  10.256  -3.606  12.531
10212POPC   PO417054  10.263  -3.803  12.563
10212POPC   GL117055  10.270  -4.000  12.595
10212POPC   GL217056  10.319  -4.013  12.509
10212POPC   C1A17057  10.277  -4.197  12.627
10212POPC   D2A17058  10.285  -4.395  12.660
10212POPC   C3A17059  10.292  -4.592  12.692
10212POPC   C4A17060  10.299  -4.789  12.724
10212POPC   C1B17061  10.103  -4.219  12.532
10212POPC   C2B17062  10.110  -4.417  12.564
10212POPC   C3B17063  10.117  -4.614  12.596
10212POPC   C4B17064  10.125  -4.811  12.628
10213POPC   NC317065  22.662  14.236   6.689
10213POPC   PO417066  22.845  14.306   6.648
10213POPC   GL117067  23.028  14.376   6.607
10213POPC   GL217068  23.003  14.385   6.511
10213POPC   C1A17069  23.211  14.445   6.567
10213POPC   D2A17070  23.394  14.515   6.526
10213POPC   C3A17071  23.577  14.584   6.486
10213POPC   C4A17072  23.760  14.654   6.445
10213POPC   C1B17073  23.274  14.259   6.532
10213POPC   C2B17074  23.457  14.328   6.491
10213POPC   C3B17075  23.640  14.398   6.451
10213POPC   C4B17076  23.823  14.468   6.410
10214POPC   NC317077  15.986  20.288   3.048
10214POPC   PO417078  16.079  20.433   2.946
10214POPC   GL117079  16.172  20.578   2.844
10214POPC   GL217080  16.121  20.553   2.762
10214POPC   C1A17081  16.264  20.723   2.742
10214POPC   D2A17082  16.357  20.869   2.641
10214POPC   C3A17083  16.449  21.014   2.539
10214POPC   C4A17084  16.542  21.159   2.437
10214POPC   C1B17085  16.409  20.595   2.692
10214POPC   C2B17086  16.502  20.741   2.590
10214POPC   C3B17087  16.595  20.886   2.488
10214POPC   C4B17088  16.687  21.031   2.387
10215POPC   NC317089   6.890  22.322   4.276
10215POPC   PO417090   6.850  22.497   4.188
10215POPC   GL117091   6.810  22.672   4.100
10215POPC   GL217092   6.880  22.654   4.031
10215POPC   C1A17093   6.770  22.848   4.013
10215POPC   D2A17094   6.731  23.023   3.925
10215POPC   C3A17095   6.691  23.199   3.838
10215POPC   C4A17096   6.651  23.374   3.750
10215POPC   C1B17097   6.908  22.937   4.128
10215POPC   C2B17098   6.868  23.112   4.040
10215POPC   C3B17099   6.828  23.287   3.953
10215POPC   C4B17100   6.788  23.463   3.865
10216POPC   NC317101  16.019  21.836   6.315
10216POPC   PO417102  16.104  22.011   6.268
10216POPC   GL117103  16.189  22.186   6.221
10216POPC   GL217104  16.261  22.137   6.171
10216POPC   C1A17105  16.274  22.361   6.174
10216POPC   D2A17106  16.360  22.535   6.127
10216POPC   C3A17107  16.445  22.710   6.080
10216POPC   C4A17108  16.530  22.885   6.033
10216POPC   C1B17109  16.385  22.351   6.340
10216POPC   C2B17110  16.470  22.526   6.293
10216POPC   C3B17111  16.556  22.701   6.246
10216POPC   C4B17112  16.641  22.876   6.199
10217POPC   NC317113  21.101   1.971   8.944
10217POPC   PO417114  21.264   1.857   8.927
10217POPC   GL117115  21.427   1.743   8.910
10217POPC   GL217116  21.406   1.726   8.814
10217POPC   C1A17117  21.591   1.629   8.893
10217POPC   D2A17118  21.754   1.515   8.875
10217POPC   C3A17119  21.918   1.401   8.858
10217POPC   C4A17120  22.081   1.287   8.841
10217POPC   C1B17121  21.484   1.468   8.945
10217POPC   C2B17122  21.648   1.354   8.928
10217POPC   C3B17123  21.811   1.240   8.911
10217POPC   C4B17124  21.974   1.126   8.894
10218POPC   NC317125   3.789  -1.272  15.325
10218POPC   PO417126   3.703  -1.435  15.403
10218POPC   GL117127   3.617  -1.598  15.481
10218POPC   GL217128   3.700  -1.616  15.535
10218POPC   C1A17129   3.531  -1.761  15.559
10218POPC   D2A17130   3.446  -1.923  15.638
10218POPC   C3A17131   3.360  -2.086  15.716
10218POPC   C4A17132   3.274  -2.249  15.794
10218POPC   C1B17133   3.605  -1.871  15.410
10218POPC   C2B17134   3.519  -2.034  15.488
10218POPC   C3B17135   3.433  -2.197  15.566
10218POPC   C4B17136   3.347  -2.359  15.644
10219POPC   NC317137  23.604  11.078   9.629
10219POPC   PO417138  23.804  11.089   9.628
10219POPC   GL117139  24.004  11.100   9.627
10219POPC   GL217140  24.009  11.000   9.622
10219POPC   C1A17141  24.204  11.110   9.626
10219POPC   D2A17142  24.403  11.121   9.625
10219POPC   C3A17143  24.603  11.131   9.624
10219POPC   C4A17144  24.803  11.142   9.623
10219POPC   C1B17145  24.205  11.100   9.826
10219POPC   C2B17146  24.405  11.110   9.825
10219POPC   C3B17147  24.605  11.121   9.824
10219POPC   C4B17148  24.805  11.131   9.823
10220POPC   NC317149  22.778   4.991  10.637
10220POPC   PO417150  22.964   4.920  10.650
10220POPC   GL117151  23.150   4.849  10.663
10220POPC   GL217152  23.182   4.921  10.601
10220POPC   C1A17153  23.337   4.777  10.676
10220POPC   D2A17154  23.523   4.706  10.689
10220POPC   C3A17155  23.710   4.634  10.702
10220POPC   C4A17156  23.896   4.563  10.715
10220POPC   C1B17157  23.302   4.658  10.519
10220POPC   C2B17158  23.489   4.587  10.532
10220POPC   C3B17159  23.675   4.516  10.545
10220POPC   C4B17160  23.861   4.444  10.558
10221POPC   NC317161  17.560   5.627  -0.698
10221POPC   PO417162  17.671   5.563  -0.851
10221POPC   GL117163  17.782   5.499  -1.004
10221POPC   GL217164  17.799   5.593  -1.032
10221POPC   C1A17165  17.894   5.434  -1.157
10221POPC   D2A17166  18.005   5.370  -1.310
10221POPC   C3A17167  18.117   5.305  -1.463
10221POPC   C4A17168  18.228   5.241  -1.616
10221POPC   C1B17169  17.731   5.429  -1.273
10221POPC   C2B17170  17.843   5.365  -1.426
10221POPC   C3B17171  17.954   5.301  -1.579
10221POPC   C4B17172  18.065   5.236  -1.732
10222POPC   NC317173  15.152  22.721   9.696
10222POPC   PO417174  15.234  22.903   9.691
10222POPC   GL117175  15.316  23.085   9.686
10222POPC   GL217176  15.385  23.052   9.622
10222POPC   C1A17177  15.399  23.267   9.681
10222POPC   D2A17178  15.481  23.450   9.677
10222POPC   C3A17179  15.564  23.632   9.672
10222POPC   C4A17180  15.646  23.814   9.667
10222POPC   C1B17181  15.518  23.218   9.834
10222POPC   C2B17182  15.600  23.400   9.829
10222POPC   C3B17183  15.683  23.582   9.824
10222POPC   C4B17184  15.765  23.764   9.820
10223POPC   NC317185   7.846  -1.541  17.363
10223POPC   PO417186   7.818  -1.707  17.470
10223POPC   GL117187   7.790  -1.873  17.577
10223POPC   GL217188   7.881  -1.905  17.552
10223POPC   C1A17189   7.761  -2.040  17.684
10223POPC   D2A17190   7.733  -2.206  17.792
10223POPC   C3A17191   7.704  -2.373  17.899
10223POPC   C4A17192   7.676  -2.539  18.006
10223POPC   C1B17193   7.686  -2.131  17.523
10223POPC   C2B17194   7.658  -2.297  17.630
10223POPC   C3B17195   7.629  -2.464  17.737
10223POPC   C4B17196   7.601  -2.630  17.845
10224POPC   NC317197  11.725   1.443  -0.785
10224POPC   PO417198  11.753   1.322  -0.942
10224POPC   GL117199  11.781   1.201  -1.099
10224POPC   GL217200  11.875   1.232  -1.106
10224POPC   C1A17201  11.809   1.080  -1.255
10224POPC   D2A17202  11.836   0.958  -1.412
10224POPC   C3A17203  11.864   0.837  -1.568
10224POPC   C4A17204  11.892   0.716  -1.725
10224POPC   C1B17205  11.750   1.226  -1.379
10224POPC   C2B17206  11.777   1.104  -1.535
10224POPC   C3B17207  11.805   0.983  -1.692
10224POPC   C4B17208  11.833   0.862  -1.848
10225POPC   NC317209   8.089  -3.452   7.074
10225POPC   PO417210   8.064  -3.647   7.035
10225POPC   GL117211   8.039  -3.842   6.996
10225POPC   GL217212   8.137  -3.851   6.981
10225POPC   C1A17213   8.014  -4.036   6.957
10225POPC   D2A17214   7.989  -4.231   6.917
10225POPC   C3A17215   7.964  -4.425   6.878
10225POPC   C4A17216   7.939  -4.620   6.839
10225POPC   C1B17217   7.989  -3.994   6.763
10225POPC   C2B17218   7.964  -4.189   6.724
10225POPC   C3B17219   7.939  -4.383   6.684
10225POPC   C4B17220   7.914  -4.578   6.645
10226POPC   NC317221   8.932  22.881  14.982
10226POPC   PO417222   8.916  23.066  15.056
10226POPC   GL117223   8.900  23.251  15.130
10226POPC   GL217224   8.943  23.288  15.048
10226POPC   C1A17225   8.884  23.436  15.204
10226POPC   D2A17226   8.867  23.621  15.279
10226POPC   C3A17227   8.851  23.806  15.353
10226POPC   C4A17228   8.835  23.991  15.427
10226POPC   C1B17229   9.064  23.418  15.289
10226POPC   C2B17230   9.048  23.603  15.363
10226POPC   C3B17231   9.031  23.788  15.438
10226POPC   C4B17232   9.015  23.973  15.512
10227POPC   NC317233   6.047  -3.215  11.691
10227POPC   PO417234   5.991  -3.405  11.715
10227POPC   GL117235   5.935  -3.595  11.739
10227POPC   GL217236   5.939  -3.584  11.839
10227POPC   C1A17237   5.879  -3.786  11.764
10227POPC   D2A17238   5.824  -3.976  11.788
10227POPC   C3A17239   5.768  -4.167  11.813
10227POPC   C4A17240   5.712  -4.357  11.837
10227POPC   C1B17241   6.071  -3.842  11.764
10227POPC   C2B17242   6.016  -4.032  11.788
10227POPC   C3B17243   5.960  -4.223  11.813
10227POPC   C4B17244   5.904  -4.413  11.837
10228POPC   NC317245  -0.528   5.186  17.778
10228POPC   PO417246  -0.668   5.113  17.901
10228POPC   GL117247  -0.808   5.040  18.024
10228POPC   GL217248  -0.757   4.954  18.031
10228POPC   C1A17249  -0.947   4.967  18.147
10228POPC   D2A17250  -1.087   4.894  18.271
10228POPC   C3A17251  -1.226   4.821  18.394
10228POPC   C4A17252  -1.366   4.748  18.517
10228POPC   C1B17253  -1.048   4.895  17.991
10228POPC   C2B17254  -1.188   4.822  18.114
10228POPC   C3B17255  -1.327   4.749  18.237
10228POPC   C4B17256  -1.467   4.676  18.360
10229POPC   NC317257  14.748   5.830  -2.307
10229POPC   PO417258  14.821   5.777  -2.486
10229POPC   GL117259  14.894   5.724  -2.665
10229POPC   GL217260  14.837   5.794  -2.708
10229POPC   C1A17261  14.967   5.672  -2.843
10229POPC   D2A17262  15.039   5.619  -3.022
10229POPC   C3A17263  15.112   5.567  -3.200
10229POPC   C4A17264  15.185   5.514  -3.379
10229POPC   C1B17265  14.819   5.539  -2.864
10229POPC   C2B17266  14.892   5.486  -3.043
10229POPC   C3B17267  14.964   5.433  -3.221
10229POPC   C4B17268  15.037   5.381  -3.400
10230POPC   NC317269   4.597  22.679  11.731
10230POPC   PO417270   4.522  22.861  11.763
10230POPC   GL117271   4.447  23.043  11.795
10230POPC   GL217272   4.538  23.082  11.789
10230POPC   C1A17273   4.371  23.226  11.827
10230POPC   D2A17274   4.296  23.408  11.858
10230POPC   C3A17275   4.220  23.591  11.890
10230POPC   C4A17276   4.145  23.773  11.922
10230POPC   C1B17277   4.394  23.201  12.024
10230POPC   C2B17278   4.318  23.383  12.056
10230POPC   C3B17279   4.243  23.565  12.087
10230POPC   C4B17280   4.167  23.748  12.119
10231POPC   NC317281  -3.163  13.126   6.689
10231POPC   PO417282  -3.351  13.171   6.639
10231POPC   GL117283  -3.539  13.216   6.589
10231POPC   GL217284  -3.554  13.255   6.680
10231POPC   C1A17285  -3.728  13.261   6.539
10231POPC   D2A17286  -3.916  13.306   6.490
10231POPC   C3A17287  -4.105  13.351   6.440
10231POPC   C4A17288  -4.293  13.396   6.390
10231POPC   C1B17289  -3.788  13.082   6.606
10231POPC   C2B17290  -3.976  13.127   6.556
10231POPC   C3B17291  -4.165  13.172   6.506
10231POPC   C4B17292  -4.353  13.217   6.456
10232POPC   NC317293  21.798   4.215  14.036
10232POPC   PO417294  21.971   4.131  14.092
10232POPC   GL117295  22.144   4.047  14.148
10232POPC   GL217296  22.169   4.034  14.052
10232POPC   C1A17297  22.317   3.963  14.204
10232POPC   D2A17298  22.489   3.880  14.260
10232POPC   C3A17299  22.662   3.796  14.316
10232POPC   C4A17300  22.835   3.712  14.372
10232POPC   C1B17301  22.229   3.784  14.206
10232POPC   C2B17302  22.402   3.700  14.262
10232POPC   C3B17303  22.574   3.616  14.318
10232POPC   C4B17304  22.747   3.532  14.374
10233POPC   NC317305   6.491  -0.759   1.850
10233POPC   PO417306   6.446  -0.914   1.731
10233POPC   GL117307   6.401  -1.069   1.612
10233POPC   GL217308   6.485  -1.053   1.560
10233POPC   C1A17309   6.356  -1.223   1.494
10233POPC   D2A17310   6.311  -1.378   1.375
10233POPC   C3A17311   6.266  -1.532   1.257
10233POPC   C4A17312   6.221  -1.687   1.138
10233POPC   C1B17313   6.256  -1.101   1.372
10233POPC   C2B17314   6.211  -1.255   1.253
10233POPC   C3B17315   6.166  -1.410   1.135
10233POPC   C4B17316   6.121  -1.564   1.016
10234POPC   NC317317   0.726   3.238  17.824
10234POPC   PO417318   0.597   3.142  17.943
10234POPC   GL117319   0.468   3.046  18.062
10234POPC   GL217320   0.538   2.980  18.085
10234POPC   C1A17321   0.338   2.951  18.181
10234POPC   D2A17322   0.209   2.855  18.299
10234POPC   C3A17323   0.079   2.760  18.418
10234POPC   C4A17324  -0.050   2.664  18.537
10234POPC   C1B17325   0.282   2.836  18.027
10234POPC   C2B17326   0.152   2.740  18.146
10234POPC   C3B17327   0.023   2.645  18.264
10234POPC   C4B17328  -0.106   2.549  18.383
10235POPC   NC317329  16.044  -1.033  15.701
10235POPC   PO417330  16.133  -1.193  15.781
10235POPC   GL117331  16.222  -1.353  15.861
10235POPC   GL217332  16.252  -1.382  15.770
10235POPC   C1A17333  16.311  -1.513  15.941
10235POPC   D2A17334  16.400  -1.674  16.022
10235POPC   C3A17335  16.489  -1.834  16.102
10235POPC   C4A17336  16.578  -1.994  16.182
10235POPC   C1B17337  16.142  -1.618  15.919
10235POPC   C2B17338  16.231  -1.778  16.000
10235POPC   C3B17339  16.320  -1.939  16.080
10235POPC   C4B17340  16.409  -2.099  16.160
10236POPC   NC317341  18.302   1.246   3.263
10236POPC   PO417342  18.424   1.123   3.163
10236POPC   GL117343  18.546   1.000   3.063
10236POPC   GL217344  18.625   1.044   3.105
10236POPC   C1A17345  18.667   0.876   2.963
10236POPC   D2A17346  18.789   0.753   2.864
10236POPC   C3A17347  18.910   0.629   2.764
10236POPC   C4A17348  19.032   0.506   2.664
10236POPC   C1B17349  18.675   1.007   2.812
10236POPC   C2B17350  18.797   0.883   2.712
10236POPC   C3B17351  18.918   0.760   2.612
10236POPC   C4B17352  19.040   0.636   2.513
10237POPC   NC317353   4.268  -1.224  15.896
10237POPC   PO417354   4.188  -1.385  15.984
10237POPC   GL117355   4.108  -1.546  16.072
10237POPC   GL217356   4.187  -1.551  16.133
10237POPC   C1A17357   4.029  -1.707  16.159
10237POPC   D2A17358   3.949  -1.869  16.247
10237POPC   C3A17359   3.870  -2.030  16.334
10237POPC   C4A17360   3.790  -2.191  16.422
10237POPC   C1B17361   4.124  -1.825  16.029
10237POPC   C2B17362   4.044  -1.986  16.116
10237POPC   C3B17363   3.965  -2.148  16.204
10237POPC   C4B17364   3.885  -2.309  16.291
10238POPC   NC317365  18.496   6.193  -0.190
10238POPC   PO417366  18.620   6.134  -0.335
10238POPC   GL117367  18.744   6.075  -0.480
10238POPC   GL217368  18.667   6.034  -0.529
10238POPC   C1A17369  18.868   6.016  -0.626
10238POPC   D2A17370  18.992   5.958  -0.771
10238POPC   C3A17371  19.116   5.899  -0.917
10238POPC   C4A17372  19.240   5.840  -1.062
10238POPC   C1B17373  18.899   5.844  -0.530
10238POPC   C2B17374  19.023   5.785  -0.675
10238POPC   C3B17375  19.147   5.726  -0.821
10238POPC   C4B17376  19.271   5.667  -0.966
10239POPC   NC317377  12.853  -0.066  18.847
10239POPC   PO417378  12.889  -0.212  18.979
10239POPC   GL117379  12.925  -0.358  19.111
10239POPC   GL217380  12.917  -0.426  19.039
10239POPC   C1A17381  12.960  -0.503  19.244
10239POPC   D2A17382  12.996  -0.649  19.376
10239POPC   C3A17383  13.031  -0.794  19.509
10239POPC   C4A17384  13.067  -0.940  19.641
10239POPC   C1B17385  12.764  -0.519  19.279
10239POPC   C2B17386  12.800  -0.665  19.412
10239POPC   C3B17387  12.835  -0.810  19.544
10239POPC   C4B17388  12.871  -0.956  19.676
10240POPC   NC317389  22.322  15.221  13.054
10240POPC   PO417390  22.502  15.296  13.098
10240POPC   GL117391  22.682  15.371  13.142
10240POPC   GL217392  22.719  15.331  13.058
10240POPC   C1A17393  22.862  15.446  13.185
10240POPC   D2A17394  23.043  15.521  13.229
10240POPC   C3A17395  23.223  15.596  13.272
10240POPC   C4A17396  23.403  15.671  13.316
10240POPC   C1B17397  22.908  15.279  13.285
10240POPC   C2B17398  23.088  15.354  13.328
10240POPC   C3B17399  23.268  15.429  13.372
10240POPC   C4B17400  23.449  15.504  13.416
10241POPC   NC317401  -3.342   7.789  13.427
10241POPC   PO417402  -3.534   7.756  13.473
10241POPC   GL117403  -3.726   7.723  13.519
10241POPC   GL217404  -3.700   7.699  13.612
10241POPC   C1A17405  -3.918   7.690  13.564
10241POPC   D2A17406  -4.109   7.657  13.610
10241POPC   C3A17407  -4.301   7.624  13.655
10241POPC   C4A17408  -4.493   7.591  13.701
10241POPC   C1B17409  -3.897   7.498  13.510
10241POPC   C2B17410  -4.089   7.465  13.556
10241POPC   C3B17411  -4.281   7.432  13.602
10241POPC   C4B17412  -4.473   7.399  13.647
10242POPC   NC317413  -3.646   9.823  12.982
10242POPC   PO417414  -3.841   9.819  13.026
10242POPC   GL117415  -4.036   9.815  13.070
10242POPC   GL217416  -4.015   9.783  13.163
10242POPC   C1A17417  -4.231   9.811  13.114
10242POPC   D2A17418  -4.426   9.806  13.158
10242POPC   C3A17419  -4.621   9.802  13.202
10242POPC   C4A17420  -4.816   9.798  13.246
10242POPC   C1B17421  -4.241   9.621  13.052
10242POPC   C2B17422  -4.436   9.616  13.096
10242POPC   C3B17423  -4.631   9.612  13.140
10242POPC   C4B17424  -4.826   9.608  13.184
10243POPC   NC317425   4.794  -2.056  14.598
10243POPC   PO417426   4.721  -2.230  14.665
10243POPC   GL117427   4.648  -2.404  14.732
10243POPC   GL217428   4.741  -2.434  14.753
10243POPC   C1A17429   4.575  -2.578  14.799
10243POPC   D2A17430   4.502  -2.751  14.865
10243POPC   C3A17431   4.429  -2.925  14.932
10243POPC   C4A17432   4.356  -3.099  14.999
10243POPC   C1B17433   4.592  -2.655  14.615
10243POPC   C2B17434   4.519  -2.829  14.682
10243POPC   C3B17435   4.446  -3.003  14.749
10243POPC   C4B17436   4.373  -3.177  14.815
10244POPC   NC317437  10.638  22.413   3.833
10244POPC   PO417438  10.657  22.592   3.746
10244POPC   GL117439  10.676  22.771   3.659
10244POPC   GL217440  10.724  22.729   3.582
10244POPC   C1A17441  10.695  22.950   3.572
10244POPC   D2A17442  10.713  23.129   3.485
10244POPC   C3A17443  10.732  23.308   3.398
10244POPC   C4A17444  10.751  23.487   3.311
10244POPC   C1B17445  10.869  22.978   3.667
10244POPC   C2B17446  10.887  23.157   3.580
10244POPC   C3B17447  10.906  23.336   3.493
10244POPC   C4B17448  10.925  23.515   3.406
10245POPC   NC317449   7.710   9.572  -3.732
10245POPC   PO417450   7.679   9.565  -3.930
10245POPC   GL117451   7.648   9.558  -4.128
10245POPC   GL217452   7.559   9.516  -4.112
10245POPC   C1A17453   7.618   9.552  -4.325
10245POPC   D2A17454   7.587   9.545  -4.523
10245POPC   C3A17455   7.557   9.539  -4.720
10245POPC   C4A17456   7.526   9.532  -4.918
10245POPC   C1B17457   7.703   9.371  -4.333
10245POPC   C2B17458   7.673   9.365  -4.530
10245POPC   C3B17459   7.642   9.358  -4.728
10245POPC   C4B17460   7.612   9.351  -4.925
10246POPC   NC317461  20.096  15.073  17.786
10246POPC   PO417462  20.236  15.145  17.910
10246POPC   GL117463  20.376  15.217  18.034
10246POPC   GL217464  20.445  15.162  17.988
10246POPC   C1A17465  20.515  15.290  18.157
10246POPC   D2A17466  20.655  15.362  18.281
10246POPC   C3A17467  20.794  15.435  18.404
10246POPC   C4A17468  20.934  15.507  18.528
10246POPC   C1B17469  20.480  15.140  18.285
10246POPC   C2B17470  20.620  15.212  18.408
10246POPC   C3B17471  20.759  15.285  18.532
10246POPC   C4B17472  20.899  15.357  18.656
10247POPC   NC317473  18.333  18.533  16.690
10247POPC   PO417474  18.456  18.664  16.778
10247POPC   GL117475  18.579  18.795  16.866
10247POPC   GL217476  18.575  18.853  16.785
10247POPC   C1A17477  18.702  18.926  16.955
10247POPC   D2A17478  18.824  19.056  17.043
10247POPC   C3A17479  18.947  19.187  17.132
10247POPC   C4A17480  19.070  19.318  17.220
10247POPC   C1B17481  18.859  18.829  16.879
10247POPC   C2B17482  18.982  18.960  16.967
10247POPC   C3B17483  19.105  19.090  17.056
10247POPC   C4B17484  19.228  19.221  17.144
10248POPC   NC317485  19.019  20.155  11.995
10248POPC   PO417486  19.155  20.296  12.037
10248POPC   GL117487  19.291  20.437  12.079
10248POPC   GL217488  19.363  20.379  12.041
10248POPC   C1A17489  19.427  20.578  12.121
10248POPC   D2A17490  19.562  20.718  12.163
10248POPC   C3A17491  19.698  20.859  12.205
10248POPC   C4A17492  19.834  21.000  12.247
10248POPC   C1B17493  19.455  20.496  12.301
10248POPC   C2B17494  19.591  20.637  12.343
10248POPC   C3B17495  19.727  20.778  12.385
10248POPC   C4B17496  19.863  20.918  12.427
10249POPC   NC317497  18.187  18.449  17.010
10249POPC   PO417498  18.308  18.579  17.102
10249POPC   GL117499  18.429  18.709  17.194
10249POPC   GL217500  18.508  18.664  17.153
10249POPC   C1A17501  18.550  18.839  17.286
10249POPC   D2A17502  18.670  18.970  17.378
10249POPC   C3A17503  18.791  19.100  17.470
10249POPC   C4A17504  18.912  19.230  17.562
10249POPC   C1B17505  18.561  18.717  17.444
10249POPC   C2B17506  18.682  18.847  17.536
10249POPC   C3B17507  18.803  18.977  17.628
10249POPC   C4B17508  18.924  19.108  17.720
10250POPC   NC317509   2.216  14.792  -0.556
10250POPC   PO417510   2.107  14.859  -0.710
10250POPC   GL117511   1.998  14.926  -0.864
10250POPC   GL217512   1.932  14.965  -0.800
10250POPC   C1A17513   1.889  14.992  -1.018
10250POPC   D2A17514   1.781  15.059  -1.172
10250POPC   C3A17515   1.672  15.125  -1.326
10250POPC   C4A17516   1.563  15.192  -1.480
10250POPC   C1B17517   1.786  14.821  -1.020
10250POPC   C2B17518   1.678  14.887  -1.174
10250POPC   C3B17519   1.569  14.954  -1.328
10250POPC   C4B17520   1.460  15.021  -1.482
10251POPC   NC317521  12.380  12.496  -3.459
10251POPC   PO417522  12.416  12.536  -3.652
10251POPC   GL117523  12.452  12.576  -3.845
10251POPC   GL217524  12.385  12.507  -3.872
10251POPC   C1A17525  12.488  12.617  -4.037
10251POPC   D2A17526  12.524  12.657  -4.230
10251POPC   C3A17527  12.560  12.698  -4.422
10251POPC   C4A17528  12.596  12.738  -4.615
10251POPC   C1B17529  12.632  12.478  -4.039
10251POPC   C2B17530  12.668  12.519  -4.232
10251POPC   C3B17531  12.704  12.559  -4.425
10251POPC   C4B17532  12.740  12.599  -4.617
10252POPC   NC317533   9.423  15.378  -2.818
10252POPC   PO417534   9.421  15.455  -3.002
10252POPC   GL117535   9.419  15.532  -3.186
10252POPC   GL217536   9.442  15.622  -3.149
10252POPC   C1A17537   9.417  15.609  -3.371
10252POPC   D2A17538   9.414  15.687  -3.555
10252POPC   C3A17539   9.412  15.764  -3.740
10252POPC   C4A17540   9.410  15.841  -3.924
10252POPC   C1B17541   9.222  15.651  -3.351
10252POPC   C2B17542   9.220  15.728  -3.535
10252POPC   C3B17543   9.218  15.805  -3.720
10252POPC   C4B17544   9.215  15.882  -3.904
10253POPC   NC317545   8.253  -3.365   6.600
10253POPC   PO417546   8.229  -3.558   6.552
10253POPC   GL117547   8.205  -3.751   6.504
10253POPC   GL217548   8.301  -3.756   6.477
10253POPC   C1A17549   8.182  -3.943   6.456
10253POPC   D2A17550   8.158  -4.136   6.408
10253POPC   C3A17551   8.135  -4.328   6.360
10253POPC   C4A17552   8.111  -4.521   6.312
10253POPC   C1B17553   8.131  -3.891   6.270
10253POPC   C2B17554   8.108  -4.083   6.222
10253POPC   C3B17555   8.084  -4.276   6.174
10253POPC   C4B17556   8.061  -4.468   6.126
10254POPC   NC317557   3.853   2.054   0.433
10254POPC   PO417558   3.764   1.937   0.297
10254POPC   GL117559   3.675   1.820   0.161
10254POPC   GL217560   3.765   1.797   0.122
10254POPC   C1A17561   3.586   1.703   0.025
10254POPC   D2A17562   3.498   1.586  -0.110
10254POPC   C3A17563   3.409   1.469  -0.246
10254POPC   C4A17564   3.320   1.352  -0.382
10254POPC   C1B17565   3.572   1.859  -0.099
10254POPC   C2B17566   3.483   1.742  -0.235
10254POPC   C3B17567   3.394   1.625  -0.371
10254POPC   C4B17568   3.305   1.508  -0.507
10255POPC   NC317569  14.807  -2.790   8.081
10255POPC   PO417570  14.880  -2.974   8.052
10255POPC   GL117571  14.953  -3.158   8.023
10255POPC   GL217572  15.043  -3.127   8.054
10255POPC   C1A17573  15.026  -3.342   7.994
10255POPC   D2A17574  15.100  -3.525   7.964
10255POPC   C3A17575  15.173  -3.709   7.935
10255POPC   C4A17576  15.246  -3.893   7.906
10255POPC   C1B17577  15.074  -3.293   7.806
10255POPC   C2B17578  15.147  -3.477   7.776
10255POPC   C3B17579  15.220  -3.660   7.747
10255POPC   C4B17580  15.294  -3.844   7.718
10256POPC   NC317581  12.700  -3.137   6.341
10256POPC   PO417582  12.751  -3.323   6.288
10256POPC   GL117583  12.802  -3.509   6.235
10256POPC   GL217584  12.808  -3.480   6.140
10256POPC   C1A17585  12.853  -3.695   6.182
10256POPC   D2A17586  12.904  -3.881   6.130
10256POPC   C3A17587  12.955  -4.067   6.077
10256POPC   C4A17588  13.006  -4.253   6.024
10256POPC   C1B17589  12.660  -3.740   6.156
10256POPC   C2B17590  12.711  -3.926   6.104
10256POPC   C3B17591  12.762  -4.112   6.051
10256POPC   C4B17592  12.813  -4.298   5.998
10257POPC   NC317593  23.098   7.409  13.166
10257POPC   PO417594  23.289   7.371  13.210
10257POPC   GL117595  23.480   7.333  13.254
10257POPC   GL217596  23.484   7.267  13.179
10257POPC   C1A17597  23.672   7.295  13.298
10257POPC   D2A17598  23.863   7.256  13.342
10257POPC   C3A17599  24.055   7.218  13.386
10257POPC   C4A17600  24.246   7.180  13.430
10257POPC   C1B17601  23.614   7.150  13.423
10257POPC   C2B17602  23.806   7.112  13.467
10257POPC   C3B17603  23.997   7.073  13.511
10257POPC   C4B17604  24.188   7.035  13.555
10258POPC   NC317605   4.694   5.243  21.918
10258POPC   PO417606   4.617   5.177  22.090
10258POPC   GL117607   4.540   5.111  22.262
10258POPC   GL217608   4.551   5.016  22.231
10258POPC   C1A17609   4.464   5.044  22.435
10258POPC   D2A17610   4.387   4.978  22.607
10258POPC   C3A17611   4.311   4.911  22.780
10258POPC   C4A17612   4.234   4.845  22.952
10258POPC   C1B17613   4.280   5.050  22.355
10258POPC   C2B17614   4.204   4.984  22.528
10258POPC   C3B17615   4.127   4.917  22.700
10258POPC   C4B17616   4.050   4.851  22.873
10259POPC   NC317617  15.821   8.244  -2.370
10259POPC   PO417618  15.906   8.217  -2.549
10259POPC   GL117619  15.991   8.190  -2.728
10259POPC   GL217620  15.912   8.233  -2.772
10259POPC   C1A17621  16.076   8.163  -2.907
10259POPC   D2A17622  16.162   8.135  -3.085
10259POPC   C3A17623  16.247   8.108  -3.264
10259POPC   C4A17624  16.332   8.081  -3.443
10259POPC   C1B17625  15.988   7.984  -2.922
10259POPC   C2B17626  16.073   7.957  -3.101
10259POPC   C3B17627  16.158   7.930  -3.279
10259POPC   C4B17628  16.243   7.902  -3.458
10260POPC   NC317629   1.303  11.316  20.719
10260POPC   PO417630   1.181  11.340  20.875
10260POPC   GL117631   1.059  11.364  21.031
10260POPC   GL217632   1.137  11.360  21.093
10260POPC   C1A17633   0.936  11.389  21.188
10260POPC   D2A17634   0.814  11.413  21.344
10260POPC   C3A17635   0.691  11.438  21.501
10260POPC   C4A17636   0.569  11.462  21.657
10260POPC   C1B17637   0.915  11.190  21.202
10260POPC   C2B17638   0.792  11.215  21.358
10260POPC   C3B17639   0.670  11.239  21.515
10260POPC   C4B17640   0.547  11.264  21.671
10261POPC   NC317641   6.174  17.392  21.055
10261POPC   PO417642   6.122  17.508  21.210
10261POPC   GL117643   6.070  17.624  21.365
10261POPC   GL217644   6.166  17.647  21.380
10261POPC   C1A17645   6.018  17.739  21.520
10261POPC   D2A17646   5.966  17.855  21.674
10261POPC   C3A17647   5.914  17.970  21.829
10261POPC   C4A17648   5.862  18.086  21.984
10261POPC   C1B17649   6.036  17.583  21.643
10261POPC   C2B17650   5.984  17.698  21.797
10261POPC   C3B17651   5.932  17.814  21.952
10261POPC   C4B17652   5.880  17.929  22.107
10262POPC   NC317653  17.473  13.237  -1.178
10262POPC   PO417654  17.584  13.286  -1.337
10262POPC   GL117655  17.695  13.335  -1.496
10262POPC   GL217656  17.612  13.358  -1.547
10262POPC   C1A17657  17.805  13.384  -1.656
10262POPC   D2A17658  17.916  13.432  -1.815
10262POPC   C3A17659  18.026  13.481  -1.975
10262POPC   C4A17660  18.137  13.530  -2.134
10262POPC   C1B17661  17.793  13.195  -1.722
10262POPC   C2B17662  17.904  13.244  -1.881
10262POPC   C3B17663  18.014  13.293  -2.041
10262POPC   C4B17664  18.125  13.342  -2.200
10263POPC   NC317665  15.024   2.672  20.529
10263POPC   PO417666  15.099   2.564  20.680
10263POPC   GL117667  15.174   2.456  20.831
10263POPC   GL217668  15.215   2.393  20.765
10263POPC   C1A17669  15.250   2.348  20.981
10263POPC   D2A17670  15.325   2.241  21.132
10263POPC   C3A17671  15.401   2.133  21.282
10263POPC   C4A17672  15.476   2.025  21.433
10263POPC   C1B17673  15.083   2.238  20.986
10263POPC   C2B17674  15.159   2.130  21.136
10263POPC   C3B17675  15.234   2.022  21.287
10263POPC   C4B17676  15.309   1.915  21.437
10264POPC   NC317677   7.565  17.075  -1.798
10264POPC   PO417678   7.533  17.176  -1.968
10264POPC   GL117679   7.501  17.277  -2.138
10264POPC   GL217680   7.594  17.254  -2.168
10264POPC   C1A17681   7.469  17.378  -2.308
10264POPC   D2A17682   7.437  17.478  -2.477
10264POPC   C3A17683   7.405  17.579  -2.647
10264POPC   C4A17684   7.373  17.680  -2.817
10264POPC   C1B17685   7.538  17.544  -2.222
10264POPC   C2B17686   7.506  17.645  -2.391
10264POPC   C3B17687   7.474  17.746  -2.561
10264POPC   C4B17688   7.442  17.847  -2.731
10265POPC   NC317689  18.482   4.223   0.849
10265POPC   PO417690  18.609   4.139   0.719
10265POPC   GL117691  18.736   4.055   0.589
10265POPC   GL217692  18.802   4.128   0.606
10265POPC   C1A17693  18.862   3.971   0.459
10265POPC   D2A17694  18.989   3.887   0.329
10265POPC   C3A17695  19.115   3.803   0.199
10265POPC   C4A17696  19.242   3.719   0.069
10265POPC   C1B17697  18.782   4.079   0.311
10265POPC   C2B17698  18.909   3.995   0.181
10265POPC   C3B17699  19.035   3.911   0.051
10265POPC   C4B17700  19.162   3.827  -0.079
10266POPC   NC317701  11.908  17.700  21.254
10266POPC   PO417702  11.938  17.808  21.420
10266POPC   GL117703  11.968  17.916  21.586
10266POPC   GL217704  12.059  17.940  21.554
10266POPC   C1A17705  11.998  18.023  21.752
10266POPC   D2A17706  12.027  18.131  21.918
10266POPC   C3A17707  12.057  18.238  22.084
10266POPC   C4A17708  12.087  18.346  22.250
10266POPC   C1B17709  12.072  17.862  21.843
10266POPC   C2B17710  12.102  17.969  22.009
10266POPC   C3B17711  12.132  18.077  22.175
10266POPC   C4B17712  12.162  18.185  22.341
10267POPC   NC317713   8.007  23.487  12.620
10267POPC   PO417714   7.983  23.682  12.659
10267POPC   GL117715   7.959  23.877  12.698
10267POPC   GL217716   8.030  23.871  12.768
10267POPC   C1A17717   7.935  24.072  12.737
10267POPC   D2A17718   7.912  24.266  12.775
10267POPC   C3A17719   7.888  24.461  12.814
10267POPC   C4A17720   7.864  24.656  12.853
10267POPC   C1B17721   7.796  24.027  12.873
10267POPC   C2B17722   7.772  24.222  12.911
10267POPC   C3B17723   7.748  24.417  12.950
10267POPC   C4B17724   7.724  24.612  12.989
10268POPC   NC317725  -3.540  10.323  13.432
10268POPC   PO417726  -3.734  10.326  13.481
10268POPC   GL117727  -3.928  10.329  13.530
10268POPC   GL217728  -3.906  10.291  13.620
10268POPC   C1A17729  -4.122  10.332  13.580
10268POPC   D2A17730  -4.315  10.336  13.629
10268POPC   C3A17731  -4.509  10.339  13.679
10268POPC   C4A17732  -4.703  10.342  13.728
10268POPC   C1B17733  -4.143  10.148  13.506
10268POPC   C2B17734  -4.337  10.151  13.555
10268POPC   C3B17735  -4.531  10.154  13.605
10268POPC   C4B17736  -4.725  10.157  13.654
10269POPC   NC317737  -3.232   6.446  12.529
10269POPC   PO417738  -3.422   6.394  12.565
10269POPC   GL117739  -3.612   6.342  12.601
10269POPC   GL217740  -3.596   6.350  12.699
10269POPC   C1A17741  -3.802   6.290  12.636
10269POPC   D2A17742  -3.991   6.237  12.672
10269POPC   C3A17743  -4.181   6.185  12.707
10269POPC   C4A17744  -4.371   6.133  12.743
10269POPC   C1B17745  -3.747   6.097  12.643
10269POPC   C2B17746  -3.937   6.045  12.679
10269POPC   C3B17747  -4.127   5.993  12.715
10269POPC   C4B17748  -4.317   5.941  12.750
10270POPC   NC317749  20.684   8.126  18.299
10270POPC   PO417750  20.843   8.095  18.417
10270POPC   GL117751  21.002   8.064  18.535
10270POPC   GL217752  21.002   7.967  18.509
10270POPC   C1A17753  21.160   8.033  18.653
10270POPC   D2A17754  21.319   8.003  18.770
10270POPC   C3A17755  21.477   7.972  18.888
10270POPC   C4A17756  21.636   7.941  19.006
10270POPC   C1B17757  21.038   7.993  18.806
10270POPC   C2B17758  21.197   7.962  18.924
10270POPC   C3B17759  21.356   7.931  19.042
10270POPC   C4B17760  21.514   7.900  19.159
10271POPC   NC317761  10.001  -2.579   4.083
10271POPC   PO417762   9.998  -2.759   3.997
10271POPC   GL117763   9.995  -2.939   3.911
10271POPC   GL217764  10.057  -2.974   3.981
10271POPC   C1A17765   9.992  -3.120   3.824
10271POPC   D2A17766   9.989  -3.300   3.738
10271POPC   C3A17767   9.986  -3.481   3.651
10271POPC   C4A17768   9.983  -3.661   3.565
10271POPC   C1B17769  10.148  -3.068   3.711
10271POPC   C2B17770  10.145  -3.248   3.624
10271POPC   C3B17771  10.142  -3.429   3.538
10271POPC   C4B17772  10.139  -3.609   3.451
10272POPC   NC317773  11.949  -1.650  17.174
10272POPC   PO417774  11.979  -1.810  17.291
10272POPC   GL117775  12.009  -1.970  17.408
10272POPC   GL217776  12.105  -1.944  17.418
10272POPC   C1A17777  12.039  -2.129  17.525
10272POPC   D2A17778  12.070  -2.289  17.641
10272POPC   C3A17779  12.100  -2.448  17.758
10272POPC   C4A17780  12.130  -2.608  17.875
10272POPC   C1B17781  12.085  -2.238  17.363
10272POPC   C2B17782  12.116  -2.398  17.480
10272POPC   C3B17783  12.146  -2.558  17.597
10272POPC   C4B17784  12.176  -2.717  17.714
10273POPC   NC317785   8.205   2.728  -1.806
10273POPC   PO417786   8.187   2.625  -1.977
10273POPC   GL117787   8.169   2.522  -2.148
10273POPC   GL217788   8.243   2.461  -2.119
10273POPC   C1A17789   8.152   2.420  -2.319
10273POPC   D2A17790   8.134   2.317  -2.489
10273POPC   C3A17791   8.117   2.215  -2.660
10273POPC   C4A17792   8.099   2.112  -2.831
10273POPC   C1B17793   8.286   2.541  -2.405
10273POPC   C2B17794   8.268   2.438  -2.576
10273POPC   C3B17795   8.250   2.336  -2.747
10273POPC   C4B17796   8.233   2.233  -2.917
10274POPC   NC317797  -0.915  18.663  10.844
10274POPC   PO417798  -1.071  18.786  10.861
10274POPC   GL117799  -1.227  18.909  10.878
10274POPC   GL217800  -1.173  18.970  10.937
10274POPC   C1A17801  -1.384  19.033  10.895
10274POPC   D2A17802  -1.540  19.156  10.913
10274POPC   C3A17803  -1.697  19.280  10.930
10274POPC   C4A17804  -1.853  19.403  10.947
10274POPC   C1B17805  -1.446  18.932  11.057
10274POPC   C2B17806  -1.602  19.056  11.074
10274POPC   C3B17807  -1.758  19.179  11.091
10274POPC   C4B17808  -1.915  19.302  11.108
10275POPC   NC317809  11.591  12.879  -3.497
10275POPC   PO417810  11.615  12.925  -3.690
10275POPC   GL117811  11.639  12.971  -3.883
10275POPC   GL217812  11.682  12.882  -3.899
10275POPC   C1A17813  11.664  13.018  -4.076
10275POPC   D2A17814  11.688  13.064  -4.269
10275POPC   C3A17815  11.713  13.111  -4.462
10275POPC   C4A17816  11.737  13.157  -4.655
10275POPC   C1B17817  11.844  13.095  -4.035
10275POPC   C2B17818  11.868  13.141  -4.228
10275POPC   C3B17819  11.892  13.188  -4.421
10275POPC   C4B17820  11.917  13.234  -4.614
10276POPC   NC317821  17.839   0.944   3.098
10276POPC   PO417822  17.954   0.816   2.996
10276POPC   GL117823  18.069   0.688   2.894
10276POPC   GL217824  18.005   0.691   2.818
10276POPC   C1A17825  18.184   0.559   2.793
10276POPC   D2A17826  18.299   0.431   2.691
10276POPC   C3A17827  18.414   0.302   2.590
10276POPC   C4A17828  18.529   0.174   2.488
10276POPC   C1B17829  18.082   0.406   2.871
10276POPC   C2B17830  18.197   0.278   2.770
10276POPC   C3B17831  18.312   0.149   2.668
10276POPC   C4B17832  18.427   0.021   2.566
10277POPC   NC317833  11.008  19.276  -0.229
10277POPC   PO417834  11.020  19.409  -0.378
10277POPC   GL117835  11.032  19.542  -0.527
10277POPC   GL217836  11.132  19.538  -0.523
10277POPC   C1A17837  11.044  19.675  -0.676
10277POPC   D2A17838  11.055  19.808  -0.824
10277POPC   C3A17839  11.067  19.941  -0.973
10277POPC   C4A17840  11.079  20.074  -1.122
10277POPC   C1B17841  11.045  19.824  -0.542
10277POPC   C2B17842  11.056  19.957  -0.691
10277POPC   C3B17843  11.068  20.090  -0.840
10277POPC   C4B17844  11.080  20.223  -0.989
10278POPC   NC317845  23.290  13.297   8.806
10278POPC   PO417846  23.483  13.346   8.790
10278POPC   GL117847  23.676  13.395   8.774
10278POPC   GL217848  23.673  13.377   8.676
10278POPC   C1A17849  23.869  13.444   8.759
10278POPC   D2A17850  24.063  13.494   8.743
10278POPC   C3A17851  24.256  13.543   8.728
10278POPC   C4A17852  24.449  13.592   8.712
10278POPC   C1B17853  23.921  13.254   8.792
10278POPC   C2B17854  24.114  13.303   8.777
10278POPC   C3B17855  24.307  13.352   8.761
10278POPC   C4B17856  24.500  13.402   8.745
10279POPC   NC317857  15.477  15.930  21.118
10279POPC   PO417858  15.558  16.016  21.280
10279POPC   GL117859  15.639  16.102  21.442
10279POPC   GL217860  15.657  16.184  21.389
10279POPC   C1A17861  15.719  16.187  21.604
10279POPC   D2A17862  15.800  16.273  21.765
10279POPC   C3A17863  15.880  16.358  21.927
10279POPC   C4A17864  15.961  16.444  22.089
10279POPC   C1B17865  15.899  16.115  21.552
10279POPC   C2B17866  15.979  16.201  21.714
10279POPC   C3B17867  16.060  16.286  21.876
10279POPC   C4B17868  16.140  16.372  22.038
10280POPC   NC317869  19.180  20.155   8.230
10280POPC   PO417870  19.313  20.302   8.205
10280POPC   GL117871  19.446  20.449   8.180
10280POPC   GL217872  19.406  20.471   8.091
10280POPC   C1A17873  19.579  20.597   8.156
10280POPC   D2A17874  19.712  20.744   8.131
10280POPC   C3A17875  19.845  20.892   8.107
10280POPC   C4A17876  19.978  21.039   8.082
10280POPC   C1B17877  19.705  20.468   8.069
10280POPC   C2B17878  19.838  20.616   8.044
10280POPC   C3B17879  19.971  20.763   8.020
10280POPC   C4B17880  20.104  20.911   7.995
10281POPC   NC317881   7.069  23.037   6.012
10281POPC   PO417882   7.035  23.226   5.956
10281POPC   GL117883   7.001  23.415   5.900
10281POPC   GL217884   7.086  23.414   5.847
10281POPC   C1A17885   6.967  23.604   5.843
10281POPC   D2A17886   6.932  23.792   5.787
10281POPC   C3A17887   6.898  23.981   5.730
10281POPC   C4A17888   6.864  24.170   5.674
10281POPC   C1B17889   7.067  23.670   6.003
10281POPC   C2B17890   7.032  23.858   5.947
10281POPC   C3B17891   6.998  24.047   5.891
10281POPC   C4B17892   6.964  24.236   5.834
10282POPC   NC317893   9.848  10.196  23.810
10282POPC   PO417894   9.843  10.200  24.010
10282POPC   GL117895   9.838  10.204  24.210
10282POPC   GL217896   9.857  10.302  24.209
10282POPC   C1A17897   9.832  10.207  24.410
10282POPC   D2A17898   9.827  10.211  24.609
10282POPC   C3A17899   9.821  10.214  24.809
10282POPC   C4A17900   9.816  10.218  25.009
10282POPC   C1B17901  10.028  10.168  24.416
10282POPC   C2B17902  10.023  10.171  24.615
10282POPC   C3B17903  10.017  10.175  24.815
10282POPC   C4B17904  10.012  10.178  25.015
10283POPC   NC317905  22.467   9.681   4.212
10283POPC   PO417906  22.648   9.678   4.128
10283POPC   GL117907  22.829   9.675   4.044
10283POPC   GL217908  22.811   9.583   4.009
10283POPC   C1A17909  23.011   9.671   3.960
10283POPC   D2A17910  23.192   9.668   3.875
10283POPC   C3A17911  23.374   9.664   3.791
10283POPC   C4A17912  23.555   9.661   3.707
10283POPC   C1B17913  23.087   9.592   4.127
10283POPC   C2B17914  23.268   9.589   4.043
10283POPC   C3B17915  23.450   9.585   3.958
10283POPC   C4B17916  23.631   9.582   3.874
10284POPC   NC317917  23.610  10.464   8.994
10284POPC   PO417918  23.810  10.467   8.985
10284POPC   GL117919  24.010  10.470   8.976
10284POPC   GL217920  24.006  10.558   8.928
10284POPC   C1A17921  24.210  10.473   8.967
10284POPC   D2A17922  24.409  10.476   8.957
10284POPC   C3A17923  24.609  10.479   8.948
10284POPC   C4A17924  24.809  10.482   8.939
10284POPC   C1B17925  24.203  10.377   8.791
10284POPC   C2B17926  24.403  10.380   8.782
10284POPC   C3B17927  24.603  10.383   8.773
10284POPC   C4B17928  24.802  10.386   8.764
10285POPC   NC317929  -3.295   7.011   6.590
10285POPC   PO417930  -3.484   6.968   6.541
10285POPC   GL117931  -3.673   6.925   6.492
10285POPC   GL217932  -3.705   6.976   6.573
10285POPC   C1A17933  -3.862   6.882   6.444
10285POPC   D2A17934  -4.052   6.839   6.395
10285POPC   C3A17935  -4.241   6.796   6.347
10285POPC   C4A17936  -4.430   6.753   6.298
10285POPC   C1B17937  -3.852   6.715   6.553
10285POPC   C2B17938  -4.042   6.672   6.505
10285POPC   C3B17939  -4.231   6.629   6.456
10285POPC   C4B17940  -4.420   6.586   6.408
10286POPC   NC317941  11.756  14.740  22.726
10286POPC   PO417942  11.783  14.810  22.911
10286POPC   GL117943  11.810  14.880  23.096
10286POPC   GL217944  11.867  14.801  23.118
10286POPC   C1A17945  11.838  14.950  23.281
10286POPC   D2A17946  11.865  15.021  23.467
10286POPC   C3A17947  11.893  15.091  23.652
10286POPC   C4A17948  11.920  15.161  23.837
10286POPC   C1B17949  11.676  14.851  23.343
10286POPC   C2B17950  11.703  14.921  23.528
10286POPC   C3B17951  11.731  14.991  23.713
10286POPC   C4B17952  11.758  15.061  23.899
10287POPC   NC317953   9.371  -3.324  13.898
10287POPC   PO417954   9.365  -3.516  13.955
10287POPC   GL117955   9.359  -3.708  14.012
10287POPC   GL217956   9.452  -3.700  14.047
10287POPC   C1A17957   9.352  -3.899  14.069
10287POPC   D2A17958   9.346  -4.091  14.125
10287POPC   C3A17959   9.339  -4.282  14.182
10287POPC   C4A17960   9.333  -4.474  14.239
10287POPC   C1B17961   9.424  -3.954  13.890
10287POPC   C2B17962   9.418  -4.146  13.947
10287POPC   C3B17963   9.411  -4.338  14.004
10287POPC   C4B17964   9.405  -4.529  14.061
10288POPC   NC317965  14.896   8.597  -2.837
10288POPC   PO417966  14.973   8.573  -3.020
10288POPC   GL117967  15.050   8.549  -3.203
10288POPC   GL217968  14.959   8.528  -3.239
10288POPC   C1A17969  15.127   8.525  -3.386
10288POPC   D2A17970  15.205   8.500  -3.569
10288POPC   C3A17971  15.282   8.476  -3.752
10288POPC   C4A17972  15.359   8.452  -3.935
10288POPC   C1B17973  15.156   8.330  -3.348
10288POPC   C2B17974  15.233   8.306  -3.531
10288POPC   C3B17975  15.311   8.282  -3.714
10288POPC   C4B17976  15.388   8.258  -3.897
10289POPC   NC317977  11.279  23.688  11.231
10289POPC   PO417978  11.297  23.886  11.251
10289POPC   GL117979  11.315  24.084  11.271
10289POPC   GL217980  11.408  24.079  11.235
10289POPC   C1A17981  11.333  24.282  11.291
10289POPC   D2A17982  11.352  24.481  11.310
10289POPC   C3A17983  11.370  24.679  11.330
10289POPC   C4A17984  11.388  24.877  11.350
10289POPC   C1B17985  11.404  24.257  11.476
10289POPC   C2B17986  11.422  24.456  11.496
10289POPC   C3B17987  11.440  24.654  11.516
10289POPC   C4B17988  11.459  24.852  11.535
10290POPC   NC317989   3.502   4.112  -0.844
10290POPC   PO417990   3.406   4.021  -0.994
10290POPC   GL117991   3.310   3.930  -1.144
10290POPC   GL217992   3.236   3.905  -1.081
10290POPC   C1A17993   3.214   3.839  -1.293
10290POPC   D2A17994   3.117   3.747  -1.443
10290POPC   C3A17995   3.021   3.656  -1.592
10290POPC   C4A17996   2.925   3.565  -1.742
10290POPC   C1B17997   3.308   3.668  -1.250
10290POPC   C2B17998   3.212   3.576  -1.399
10290POPC   C3B17999   3.116   3.485  -1.549
10290POPC   C4B18000   3.019   3.394  -1.699
10291POPC   NC318001   9.623  12.956  -3.601
10291POPC   PO418002   9.622  13.000  -3.796
10291POPC   GL118003   9.621  13.044  -3.991
10291POPC   GL218004   9.700  12.984  -4.005
10291POPC   C1A18005   9.621  13.088  -4.186
10291POPC   D2A18006   9.620  13.133  -4.381
10291POPC   C3A18007   9.620  13.177  -4.576
10291POPC   C4A18008   9.619  13.221  -4.771
10291POPC   C1B18009   9.745  13.241  -4.152
10291POPC   C2B18010   9.744  13.286  -4.347
10291POPC   C3B18011   9.744  13.330  -4.542
10291POPC   C4B18012   9.743  13.374  -4.737
10292POPC   NC318013   1.345   7.945  -0.785
10292POPC   PO418014   1.220   7.922  -0.940
10292POPC   GL118015   1.095   7.899  -1.095
10292POPC   GL218016   1.032   7.965  -1.054
10292POPC   C1A18017   0.970   7.876  -1.249
10292POPC   D2A18018   0.846   7.852  -1.404
10292POPC   C3A18019   0.721   7.829  -1.558
10292POPC   C4A18020   0.596   7.806  -1.713
10292POPC   C1B18021   0.878   7.727  -1.152
10292POPC   C2B18022   0.753   7.704  -1.307
10292POPC   C3B18023   0.628   7.681  -1.461
10292POPC   C4B18024   0.504   7.658  -1.616
10293POPC   NC318025  10.687   9.899  23.794
10293POPC   PO418026  10.700   9.897  23.994
10293POPC   GL118027  10.713   9.895  24.194
10293POPC   GL218028  10.747   9.989  24.192
10293POPC   C1A18029  10.726   9.893  24.393
10293POPC   D2A18030  10.739   9.890  24.593
10293POPC   C3A18031  10.752   9.888  24.792
10293POPC   C4A18032  10.765   9.886  24.992
10293POPC   C1B18033  10.913   9.824  24.380
10293POPC   C2B18034  10.926   9.822  24.580
10293POPC   C3B18035  10.939   9.820  24.779
10293POPC   C4B18036  10.952   9.817  24.979
10294POPC   NC318037   8.391  19.981  19.359
10294POPC   PO418038   8.364  20.122  19.498
10294POPC   GL118039   8.337  20.263  19.637
10294POPC   GL218040   8.351  20.334  19.568
10294POPC   C1A18041   8.310  20.404  19.776
10294POPC   D2A18042   8.283  20.546  19.915
10294POPC   C3A18043   8.256  20.687  20.054
10294POPC   C4A18044   8.229  20.828  20.193
10294POPC   C1B18045   8.506  20.404  19.814
10294POPC   C2B18046   8.479  20.545  19.953
10294POPC   C3B18047   8.452  20.687  20.092
10294POPC   C4B18048   8.425  20.828  20.231
10295POPC   NC318049  -0.091  12.136  19.318
10295POPC   PO418050  -0.235  12.165  19.454
10295POPC   GL118051  -0.379  12.194  19.590
10295POPC   GL218052  -0.341  12.120  19.645
10295POPC   C1A18053  -0.523  12.222  19.726
10295POPC   D2A18054  -0.667  12.251  19.861
10295POPC   C3A18055  -0.811  12.279  19.997
10295POPC   C4A18056  -0.955  12.308  20.133
10295POPC   C1B18057  -0.639  12.091  19.630
10295POPC   C2B18058  -0.783  12.119  19.766
10295POPC   C3B18059  -0.927  12.148  19.901
10295POPC   C4B18060  -1.071  12.177  20.037
10296POPC   NC318061  17.140  20.638  14.748
10296POPC   PO418062  17.252  20.786  14.823
10296POPC   GL118063  17.364  20.934  14.898
10296POPC   GL218064  17.401  20.871  14.966
10296POPC   C1A18065  17.476  21.082  14.972
10296POPC   D2A18066  17.588  21.230  15.047
10296POPC   C3A18067  17.700  21.378  15.121
10296POPC   C4A18068  17.812  21.526  15.196
10296POPC   C1B18069  17.328  21.131  15.098
10296POPC   C2B18070  17.440  21.279  15.172
10296POPC   C3B18071  17.552  21.427  15.247
10296POPC   C4B18072  17.664  21.575  15.322
10297POPC   NC318073  -2.302   5.522  14.918
10297POPC   PO418074  -2.479   5.452  14.979
10297POPC   GL118075  -2.656   5.382  15.040
10297POPC   GL218076  -2.662   5.455  15.108
10297POPC   C1A18077  -2.833   5.312  15.100
10297POPC   D2A18078  -3.011   5.242  15.161
10297POPC   C3A18079  -3.188   5.172  15.221
10297POPC   C4A18080  -3.365   5.102  15.282
10297POPC   C1B18081  -2.741   5.195  15.234
10297POPC   C2B18082  -2.919   5.125  15.294
10297POPC   C3B18083  -3.096   5.055  15.355
10297POPC   C4B18084  -3.273   4.985  15.415
10298POPC   NC318085   3.315  -1.447  14.311
10298POPC   PO418086   3.222  -1.613  14.372
10298POPC   GL118087   3.129  -1.779  14.433
10298POPC   GL218088   3.204  -1.835  14.397
10298POPC   C1A18089   3.036  -1.945  14.495
10298POPC   D2A18090   2.942  -2.111  14.556
10298POPC   C3A18091   2.849  -2.277  14.618
10298POPC   C4A18092   2.756  -2.443  14.679
10298POPC   C1B18093   2.941  -1.957  14.319
10298POPC   C2B18094   2.848  -2.123  14.380
10298POPC   C3B18095   2.755  -2.289  14.442
10298POPC   C4B18096   2.662  -2.455  14.503
10299POPC   NC318097  11.743  -0.059   0.580
10299POPC   PO418098  11.773  -0.203   0.444
10299POPC   GL118099  11.803  -0.347   0.308
10299POPC   GL218100  11.848  -0.280   0.248
10299POPC   C1A18101  11.834  -0.491   0.173
10299POPC   D2A18102  11.864  -0.634   0.037
10299POPC   C3A18103  11.895  -0.778  -0.098
10299POPC   C4A18104  11.925  -0.922  -0.234
10299POPC   C1B18105  11.657  -0.449   0.089
10299POPC   C2B18106  11.687  -0.593  -0.047
10299POPC   C3B18107  11.718  -0.737  -0.182
10299POPC   C4B18108  11.748  -0.880  -0.318
10300POPC   NC318109  12.974   2.548  -1.325
10300POPC   PO418110  13.013   2.437  -1.487
10300POPC   GL118111  13.052   2.326  -1.649
10300POPC   GL218112  13.145   2.361  -1.650
10300POPC   C1A18113  13.091   2.215  -1.810
10300POPC   D2A18114  13.129   2.103  -1.972
10300POPC   C3A18115  13.168   1.992  -2.133
10300POPC   C4A18116  13.207   1.881  -2.295
10300POPC   C1B18117  13.032   2.365  -1.928
10300POPC   C2B18118  13.071   2.254  -2.090
10300POPC   C3B18119  13.110   2.143  -2.251
10300POPC   C4B18120  13.149   2.032  -2.413
10301POPC   NC318121  20.668   3.601  15.928
10301POPC   PO418122  20.824   3.512  16.015
10301POPC   GL118123  20.980   3.423  16.102
10301POPC   GL218124  21.040   3.498  16.073
10301POPC   C1A18125  21.137   3.333  16.189
10301POPC   D2A18126  21.293   3.244  16.275
10301POPC   C3A18127  21.450   3.154  16.362
10301POPC   C4A18128  21.606   3.065  16.449
10301POPC   C1B18129  21.176   3.237  16.018
10301POPC   C2B18130  21.333   3.148  16.105
10301POPC   C3B18131  21.489   3.058  16.191
10301POPC   C4B18132  21.646   2.969  16.278
10302POPC   NC318133   2.090  21.036   7.405
10302POPC   PO418134   1.978  21.198   7.370
10302POPC   GL118135   1.866  21.360   7.335
10302POPC   GL218136   1.949  21.415   7.326
10302POPC   C1A18137   1.754  21.522   7.299
10302POPC   D2A18138   1.642  21.684   7.264
10302POPC   C3A18139   1.530  21.846   7.228
10302POPC   C4A18140   1.418  22.008   7.193
10302POPC   C1B18141   1.748  21.561   7.495
10302POPC   C2B18142   1.636  21.723   7.460
10302POPC   C3B18143   1.524  21.885   7.424
10302POPC   C4B18144   1.412  22.047   7.389
10303POPC   NC318145  -3.171  14.645  10.841
10303POPC   PO418146  -3.359  14.712  10.855
10303POPC   GL118147  -3.547  14.779  10.869
10303POPC   GL218148  -3.574  14.695  10.915
10303POPC   C1A18149  -3.735  14.847  10.883
10303POPC   D2A18150  -3.922  14.914  10.898
10303POPC   C3A18151  -4.110  14.982  10.912
10303POPC   C4A18152  -4.298  15.049  10.926
10303POPC   C1B18153  -3.778  14.764  10.706
10303POPC   C2B18154  -3.965  14.832  10.721
10303POPC   C3B18155  -4.153  14.899  10.735
10303POPC   C4B18156  -4.341  14.966  10.749
10304POPC   NC318157  20.196   5.840  18.082
10304POPC   PO418158  20.346   5.782  18.201
10304POPC   GL118159  20.496   5.724  18.320
10304POPC   GL218160  20.509   5.643  18.264
10304POPC   C1A18161  20.646   5.666  18.439
10304POPC   D2A18162  20.795   5.608  18.559
10304POPC   C3A18163  20.945   5.550  18.678
10304POPC   C4A18164  21.095   5.492  18.797
10304POPC   C1B18165  20.516   5.565  18.553
10304POPC   C2B18166  20.666   5.507  18.673
10304POPC   C3B18167  20.815   5.449  18.792
10304POPC   C4B18168  20.965   5.391  18.911
10305POPC   NC318169   8.017   4.855  -2.793
10305POPC   PO418170   7.999   4.786  -2.980
10305POPC   GL118171   7.981   4.717  -3.167
10305POPC   GL218172   8.068   4.759  -3.191
10305POPC   C1A18173   7.963   4.647  -3.354
10305POPC   D2A18174   7.945   4.578  -3.540
10305POPC   C3A18175   7.927   4.508  -3.727
10305POPC   C4A18176   7.909   4.439  -3.914
10305POPC   C1B18177   7.868   4.815  -3.407
10305POPC   C2B18178   7.850   4.745  -3.593
10305POPC   C3B18179   7.832   4.676  -3.780
10305POPC   C4B18180   7.814   4.607  -3.967
10306POPC   NC318181  16.566  -1.870   7.509
10306POPC   PO418182  16.658  -2.043   7.472
10306POPC   GL118183  16.750  -2.216   7.435
10306POPC   GL218184  16.836  -2.167   7.420
10306POPC   C1A18185  16.843  -2.390   7.398
10306POPC   D2A18186  16.935  -2.563   7.360
10306POPC   C3A18187  17.028  -2.737   7.323
10306POPC   C4A18188  17.120  -2.910   7.286
10306POPC   C1B18189  16.798  -2.372   7.203
10306POPC   C2B18190  16.890  -2.545   7.166
10306POPC   C3B18191  16.983  -2.719   7.129
10306POPC   C4B18192  17.075  -2.892   7.092
10307POPC   NC318193   8.378  14.555  22.926
10307POPC   PO418194   8.357  14.614  23.116
10307POPC   GL118195   8.336  14.673  23.306
10307POPC   GL218196   8.402  14.603  23.335
10307POPC   C1A18197   8.315  14.731  23.496
10307POPC   D2A18198   8.295  14.790  23.686
10307POPC   C3A18199   8.274  14.848  23.876
10307POPC   C4A18200   8.253  14.907  24.066
10307POPC   C1B18201   8.166  14.600  23.520
10307POPC   C2B18202   8.145  14.659  23.710
10307POPC   C3B18203   8.124  14.718  23.900
10307POPC   C4B18204   8.104  14.776  24.090
10308POPC   NC318205  19.389   0.376   6.913
10308POPC   PO418206  19.527   0.238   6.870
10308POPC   GL118207  19.665   0.100   6.827
10308POPC   GL218208  19.679   0.142   6.737
10308POPC   C1A18209  19.804  -0.038   6.784
10308POPC   D2A18210  19.942  -0.175   6.740
10308POPC   C3A18211  20.081  -0.313   6.697
10308POPC   C4A18212  20.219  -0.451   6.654
10308POPC   C1B18213  19.662  -0.156   6.707
10308POPC   C2B18214  19.800  -0.294   6.663
10308POPC   C3B18215  19.939  -0.431   6.620
10308POPC   C4B18216  20.077  -0.569   6.577
10309POPC   NC318217  11.720  19.226  -0.202
10309POPC   PO418218  11.738  19.358  -0.351
10309POPC   GL118219  11.756  19.490  -0.500
10309POPC   GL218220  11.843  19.522  -0.462
10309POPC   C1A18221  11.775  19.621  -0.650
10309POPC   D2A18222  11.793  19.753  -0.799
10309POPC   C3A18223  11.812  19.884  -0.949
10309POPC   C4A18224  11.830  20.016  -1.098
10309POPC   C1B18225  11.676  19.758  -0.542
10309POPC   C2B18226  11.694  19.889  -0.691
10309POPC   C3B18227  11.713  20.021  -0.841
10309POPC   C4B18228  11.731  20.152  -0.990
10310POPC   NC318229  21.283   4.747   4.000
10310POPC   PO418230  21.445   4.669   3.913
10310POPC   GL118231  21.607   4.591   3.826
10310POPC   GL218232  21.632   4.681   3.790
10310POPC   C1A18233  21.769   4.512   3.739
10310POPC   D2A18234  21.931   4.434   3.651
10310POPC   C3A18235  22.093   4.355   3.564
10310POPC   C4A18236  22.255   4.277   3.477
10310POPC   C1B18237  21.663   4.476   3.573
10310POPC   C2B18238  21.825   4.398   3.486
10310POPC   C3B18239  21.987   4.320   3.399
10310POPC   C4B18240  22.149   4.241   3.311
10311POPC   NC318241  16.128  22.119  12.325
10311POPC   PO418242  16.213  22.299  12.345
10311POPC   GL118243  16.298  22.479  12.365
10311POPC   GL218244  16.377  22.448  12.311
10311POPC   C1A18245  16.383  22.659  12.384
10311POPC   D2A18246  16.469  22.838  12.404
10311POPC   C3A18247  16.554  23.018  12.423
10311POPC   C4A18248  16.639  23.198  12.443
10311POPC   C1B18249  16.473  22.598  12.552
10311POPC   C2B18250  16.559  22.777  12.572
10311POPC   C3B18251  16.644  22.957  12.591
10311POPC   C4B18252  16.729  23.137  12.611
10312POPC   NC318253  17.992  12.577  20.701
10312POPC   PO418254  18.112  12.622  20.854
10312POPC   GL118255  18.232  12.667  21.007
10312POPC   GL218256  18.310  12.675  20.944
10312POPC   C1A18257  18.352  12.712  21.160
10312POPC   D2A18258  18.473  12.758  21.314
10312POPC   C3A18259  18.593  12.803  21.467
10312POPC   C4A18260  18.713  12.848  21.620
10312POPC   C1B18261  18.393  12.518  21.186
10312POPC   C2B18262  18.513  12.563  21.339
10312POPC   C3B18263  18.633  12.609  21.492
10312POPC   C4B18264  18.753  12.654  21.646
10313POPC   NC318265   8.944  -3.501  13.065
10313POPC   PO418266   8.932  -3.697  13.102
10313POPC   GL118267   8.920  -3.893  13.139
10313POPC   GL218268   8.937  -3.912  13.042
10313POPC   C1A18269   8.908  -4.089  13.176
10313POPC   D2A18270   8.895  -4.286  13.212
10313POPC   C3A18271   8.883  -4.482  13.249
10313POPC   C4A18272   8.871  -4.678  13.286
10313POPC   C1B18273   8.711  -4.084  13.139
10313POPC   C2B18274   8.699  -4.280  13.176
10313POPC   C3B18275   8.687  -4.477  13.212
10313POPC   C4B18276   8.674  -4.673  13.249
10314POPC   NC318277   0.200   1.604   4.493
10314POPC   PO418278   0.058   1.483   4.420
10314POPC   GL118279  -0.084   1.362   4.347
10314POPC   GL218280  -0.025   1.283   4.365
10314POPC   C1A18281  -0.225   1.241   4.274
10314POPC   D2A18282  -0.367   1.121   4.201
10314POPC   C3A18283  -0.508   1.000   4.128
10314POPC   C4A18284  -0.650   0.879   4.055
10314POPC   C1B18285  -0.145   1.258   4.091
10314POPC   C2B18286  -0.287   1.137   4.018
10314POPC   C3B18287  -0.429   1.017   3.945
10314POPC   C4B18288  -0.570   0.896   3.872
10315POPC   NC318289  19.956  18.526   5.976
10315POPC   PO418290  20.106  18.645   5.920
10315POPC   GL118291  20.256  18.764   5.864
10315POPC   GL218292  20.274  18.705   5.786
10315POPC   C1A18293  20.406  18.884   5.808
10315POPC   D2A18294  20.557  19.003   5.751
10315POPC   C3A18295  20.707  19.123   5.695
10315POPC   C4A18296  20.857  19.242   5.639
10315POPC   C1B18297  20.533  18.777   5.919
10315POPC   C2B18298  20.683  18.896   5.863
10315POPC   C3B18299  20.834  19.015   5.807
10315POPC   C4B18300  20.984  19.135   5.751
10316POPC   NC318301   6.484  15.212  22.413
10316POPC   PO418302   6.438  15.287  22.593
10316POPC   GL118303   6.392  15.362  22.773
10316POPC   GL218304   6.489  15.379  22.790
10316POPC   C1A18305   6.346  15.437  22.952
10316POPC   D2A18306   6.301  15.512  23.132
10316POPC   C3A18307   6.255  15.587  23.311
10316POPC   C4A18308   6.209  15.662  23.491
10316POPC   C1B18309   6.364  15.255  23.033
10316POPC   C2B18310   6.318  15.330  23.212
10316POPC   C3B18311   6.273  15.405  23.392
10316POPC   C4B18312   6.227  15.480  23.572
10317POPC   NC318313  21.277   2.128  10.559
10317POPC   PO418314  21.443   2.016  10.565
10317POPC   GL118315  21.609   1.904  10.571
10317POPC   GL218316  21.665   1.987  10.567
10317POPC   C1A18317  21.775   1.793  10.576
10317POPC   D2A18318  21.940   1.681  10.582
10317POPC   C3A18319  22.106   1.570  10.587
10317POPC   C4A18320  22.272   1.458  10.593
10317POPC   C1B18321  21.775   1.784  10.376
10317POPC   C2B18322  21.941   1.672  10.382
10317POPC   C3B18323  22.107   1.561  10.388
10317POPC   C4B18324  22.273   1.449  10.393
10318POPC   NC318325  12.917  20.727  18.068
10318POPC   PO418326  12.958  20.883  18.186
10318POPC   GL118327  12.999  21.039  18.304
10318POPC   GL218328  13.071  20.986  18.350
10318POPC   C1A18329  13.041  21.195  18.422
10318POPC   D2A18330  13.082  21.351  18.541
10318POPC   C3A18331  13.124  21.507  18.659
10318POPC   C4A18332  13.165  21.663  18.777
10318POPC   C1B18333  12.906  21.130  18.555
10318POPC   C2B18334  12.948  21.286  18.674
10318POPC   C3B18335  12.989  21.442  18.792
10318POPC   C4B18336  13.031  21.598  18.910
10319POPC   NC318337  15.668  12.495  -2.419
10319POPC   PO418338  15.754  12.526  -2.597
10319POPC   GL118339  15.840  12.557  -2.775
10319POPC   GL218340  15.776  12.491  -2.817
10319POPC   C1A18341  15.926  12.587  -2.953
10319POPC   D2A18342  16.011  12.618  -3.131
10319POPC   C3A18343  16.097  12.648  -3.309
10319POPC   C4A18344  16.183  12.679  -3.487
10319POPC   C1B18345  16.054  12.438  -2.916
10319POPC   C2B18346  16.140  12.469  -3.094
10319POPC   C3B18347  16.226  12.500  -3.272
10319POPC   C4B18348  16.312  12.530  -3.450
10320POPC   NC318349   4.059  21.919  13.804
10320POPC   PO418350   3.972  22.090  13.860
10320POPC   GL118351   3.885  22.261  13.916
10320POPC   GL218352   3.965  22.283  13.973
10320POPC   C1A18353   3.799  22.432  13.972
10320POPC   D2A18354   3.712  22.604  14.029
10320POPC   C3A18355   3.626  22.775  14.085
10320POPC   C4A18356   3.539  22.946  14.141
10320POPC   C1B18357   3.715  22.339  14.128
10320POPC   C2B18358   3.628  22.510  14.184
10320POPC   C3B18359   3.542  22.681  14.240
10320POPC   C4B18360   3.455  22.852  14.296
10321POPC   NC318361  15.620  20.309  17.102
10321POPC   PO418362  15.708  20.459  17.201
10321POPC   GL118363  15.796  20.609  17.300
10321POPC   GL218364  15.799  20.663  17.216
10321POPC   C1A18365  15.884  20.759  17.400
10321POPC   D2A18366  15.971  20.908  17.499
10321POPC   C3A18367  16.059  21.058  17.599
10321POPC   C4A18368  16.147  21.208  17.698
10321POPC   C1B18369  16.063  20.682  17.356
10321POPC   C2B18370  16.151  20.832  17.456
10321POPC   C3B18371  16.239  20.982  17.555
10321POPC   C4B18372  16.327  21.131  17.655
10322POPC   NC318373   6.800  21.300  17.353
10322POPC   PO418374   6.756  21.462  17.462
10322POPC   GL118375   6.712  21.624  17.571
10322POPC   GL218376   6.808  21.632  17.598
10322POPC   C1A18377   6.668  21.785  17.680
10322POPC   D2A18378   6.623  21.947  17.790
10322POPC   C3A18379   6.579  22.108  17.899
10322POPC   C4A18380   6.535  22.270  18.008
10322POPC   C1B18381   6.633  21.669  17.839
10322POPC   C2B18382   6.589  21.830  17.948
10322POPC   C3B18383   6.545  21.992  18.058
10322POPC   C4B18384   6.501  22.153  18.167
10323POPC   NC318385  16.704  -0.668  15.619
10323POPC   PO418386  16.806  -0.821  15.698
10323POPC   GL118387  16.908  -0.974  15.777
10323POPC   GL218388  16.988  -0.915  15.789
10323POPC   C1A18389  17.010  -1.127  15.855
10323POPC   D2A18390  17.113  -1.280  15.934
10323POPC   C3A18391  17.215  -1.433  16.012
10323POPC   C4A18392  17.317  -1.586  16.091
10323POPC   C1B18393  17.076  -1.177  15.673
10323POPC   C2B18394  17.178  -1.330  15.752
10323POPC   C3B18395  17.280  -1.483  15.830
10323POPC   C4B18396  17.382  -1.636  15.909
10324POPC   NC318397  14.603  20.581  17.468
10324POPC   PO418398  14.671  20.736  17.575
10324POPC   GL118399  14.739  20.891  17.682
10324POPC   GL218400  14.784  20.827  17.745
10324POPC   C1A18401  14.807  21.046  17.789
10324POPC   D2A18402  14.874  21.200  17.895
10324POPC   C3A18403  14.942  21.355  18.002
10324POPC   C4A18404  15.010  21.510  18.109
10324POPC   C1B18405  14.642  21.040  17.902
10324POPC   C2B18406  14.710  21.195  18.008
10324POPC   C3B18407  14.777  21.349  18.115
10324POPC   C4B18408  14.845  21.504  18.222
10325POPC   NC318409   2.806  16.744   0.051
10325POPC   PO418410   2.704  16.836  -0.095
10325POPC   GL118411   2.602  16.928  -0.241
10325POPC   GL218412   2.687  16.971  -0.273
10325POPC   C1A18413   2.501  17.020  -0.386
10325POPC   D2A18414   2.399  17.112  -0.532
10325POPC   C3A18415   2.298  17.204  -0.677
10325POPC   C4A18416   2.196  17.296  -0.823
10325POPC   C1B18417   2.468  17.176  -0.265
10325POPC   C2B18418   2.366  17.268  -0.410
10325POPC   C3B18419   2.265  17.360  -0.556
10325POPC   C4B18420   2.163  17.452  -0.702
10326POPC   NC318421  -0.786  15.141   2.696
10326POPC   PO418422  -0.944  15.221   2.604
10326POPC   GL118423  -1.102  15.301   2.512
10326POPC   GL218424  -1.117  15.362   2.589
10326POPC   C1A18425  -1.261  15.381   2.419
10326POPC   D2A18426  -1.419  15.460   2.327
10326POPC   C3A18427  -1.578  15.540   2.234
10326POPC   C4A18428  -1.736  15.620   2.142
10326POPC   C1B18429  -1.379  15.244   2.504
10326POPC   C2B18430  -1.538  15.324   2.412
10326POPC   C3B18431  -1.696  15.403   2.320
10326POPC   C4B18432  -1.854  15.483   2.227
10327POPC   NC318433  17.121  20.884   5.256
10327POPC   PO418434  17.223  21.039   5.182
10327POPC   GL118435  17.325  21.194   5.108
10327POPC   GL218436  17.399  21.177   5.173
10327POPC   C1A18437  17.427  21.349   5.033
10327POPC   D2A18438  17.529  21.505   4.959
10327POPC   C3A18439  17.631  21.660   4.884
10327POPC   C4A18440  17.733  21.815   4.810
10327POPC   C1B18441  17.339  21.471   5.165
10327POPC   C2B18442  17.441  21.626   5.091
10327POPC   C3B18443  17.543  21.781   5.016
10327POPC   C4B18444  17.645  21.936   4.942
10328POPC   NC318445  18.632  19.707  14.106
10328POPC   PO418446  18.760  19.846  14.172
10328POPC   GL118447  18.888  19.985  14.238
10328POPC   GL218448  18.931  19.917  14.297
10328POPC   C1A18449  19.016  20.124  14.303
10328POPC   D2A18450  19.143  20.263  14.369
10328POPC   C3A18451  19.271  20.402  14.434
10328POPC   C4A18452  19.399  20.541  14.500
10328POPC   C1B18453  18.888  20.172  14.450
10328POPC   C2B18454  19.016  20.311  14.515
10328POPC   C3B18455  19.144  20.450  14.581
10328POPC   C4B18456  19.272  20.589  14.646
10329POPC   NC318457   3.918  22.101  12.946
10329POPC   PO418458   3.832  22.275  12.992
10329POPC   GL118459   3.746  22.449  13.038
10329POPC   GL218460   3.823  22.472  13.098
10329POPC   C1A18461   3.659  22.624  13.085
10329POPC   D2A18462   3.573  22.798  13.131
10329POPC   C3A18463   3.486  22.973  13.178
10329POPC   C4A18464   3.400  23.147  13.224
10329POPC   C1B18465   3.566  22.537  13.239
10329POPC   C2B18466   3.480  22.711  13.286
10329POPC   C3B18467   3.394  22.886  13.332
10329POPC   C4B18468   3.307  23.060  13.378
10330POPC   NC318469  19.589   2.072   4.012
10330POPC   PO418470  19.728   1.959   3.924
10330POPC   GL118471  19.867   1.846   3.836
10330POPC   GL218472  19.935   1.918   3.850
10330POPC   C1A18473  20.007   1.733   3.748
10330POPC   D2A18474  20.146   1.620   3.659
10330POPC   C3A18475  20.286   1.507   3.571
10330POPC   C4A18476  20.425   1.394   3.483
10330POPC   C1B18477  19.960   1.813   3.571
10330POPC   C2B18478  20.099   1.700   3.482
10330POPC   C3B18479  20.238   1.587   3.394
10330POPC   C4B18480  20.378   1.474   3.306
10331POPC   NC318481  -2.907   8.045   4.954
10331POPC   PO418482  -3.092   8.023   4.880
10331POPC   GL118483  -3.277   8.001   4.806
10331POPC   GL218484  -3.288   7.917   4.859
10331POPC   C1A18485  -3.461   7.979   4.732
10331POPC   D2A18486  -3.646   7.956   4.659
10331POPC   C3A18487  -3.830   7.934   4.585
10331POPC   C4A18488  -4.015   7.912   4.511
10331POPC   C1B18489  -3.387   7.872   4.580
10331POPC   C2B18490  -3.572   7.850   4.506
10331POPC   C3B18491  -3.757   7.828   4.432
10331POPC   C4B18492  -3.941   7.806   4.358
10332POPC   NC318493   8.127  21.865  16.895
10332POPC   PO418494   8.100  22.036  16.995
10332POPC   GL118495   8.073  22.207  17.095
10332POPC   GL218496   8.173  22.219  17.102
10332POPC   C1A18497   8.047  22.379  17.194
10332POPC   D2A18498   8.020  22.550  17.294
10332POPC   C3A18499   7.994  22.722  17.393
10332POPC   C4A18500   7.967  22.893  17.493
10332POPC   C1B18501   8.045  22.278  17.367
10332POPC   C2B18502   8.019  22.449  17.467
10332POPC   C3B18503   7.992  22.621  17.566
10332POPC   C4B18504   7.966  22.792  17.666
10333POPC   NC318505  14.016   4.125  -1.968
10333POPC   PO418506  14.071   4.044  -2.143
10333POPC   GL118507  14.126   3.963  -2.318
10333POPC   GL218508  14.075   4.034  -2.366
10333POPC   C1A18509  14.181   3.882  -2.492
10333POPC   D2A18510  14.236   3.802  -2.667
10333POPC   C3A18511  14.291   3.721  -2.841
10333POPC   C4A18512  14.346   3.640  -3.016
10333POPC   C1B18513  14.018   3.766  -2.490
10333POPC   C2B18514  14.073   3.686  -2.665
10333POPC   C3B18515  14.128   3.605  -2.839
10333POPC   C4B18516  14.183   3.524  -3.014
10334POPC   NC318517   6.779  -2.842   5.762
10334POPC   PO418518   6.735  -3.027   5.700
10334POPC   GL118519   6.691  -3.212   5.638
10334POPC   GL218520   6.759  -3.249   5.701
10334POPC   C1A18521   6.646  -3.397   5.576
10334POPC   D2A18522   6.602  -3.582   5.515
10334POPC   C3A18523   6.557  -3.767   5.453
10334POPC   C4A18524   6.513  -3.952   5.391
10334POPC   C1B18525   6.786  -3.383   5.434
10334POPC   C2B18526   6.741  -3.568   5.372
10334POPC   C3B18527   6.697  -3.753   5.310
10334POPC   C4B18528   6.652  -3.938   5.248
10335POPC   NC318529  10.920  21.272  17.897
10335POPC   PO418530  10.944  21.432  18.014
10335POPC   GL118531  10.968  21.592  18.131
10335POPC   GL218532  10.985  21.532  18.210
10335POPC   C1A18533  10.992  21.752  18.249
10335POPC   D2A18534  11.016  21.913  18.366
10335POPC   C3A18535  11.040  22.073  18.484
10335POPC   C4A18536  11.064  22.233  18.601
10335POPC   C1B18537  10.796  21.751  18.290
10335POPC   C2B18538  10.820  21.911  18.408
10335POPC   C3B18539  10.844  22.071  18.525
10335POPC   C4B18540  10.868  22.232  18.643
10336POPC   NC318541   3.135  18.007   0.760
10336POPC   PO418542   3.037  18.123   0.630
10336POPC   GL118543   2.939  18.239   0.500
10336POPC   GL218544   3.025  18.267   0.459
10336POPC   C1A18545   2.840  18.355   0.370
10336POPC   D2A18546   2.742  18.470   0.240
10336POPC   C3A18547   2.643  18.586   0.110
10336POPC   C4A18548   2.545  18.702  -0.020
10336POPC   C1B18549   2.851  18.508   0.498
10336POPC   C2B18550   2.752  18.623   0.368
10336POPC   C3B18551   2.654  18.739   0.238
10336POPC   C4B18552   2.556  18.855   0.108
10337POPC   NC318553   4.297  14.213  -2.027
10337POPC   PO418554   4.213  14.274  -2.198
10337POPC   GL118555   4.129  14.335  -2.369
10337POPC   GL218556   4.072  14.399  -2.318
10337POPC   C1A18557   4.046  14.396  -2.540
10337POPC   D2A18558   3.962  14.456  -2.712
10337POPC   C3A18559   3.879  14.517  -2.883
10337POPC   C4A18560   3.795  14.578  -3.054
10337POPC   C1B18561   3.905  14.255  -2.521
10337POPC   C2B18562   3.821  14.316  -2.693
10337POPC   C3B18563   3.737  14.377  -2.864
10337POPC   C4B18564   3.654  14.438  -3.035
10338POPC   NC318565  23.520  10.789  11.643
10338POPC   PO418566  23.719  10.798  11.663
10338POPC   GL118567  23.918  10.807  11.683
10338POPC   GL218568  23.922  10.873  11.608
10338POPC   C1A18569  24.117  10.817  11.704
10338POPC   D2A18570  24.315  10.826  11.724
10338POPC   C3A18571  24.514  10.836  11.745
10338POPC   C4A18572  24.713  10.845  11.765
10338POPC   C1B18573  24.137  10.666  11.574
10338POPC   C2B18574  24.336  10.676  11.594
10338POPC   C3B18575  24.535  10.685  11.615
10338POPC   C4B18576  24.733  10.694  11.635
10339POPC   NC318577  18.982  12.998  19.751
10339POPC   PO418578  19.110  13.046  19.897
10339POPC   GL118579  19.238  13.094  20.043
10339POPC   GL218580  19.236  13.189  20.014
10339POPC   C1A18581  19.366  13.141  20.189
10339POPC   D2A18582  19.495  13.189  20.334
10339POPC   C3A18583  19.623  13.236  20.480
10339POPC   C4A18584  19.751  13.284  20.626
10339POPC   C1B18585  19.520  13.108  20.065
10339POPC   C2B18586  19.648  13.156  20.210
10339POPC   C3B18587  19.776  13.203  20.356
10339POPC   C4B18588  19.904  13.251  20.502
10340POPC   NC318589  22.378  15.520  12.094
10340POPC   PO418590  22.558  15.601  12.124
10340POPC   GL118591  22.738  15.682  12.154
10340POPC   GL218592  22.725  15.741  12.074
10340POPC   C1A18593  22.918  15.764  12.184
10340POPC   D2A18594  23.099  15.845  12.214
10340POPC   C3A18595  23.279  15.927  12.244
10340POPC   C4A18596  23.459  16.008  12.274
10340POPC   C1B18597  23.001  15.623  12.068
10340POPC   C2B18598  23.181  15.705  12.098
10340POPC   C3B18599  23.362  15.786  12.128
10340POPC   C4B18600  23.542  15.867  12.158
10341POPC   NC318601   7.867  19.723  19.506
10341POPC   PO418602   7.834  19.862  19.646
10341POPC   GL118603   7.801  20.001  19.786
10341POPC   GL218604   7.835  20.072  19.724
10341POPC   C1A18605   7.768  20.140  19.926
10341POPC   D2A18606   7.735  20.279  20.065
10341POPC   C3A18607   7.702  20.418  20.205
10341POPC   C4A18608   7.669  20.557  20.345
10341POPC   C1B18609   7.953  20.113  19.996
10341POPC   C2B18610   7.920  20.252  20.136
10341POPC   C3B18611   7.887  20.391  20.276
10341POPC   C4B18612   7.854  20.530  20.415
10342POPC   NC318613   7.552  -1.811   3.089
10342POPC   PO418614   7.521  -1.982   2.990
10342POPC   GL118615   7.490  -2.153   2.891
10342POPC   GL218616   7.569  -2.194   2.938
10342POPC   C1A18617   7.460  -2.324   2.792
10342POPC   D2A18618   7.429  -2.496   2.694
10342POPC   C3A18619   7.399  -2.667   2.595
10342POPC   C4A18620   7.368  -2.838   2.496
10342POPC   C1B18621   7.580  -2.261   2.646
10342POPC   C2B18622   7.550  -2.433   2.547
10342POPC   C3B18623   7.519  -2.604   2.448
10342POPC   C4B18624   7.489  -2.775   2.349
10343POPC   NC318625  20.524  16.200   3.589
10343POPC   PO418626  20.676  16.292   3.497
10343POPC   GL118627  20.828  16.384   3.405
10343POPC   GL218628  20.763  16.426   3.341
10343POPC   C1A18629  20.979  16.476   3.313
10343POPC   D2A18630  21.131  16.569   3.220
10343POPC   C3A18631  21.282  16.661   3.128
10343POPC   C4A18632  21.434  16.753   3.036
10343POPC   C1B18633  20.999  16.320   3.189
10343POPC   C2B18634  21.150  16.413   3.097
10343POPC   C3B18635  21.302  16.505   3.005
10343POPC   C4B18636  21.454  16.597   2.912
10344POPC   NC318637  14.111  19.735  18.822
10344POPC   PO418638  14.168  19.881  18.947
10344POPC   GL118639  14.225  20.027  19.072
10344POPC   GL218640  14.264  19.959  19.134
10344POPC   C1A18641  14.281  20.173  19.197
10344POPC   D2A18642  14.338  20.318  19.321
10344POPC   C3A18643  14.394  20.464  19.446
10344POPC   C4A18644  14.451  20.610  19.571
10344POPC   C1B18645  14.106  20.159  19.292
10344POPC   C2B18646  14.163  20.304  19.417
10344POPC   C3B18647  14.219  20.450  19.542
10344POPC   C4B18648  14.276  20.596  19.667
10345POPC   NC318649  16.993  17.003  19.495
10345POPC   PO418650  17.101  17.095  19.636
10345POPC   GL118651  17.209  17.187  19.777
10345POPC   GL218652  17.293  17.154  19.735
10345POPC   C1A18653  17.316  17.280  19.918
10345POPC   D2A18654  17.424  17.372  20.059
10345POPC   C3A18655  17.531  17.465  20.200
10345POPC   C4A18656  17.639  17.557  20.341
10345POPC   C1B18657  17.307  17.116  20.032
10345POPC   C2B18658  17.415  17.208  20.173
10345POPC   C3B18659  17.523  17.301  20.314
10345POPC   C4B18660  17.630  17.393  20.455
10346POPC   NC318661  -2.233   7.664  16.379
10346POPC   PO418662  -2.410   7.641  16.470
10346POPC   GL118663  -2.587   7.618  16.561
10346POPC   GL218664  -2.588   7.716  16.583
10346POPC   C1A18665  -2.763   7.595  16.652
10346POPC   D2A18666  -2.940   7.573  16.743
10346POPC   C3A18667  -3.116   7.550  16.834
10346POPC   C4A18668  -3.293   7.527  16.925
10346POPC   C1B18669  -2.669   7.558  16.825
10346POPC   C2B18670  -2.846   7.536  16.916
10346POPC   C3B18671  -3.023   7.513  17.007
10346POPC   C4B18672  -3.199   7.490  17.098
10347POPC   NC318673   4.782  -2.209  14.165
10347POPC   PO418674   4.709  -2.385  14.225
10347POPC   GL118675   4.636  -2.561  14.285
10347POPC   GL218676   4.729  -2.595  14.299
10347POPC   C1A18677   4.563  -2.737  14.345
10347POPC   D2A18678   4.490  -2.914  14.406
10347POPC   C3A18679   4.417  -3.090  14.466
10347POPC   C4A18680   4.344  -3.266  14.526
10347POPC   C1B18681   4.567  -2.803  14.157
10347POPC   C2B18682   4.494  -2.980  14.217
10347POPC   C3B18683   4.421  -3.156  14.277
10347POPC   C4B18684   4.348  -3.332  14.337
10348POPC   NC318685  17.153  -1.251  13.405
10348POPC   PO418686  17.259  -1.413  13.455
10348POPC   GL118687  17.365  -1.575  13.505
10348POPC   GL218688  17.425  -1.560  13.426
10348POPC   C1A18689  17.471  -1.737  13.554
10348POPC   D2A18690  17.578  -1.900  13.604
10348POPC   C3A18691  17.684  -2.062  13.653
10348POPC   C4A18692  17.790  -2.224  13.703
10348POPC   C1B18693  17.352  -1.850  13.441
10348POPC   C2B18694  17.458  -2.013  13.490
10348POPC   C3B18695  17.564  -2.175  13.540
10348POPC   C4B18696  17.670  -2.337  13.590
10349POPC   NC318697  20.520   5.594   2.222
10349POPC   PO418698  20.668   5.524   2.107
10349POPC   GL118699  20.816   5.454   1.992
10349POPC   GL218700  20.782   5.508   1.915
10349POPC   C1A18701  20.964   5.384   1.877
10349POPC   D2A18702  21.113   5.315   1.763
10349POPC   C3A18703  21.261   5.245   1.648
10349POPC   C4A18704  21.409   5.175   1.533
10349POPC   C1B18705  20.849   5.230   1.823
10349POPC   C2B18706  20.998   5.160   1.708
10349POPC   C3B18707  21.146   5.091   1.593
10349POPC   C4B18708  21.294   5.021   1.478
10350POPC   NC318709  21.788  12.135  16.718
10350POPC   PO418710  21.962  12.166  16.811
10350POPC   GL118711  22.136  12.197  16.904
10350POPC   GL218712  22.152  12.098  16.906
10350POPC   C1A18713  22.310  12.227  16.997
10350POPC   D2A18714  22.485  12.258  17.091
10350POPC   C3A18715  22.659  12.288  17.184
10350POPC   C4A18716  22.833  12.319  17.277
10350POPC   C1B18717  22.218  12.216  17.174
10350POPC   C2B18718  22.392  12.246  17.268
10350POPC   C3B18719  22.566  12.277  17.361
10350POPC   C4B18720  22.740  12.308  17.454
10351POPC   NC318721   3.768   9.353  -2.501
10351POPC   PO418722   3.677   9.347  -2.679
10351POPC   GL118723   3.586   9.341  -2.857
10351POPC   GL218724   3.545   9.253  -2.833
10351POPC   C1A18725   3.495   9.335  -3.035
10351POPC   D2A18726   3.404   9.330  -3.213
10351POPC   C3A18727   3.313   9.324  -3.391
10351POPC   C4A18728   3.222   9.318  -3.569
10351POPC   C1B18729   3.653   9.240  -3.113
10351POPC   C2B18730   3.562   9.234  -3.291
10351POPC   C3B18731   3.471   9.228  -3.469
10351POPC   C4B18732   3.380   9.222  -3.647
10352POPC   NC318733  16.732  19.359   2.523
10352POPC   PO418734  16.835  19.493   2.417
10352POPC   GL118735  16.938  19.627   2.311
10352POPC   GL218736  16.939  19.565   2.233
10352POPC   C1A18737  17.042  19.762   2.205
10352POPC   D2A18738  17.145  19.896   2.099
10352POPC   C3A18739  17.249  20.031   1.993
10352POPC   C4A18740  17.352  20.165   1.887
10352POPC   C1B18741  17.213  19.681   2.270
10352POPC   C2B18742  17.316  19.816   2.164
10352POPC   C3B18743  17.420  19.950   2.058
10352POPC   C4B18744  17.523  20.085   1.952
10353POPC   NC318745   7.666  13.467  -3.326
10353POPC   PO418746   7.636  13.517  -3.517
10353POPC   GL118747   7.606  13.567  -3.708
10353POPC   GL218748   7.632  13.661  -3.688
10353POPC   C1A18749   7.577  13.617  -3.900
10353POPC   D2A18750   7.547  13.667  -4.091
10353POPC   C3A18751   7.518  13.717  -4.283
10353POPC   C4A18752   7.488  13.767  -4.474
10353POPC   C1B18753   7.386  13.659  -3.859
10353POPC   C2B18754   7.356  13.709  -4.051
10353POPC   C3B18755   7.326  13.759  -4.242
10353POPC   C4B18756   7.297  13.809  -4.433
10354POPC   NC318757  17.637  20.863  13.417
10354POPC   PO418758  17.755  21.012  13.479
10354POPC   GL118759  17.873  21.161  13.541
10354POPC   GL218760  17.907  21.103  13.615
10354POPC   C1A18761  17.991  21.310  13.602
10354POPC   D2A18762  18.110  21.460  13.664
10354POPC   C3A18763  18.228  21.609  13.725
10354POPC   C4A18764  18.346  21.758  13.787
10354POPC   C1B18765  17.845  21.377  13.721
10354POPC   C2B18766  17.963  21.526  13.783
10354POPC   C3B18767  18.082  21.676  13.844
10354POPC   C4B18768  18.200  21.825  13.906
10355POPC   NC318769   5.450   7.096  -2.919
10355POPC   PO418770   5.388   7.058  -3.105
10355POPC   GL118771   5.326   7.020  -3.291
10355POPC   GL218772   5.375   6.932  -3.289
10355POPC   C1A18773   5.265   6.981  -3.478
10355POPC   D2A18774   5.203   6.943  -3.664
10355POPC   C3A18775   5.142   6.904  -3.851
10355POPC   C4A18776   5.080   6.866  -4.037
10355POPC   C1B18777   5.429   7.070  -3.550
10355POPC   C2B18778   5.367   7.032  -3.737
10355POPC   C3B18779   5.305   6.994  -3.923
10355POPC   C4B18780   5.244   6.955  -4.109
10356POPC   NC318781  20.540   9.377   1.206
10356POPC   PO418782  20.697   9.375   1.083
10356POPC   GL118783  20.854   9.373   0.960
10356POPC   GL218784  20.810   9.441   0.901
10356POPC   C1A18785  21.012   9.371   0.836
10356POPC   D2A18786  21.169   9.368   0.713
10356POPC   C3A18787  21.327   9.366   0.589
10356POPC   C4A18788  21.484   9.364   0.466
10356POPC   C1B18789  20.927   9.224   0.730
10356POPC   C2B18790  21.084   9.222   0.607
10356POPC   C3B18791  21.242   9.220   0.483
10356POPC   C4B18792  21.399   9.217   0.360
10357POPC   NC318793   8.821  13.812  -3.354
10357POPC   PO418794   8.810  13.868  -3.546
10357POPC   GL118795   8.799  13.924  -3.738
10357POPC   GL218796   8.847  13.840  -3.765
10357POPC   C1A18797   8.787  13.979  -3.930
10357POPC   D2A18798   8.776  14.035  -4.121
10357POPC   C3A18799   8.764  14.090  -4.313
10357POPC   C4A18800   8.753  14.146  -4.505
10357POPC   C1B18801   8.962  14.075  -3.912
10357POPC   C2B18802   8.950  14.131  -4.104
10357POPC   C3B18803   8.939  14.186  -4.296
10357POPC   C4B18804   8.928  14.242  -4.488
10358POPC   NC318805   1.543  15.850  19.246
10358POPC   PO418806   1.425  15.932  19.385
10358POPC   GL118807   1.307  16.014  19.524
10358POPC   GL218808   1.387  16.036  19.579
10358POPC   C1A18809   1.189  16.096  19.663
10358POPC   D2A18810   1.071  16.179  19.802
10358POPC   C3A18811   0.953  16.261  19.941
10358POPC   C4A18812   0.835  16.343  20.080
10358POPC   C1B18813   1.175  15.920  19.756
10358POPC   C2B18814   1.057  16.002  19.895
10358POPC   C3B18815   0.939  16.084  20.034
10358POPC   C4B18816   0.821  16.166  20.173
10359POPC   NC318817   3.708  13.429  21.854
10359POPC   PO418818   3.612  13.480  22.022
10359POPC   GL118819   3.516  13.531  22.190
10359POPC   GL218820   3.568  13.617  22.193
10359POPC   C1A18821   3.420  13.583  22.358
10359POPC   D2A18822   3.324  13.634  22.525
10359POPC   C3A18823   3.228  13.686  22.693
10359POPC   C4A18824   3.132  13.737  22.861
10359POPC   C1B18825   3.561  13.492  22.466
10359POPC   C2B18826   3.465  13.543  22.634
10359POPC   C3B18827   3.369  13.595  22.802
10359POPC   C4B18828   3.273  13.646  22.970
10360POPC   NC318829  -3.578   6.698   9.535
10360POPC   PO418830  -3.771   6.645   9.529
10360POPC   GL118831  -3.964   6.592   9.523
10360POPC   GL218832  -3.943   6.510   9.576
10360POPC   C1A18833  -4.156   6.538   9.517
10360POPC   D2A18834  -4.349   6.485   9.511
10360POPC   C3A18835  -4.541   6.431   9.505
10360POPC   C4A18836  -4.734   6.378   9.499
10360POPC   C1B18837  -4.123   6.437   9.348
10360POPC   C2B18838  -4.316   6.384   9.342
10360POPC   C3B18839  -4.508   6.330   9.336
10360POPC   C4B18840  -4.701   6.277   9.330
10361POPC   NC318841  23.106   9.659   5.983
10361POPC   PO418842  23.299   9.654   5.929
10361POPC   GL118843  23.492   9.649   5.875
10361POPC   GL218844  23.478   9.558   5.836
10361POPC   C1A18845  23.684   9.644   5.822
10361POPC   D2A18846  23.877   9.638   5.768
10361POPC   C3A18847  24.069   9.633   5.715
10361POPC   C4A18848  24.262   9.628   5.661
10361POPC   C1B18849  23.731   9.560   5.997
10361POPC   C2B18850  23.923   9.555   5.944
10361POPC   C3B18851  24.116   9.549   5.890
10361POPC   C4B18852  24.309   9.544   5.837
10362POPC   NC318853   1.128  13.401  -0.241
10362POPC   PO418854   1.006  13.445  -0.393
10362POPC   GL118855   0.884  13.489  -0.545
10362POPC   GL218856   0.808  13.500  -0.481
10362POPC   C1A18857   0.762  13.533  -0.697
10362POPC   D2A18858   0.639  13.578  -0.849
10362POPC   C3A18859   0.517  13.622  -1.001
10362POPC   C4A18860   0.395  13.666  -1.153
10362POPC   C1B18861   0.717  13.340  -0.717
10362POPC   C2B18862   0.595  13.384  -0.869
10362POPC   C3B18863   0.472  13.428  -1.021
10362POPC   C4B18864   0.350  13.472  -1.173
10363POPC   NC318865  21.260  15.578  15.608
10363POPC   PO418866  21.427  15.657  15.685
10363POPC   GL118867  21.594  15.736  15.762
10363POPC   GL218868  21.644  15.711  15.679
10363POPC   C1A18869  21.761  15.814  15.839
10363POPC   D2A18870  21.927  15.893  15.917
10363POPC   C3A18871  22.094  15.971  15.994
10363POPC   C4A18872  22.261  16.050  16.071
10363POPC   C1B18873  21.807  15.637  15.920
10363POPC   C2B18874  21.974  15.716  15.997
10363POPC   C3B18875  22.140  15.794  16.074
10363POPC   C4B18876  22.307  15.873  16.151
10364POPC   NC318877   7.672  21.443   2.546
10364POPC   PO418878   7.641  21.605   2.434
10364POPC   GL118879   7.610  21.767   2.322
10364POPC   GL218880   7.656  21.824   2.390
10364POPC   C1A18881   7.579  21.930   2.209
10364POPC   D2A18882   7.547  22.092   2.097
10364POPC   C3A18883   7.516  22.255   1.984
10364POPC   C4A18884   7.485  22.417   1.872
10364POPC   C1B18885   7.404  21.961   2.302
10364POPC   C2B18886   7.373  22.123   2.190
10364POPC   C3B18887   7.342  22.286   2.078
10364POPC   C4B18888   7.311  22.448   1.965
10365POPC   NC318889  17.817  20.982  12.730
10365POPC   PO418890  17.938  21.132  12.782
10365POPC   GL118891  18.059  21.282  12.834
10365POPC   GL218892  18.137  21.233  12.795
10365POPC   C1A18893  18.181  21.433  12.886
10365POPC   D2A18894  18.302  21.583  12.937
10365POPC   C3A18895  18.424  21.734  12.989
10365POPC   C4A18896  18.545  21.884  13.041
10365POPC   C1B18897  18.214  21.345  13.062
10365POPC   C2B18898  18.336  21.495  13.114
10365POPC   C3B18899  18.457  21.646  13.166
10365POPC   C4B18900  18.578  21.796  13.218
10366POPC   NC318901  10.325   6.314  -3.364
10366POPC   PO418902  10.327   6.259  -3.556
10366POPC   GL118903  10.329   6.204  -3.748
10366POPC   GL218904  10.389   6.280  -3.770
10366POPC   C1A18905  10.331   6.149  -3.940
10366POPC   D2A18906  10.332   6.093  -4.133
10366POPC   C3A18907  10.334   6.038  -4.325
10366POPC   C4A18908  10.336   5.983  -4.517
10366POPC   C1B18909  10.171   6.265  -3.975
10366POPC   C2B18910  10.173   6.209  -4.167
10366POPC   C3B18911  10.175   6.154  -4.360
10366POPC   C4B18912  10.177   6.099  -4.552
10367POPC   NC318913  14.438  23.024   9.718
10367POPC   PO418914  14.511  23.210   9.712
10367POPC   GL118915  14.584  23.396   9.706
10367POPC   GL218916  14.632  23.375   9.621
10367POPC   C1A18917  14.657  23.582   9.701
10367POPC   D2A18918  14.731  23.768   9.695
10367POPC   C3A18919  14.804  23.954   9.690
10367POPC   C4A18920  14.877  24.140   9.684
10367POPC   C1B18921  14.818  23.522   9.805
10367POPC   C2B18922  14.891  23.708   9.799
10367POPC   C3B18923  14.964  23.894   9.793
10367POPC   C4B18924  15.037  24.080   9.788
10368POPC   NC318925  -1.006  16.452   4.351
10368POPC   PO418926  -1.168  16.538   4.271
10368POPC   GL118927  -1.330  16.624   4.191
10368POPC   GL218928  -1.338  16.683   4.271
10368POPC   C1A18929  -1.492  16.710   4.111
10368POPC   D2A18930  -1.654  16.795   4.030
10368POPC   C3A18931  -1.816  16.881   3.950
10368POPC   C4A18932  -1.978  16.967   3.870
10368POPC   C1B18933  -1.608  16.574   4.200
10368POPC   C2B18934  -1.770  16.659   4.120
10368POPC   C3B18935  -1.932  16.745   4.040
10368POPC   C4B18936  -2.094  16.831   3.959
10369POPC   NC318937  16.482  19.551  17.398
10369POPC   PO418938  16.581  19.694  17.497
10369POPC   GL118939  16.680  19.837  17.596
10369POPC   GL218940  16.657  19.902  17.524
10369POPC   C1A18941  16.779  19.980  17.695
10369POPC   D2A18942  16.878  20.122  17.794
10369POPC   C3A18943  16.977  20.265  17.893
10369POPC   C4A18944  17.076  20.408  17.992
10369POPC   C1B18945  16.947  19.931  17.598
10369POPC   C2B18946  17.046  20.074  17.697
10369POPC   C3B18947  17.145  20.216  17.796
10369POPC   C4B18948  17.244  20.359  17.895
10370POPC   NC318949   5.429  -2.700   6.538
10370POPC   PO418950   5.369  -2.884   6.486
10370POPC   GL118951   5.309  -3.068   6.434
10370POPC   GL218952   5.391  -3.079   6.378
10370POPC   C1A18953   5.250  -3.252   6.383
10370POPC   D2A18954   5.190  -3.435   6.331
10370POPC   C3A18955   5.131  -3.619   6.280
10370POPC   C4A18956   5.071  -3.803   6.228
10370POPC   C1B18957   5.152  -3.176   6.226
10370POPC   C2B18958   5.092  -3.360   6.174
10370POPC   C3B18959   5.033  -3.543   6.123
10370POPC   C4B18960   4.973  -3.727   6.071
10371POPC   NC318961  -3.976  11.085   9.407
10371POPC   PO418962  -4.175  11.103   9.393
10371POPC   GL118963  -4.374  11.121   9.379
10371POPC   GL218964  -4.366  11.219   9.401
10371POPC   C1A18965  -4.572  11.140   9.365
10371POPC   D2A18966  -4.771  11.158   9.351
10371POPC   C3A18967  -4.969  11.177   9.337
10371POPC   C4A18968  -5.168  11.195   9.323
10371POPC   C1B18969  -4.590  11.097   9.560
10371POPC   C2B18970  -4.789  11.115   9.546
10371POPC   C3B18971  -4.987  11.134   9.532
10371POPC   C4B18972  -5.186  11.152   9.518
10372POPC   NC318973  13.385  23.300   8.525
10372POPC   PO418974  13.438  23.491   8.501
10372POPC   GL118975  13.491  23.682   8.477
10372POPC   GL218976  13.542  23.658   8.395
10372POPC   C1A18977  13.544  23.874   8.453
10372POPC   D2A18978  13.597  24.065   8.429
10372POPC   C3A18979  13.650  24.257   8.405
10372POPC   C4A18980  13.703  24.448   8.381
10372POPC   C1B18981  13.707  23.842   8.564
10372POPC   C2B18982  13.760  24.034   8.540
10372POPC   C3B18983  13.813  24.225   8.516
10372POPC   C4B18984  13.866  24.417   8.492
10373POPC   NC318985   6.490   2.714  -1.427
10373POPC   PO418986   6.436   2.603  -1.585
10373POPC   GL118987   6.382   2.492  -1.743
10373POPC   GL218988   6.451   2.424  -1.718
10373POPC   C1A18989   6.328   2.381  -1.900
10373POPC   D2A18990   6.275   2.271  -2.058
10373POPC   C3A18991   6.221   2.160  -2.215
10373POPC   C4A18992   6.167   2.049  -2.373
10373POPC   C1B18993   6.463   2.477  -2.013
10373POPC   C2B18994   6.409   2.367  -2.171
10373POPC   C3B18995   6.355   2.256  -2.329
10373POPC   C4B18996   6.301   2.145  -2.486
10374POPC   NC318997  14.107   3.008  -1.323
10374POPC   PO418998  14.160   2.903  -1.485
10374POPC   GL118999  14.213   2.798  -1.647
10374POPC   GL219000  14.193   2.878  -1.705
10374POPC   C1A19001  14.265   2.693  -1.809
10374POPC   D2A19002  14.318   2.589  -1.971
10374POPC   C3A19003  14.370   2.484  -2.133
10374POPC   C4A19004  14.423   2.379  -2.295
10374POPC   C1B19005  14.076   2.631  -1.830
10374POPC   C2B19006  14.129   2.527  -1.992
10374POPC   C3B19007  14.181   2.422  -2.154
10374POPC   C4B19008  14.234   2.317  -2.316
10375POPC   NC319009   8.458   5.704  -3.122
10375POPC   PO419010   8.444   5.644  -3.312
10375POPC   GL119011   8.430   5.584  -3.502
10375POPC   GL219012   8.446   5.489  -3.474
10375POPC   C1A19013   8.416   5.524  -3.692
10375POPC   D2A19014   8.402   5.463  -3.883
10375POPC   C3A19015   8.388   5.403  -4.073
10375POPC   C4A19016   8.374   5.343  -4.263
10375POPC   C1B19017   8.613   5.550  -3.715
10375POPC   C2B19018   8.599   5.490  -3.905
10375POPC   C3B19019   8.585   5.430  -4.096
10375POPC   C4B19020   8.571   5.369  -4.286
10376POPC   NC319021  16.723   0.959  17.852
10376POPC   PO419022  16.824   0.831  17.967
10376POPC   GL119023  16.925   0.703  18.082
10376POPC   GL219024  16.926   0.636  18.008
10376POPC   C1A19025  17.026   0.574  18.198
10376POPC   D2A19026  17.127   0.446  18.313
10376POPC   C3A19027  17.228   0.317  18.429
10376POPC   C4A19028  17.329   0.189  18.544
10376POPC   C1B19029  16.853   0.497  18.263
10376POPC   C2B19030  16.954   0.369  18.379
10376POPC   C3B19031  17.055   0.240  18.494
10376POPC   C4B19032  17.156   0.112  18.609
10377POPC   NC319033  18.991  12.168  -0.258
10377POPC   PO419034  19.124  12.198  -0.405
10377POPC   GL119035  19.257  12.228  -0.552
10377POPC   GL219036  19.263  12.129  -0.566
10377POPC   C1A19037  19.390  12.258  -0.698
10377POPC   D2A19038  19.522  12.287  -0.845
10377POPC   C3A19039  19.655  12.317  -0.991
10377POPC   C4A19040  19.788  12.347  -1.138
10377POPC   C1B19041  19.539  12.247  -0.565
10377POPC   C2B19042  19.671  12.277  -0.712
10377POPC   C3B19043  19.804  12.306  -0.859
10377POPC   C4B19044  19.937  12.336  -1.005
10378POPC   NC319045  16.926  18.152  18.665
10378POPC   PO419046  17.031  18.268  18.789
10378POPC   GL119047  17.136  18.384  18.913
10378POPC   GL219048  17.220  18.360  18.865
10378POPC   C1A19049  17.242  18.500  19.037
10378POPC   D2A19050  17.347  18.616  19.162
10378POPC   C3A19051  17.453  18.732  19.286
10378POPC   C4A19052  17.558  18.848  19.410
10378POPC   C1B19053  17.268  18.345  19.161
10378POPC   C2B19054  17.373  18.461  19.285
10378POPC   C3B19055  17.478  18.577  19.409
10378POPC   C4B19056  17.584  18.693  19.533
10379POPC   NC319057  -3.852  10.259   8.114
10379POPC   PO419058  -4.048  10.269   8.075
10379POPC   GL119059  -4.244  10.279   8.036
10379POPC   GL219060  -4.255  10.186   8.069
10379POPC   C1A19061  -4.440  10.289   7.997
10379POPC   D2A19062  -4.636  10.300   7.959
10379POPC   C3A19063  -4.832  10.310   7.920
10379POPC   C4A19064  -5.028  10.320   7.881
10379POPC   C1B19065  -4.407  10.220   7.813
10379POPC   C2B19066  -4.603  10.231   7.774
10379POPC   C3B19067  -4.799  10.241   7.735
10379POPC   C4B19068  -4.995  10.251   7.696
10380POPC   NC319069  -3.947   8.496   9.192
10380POPC   PO419070  -4.145   8.473   9.183
10380POPC   GL119071  -4.343   8.450   9.174
10380POPC   GL219072  -4.356   8.532   9.230
10380POPC   C1A19073  -4.542   8.427   9.165
10380POPC   D2A19074  -4.740   8.403   9.155
10380POPC   C3A19075  -4.939   8.380   9.146
10380POPC   C4A19076  -5.137   8.357   9.137
10380POPC   C1B19077  -4.536   8.314   9.330
10380POPC   C2B19078  -4.735   8.291   9.321
10380POPC   C3B19079  -4.933   8.268   9.312
10380POPC   C4B19080  -5.132   8.245   9.302
10381POPC   NC319081  -0.141  19.065  13.004
10381POPC   PO419082  -0.289  19.192  13.050
10381POPC   GL119083  -0.437  19.319  13.096
10381POPC   GL219084  -0.460  19.263  13.175
10381POPC   C1A19085  -0.584  19.446  13.141
10381POPC   D2A19086  -0.732  19.573  13.187
10381POPC   C3A19087  -0.879  19.700  13.232
10381POPC   C4A19088  -1.027  19.827  13.278
10381POPC   C1B19089  -0.711  19.339  13.030
10381POPC   C2B19090  -0.859  19.466  13.075
10381POPC   C3B19091  -1.006  19.593  13.121
10381POPC   C4B19092  -1.154  19.720  13.166
10382POPC   NC319093  11.878   8.814  23.589
10382POPC   PO419094  11.916   8.796  23.784
10382POPC   GL119095  11.954   8.778  23.979
10382POPC   GL219096  11.976   8.681  23.966
10382POPC   C1A19097  11.992   8.760  24.175
10382POPC   D2A19098  12.031   8.741  24.370
10382POPC   C3A19099  12.069   8.723  24.566
10382POPC   C4A19100  12.107   8.705  24.761
10382POPC   C1B19101  11.801   8.712  24.208
10382POPC   C2B19102  11.839   8.694  24.403
10382POPC   C3B19103  11.877   8.676  24.599
10382POPC   C4B19104  11.915   8.658  24.794
10383POPC   NC319105   2.002  17.848  18.206
10383POPC   PO419106   1.888  17.956  18.330
10383POPC   GL119107   1.774  18.064  18.454
10383POPC   GL219108   1.848  18.130  18.464
10383POPC   C1A19109   1.660  18.172  18.577
10383POPC   D2A19110   1.545  18.280  18.701
10383POPC   C3A19111   1.431  18.388  18.824
10383POPC   C4A19112   1.317  18.496  18.948
10383POPC   C1B19113   1.730  18.068  18.733
10383POPC   C2B19114   1.616  18.176  18.857
10383POPC   C3B19115   1.501  18.284  18.980
10383POPC   C4B19116   1.387  18.392  19.104
10384POPC   NC319117  15.412  -2.220  13.370
10384POPC   PO419118  15.492  -2.397  13.419
10384POPC   GL119119  15.572  -2.574  13.468
10384POPC   GL219120  15.614  -2.532  13.549
10384POPC   C1A19121  15.651  -2.750  13.518
10384POPC   D2A19122  15.731  -2.927  13.567
10384POPC   C3A19123  15.810  -3.103  13.617
10384POPC   C4A19124  15.890  -3.280  13.666
10384POPC   C1B19125  15.814  -2.707  13.410
10384POPC   C2B19126  15.894  -2.884  13.459
10384POPC   C3B19127  15.973  -3.060  13.509
10384POPC   C4B19128  16.053  -3.237  13.558
10385POPC   NC319129  23.463   9.104  12.229
10385POPC   PO419130  23.661   9.096  12.254
10385POPC   GL119131  23.859   9.088  12.279
10385POPC   GL219132  23.872   9.139  12.194
10385POPC   C1A19133  24.057   9.080  12.304
10385POPC   D2A19134  24.256   9.072  12.330
10385POPC   C3A19135  24.454   9.064  12.355
10385POPC   C4A19136  24.652   9.056  12.380
10385POPC   C1B19137  24.063   8.908  12.203
10385POPC   C2B19138  24.262   8.900  12.228
10385POPC   C3B19139  24.460   8.892  12.253
10385POPC   C4B19140  24.658   8.884  12.279
10386POPC   NC319141  22.406  11.604  15.591
10386POPC   PO419142  22.588  11.631  15.669
10386POPC   GL119143  22.770  11.658  15.747
10386POPC   GL219144  22.801  11.574  15.703
10386POPC   C1A19145  22.952  11.685  15.826
10386POPC   D2A19146  23.134  11.711  15.904
10386POPC   C3A19147  23.316  11.738  15.983
10386POPC   C4A19148  23.498  11.765  16.061
10386POPC   C1B19149  22.898  11.579  15.987
10386POPC   C2B19150  23.080  11.606  16.066
10386POPC   C3B19151  23.262  11.633  16.144
10386POPC   C4B19152  23.444  11.660  16.222
10387POPC   NC319153   8.153  12.649  -3.577
10387POPC   PO419154   8.130  12.687  -3.772
10387POPC   GL119155   8.107  12.725  -3.967
10387POPC   GL219156   8.202  12.696  -3.984
10387POPC   C1A19157   8.085  12.762  -4.162
10387POPC   D2A19158   8.062  12.800  -4.358
10387POPC   C3A19159   8.040  12.837  -4.553
10387POPC   C4A19160   8.017  12.875  -4.748
10387POPC   C1B19161   8.148  12.950  -4.134
10387POPC   C2B19162   8.125  12.987  -4.329
10387POPC   C3B19163   8.103  13.025  -4.524
10387POPC   C4B19164   8.080  13.063  -4.719
10388POPC   NC319165  14.333   2.229  -0.680
10388POPC   PO419166  14.392   2.110  -0.829
10388POPC   GL119167  14.451   1.991  -0.978
10388POPC   GL219168  14.447   2.068  -1.042
10388POPC   C1A19169  14.510   1.871  -1.128
10388POPC   D2A19170  14.568   1.752  -1.277
10388POPC   C3A19171  14.627   1.632  -1.427
10388POPC   C4A19172  14.686   1.513  -1.576
10388POPC   C1B19173  14.319   1.828  -1.169
10388POPC   C2B19174  14.377   1.709  -1.318
10388POPC   C3B19175  14.436   1.589  -1.467
10388POPC   C4B19176  14.495   1.470  -1.617
10389POPC   NC319177  12.641  -0.155  18.806
10389POPC   PO419178  12.675  -0.301  18.938
10389POPC   GL119179  12.709  -0.447  19.070
10389POPC   GL219180  12.765  -0.385  19.124
10389POPC   C1A19181  12.742  -0.594  19.202
10389POPC   D2A19182  12.776  -0.740  19.335
10389POPC   C3A19183  12.809  -0.887  19.467
10389POPC   C4A19184  12.843  -1.033  19.599
10389POPC   C1B19185  12.903  -0.651  19.098
10389POPC   C2B19186  12.937  -0.797  19.231
10389POPC   C3B19187  12.970  -0.944  19.363
10389POPC   C4B19188  13.004  -1.090  19.495
10390POPC   NC319189   9.425  14.043  23.151
10390POPC   PO419190   9.424  14.105  23.341
10390POPC   GL119191   9.423  14.167  23.531
10390POPC   GL219192   9.492  14.098  23.554
10390POPC   C1A19193   9.422  14.229  23.721
10390POPC   D2A19194   9.420  14.290  23.912
10390POPC   C3A19195   9.419  14.352  24.102
10390POPC   C4A19196   9.418  14.414  24.292
10390POPC   C1B19197   9.277  14.097  23.763
10390POPC   C2B19198   9.276  14.159  23.953
10390POPC   C3B19199   9.275  14.221  24.144
10390POPC   C4B19200   9.273  14.282  24.334
10391POPC   NC319201   9.888  23.814  10.014
10391POPC   PO419202   9.889  24.014  10.015
10391POPC   GL119203   9.890  24.214  10.016
10391POPC   GL219204   9.982  24.214   9.978
10391POPC   C1A19205   9.891  24.414  10.017
10391POPC   D2A19206   9.891  24.614  10.019
10391POPC   C3A19207   9.892  24.814  10.020
10391POPC   C4A19208   9.893  25.014  10.021
10391POPC   C1B19209   9.966  24.413  10.203
10391POPC   C2B19210   9.967  24.613  10.204
10391POPC   C3B19211   9.968  24.813  10.205
10391POPC   C4B19212   9.969  25.013  10.206
10392POPC   NC319213  14.454  -0.338  17.933
10392POPC   PO419214  14.515  -0.484  18.055
10392POPC   GL119215  14.576  -0.630  18.177
10392POPC   GL219216  14.565  -0.697  18.103
10392POPC   C1A19217  14.638  -0.776  18.299
10392POPC   D2A19218  14.699  -0.922  18.421
10392POPC   C3A19219  14.761  -1.068  18.543
10392POPC   C4A19220  14.822  -1.214  18.665
10392POPC   C1B19221  14.449  -0.807  18.357
10392POPC   C2B19222  14.510  -0.953  18.479
10392POPC   C3B19223  14.572  -1.099  18.601
10392POPC   C4B19224  14.633  -1.245  18.723
10393POPC   NC319225  -0.470   2.782   4.009
10393POPC   PO419226  -0.619   2.675   3.929
10393POPC   GL119227  -0.768   2.568   3.849
10393POPC   GL219228  -0.719   2.484   3.871
10393POPC   C1A19229  -0.916   2.461   3.769
10393POPC   D2A19230  -1.065   2.354   3.688
10393POPC   C3A19231  -1.213   2.247   3.608
10393POPC   C4A19232  -1.362   2.140   3.528
10393POPC   C1B19233  -0.825   2.468   3.591
10393POPC   C2B19234  -0.974   2.361   3.510
10393POPC   C3B19235  -1.122   2.254   3.430
10393POPC   C4B19236  -1.271   2.147   3.350
10394POPC   NC319237  19.851   5.739   1.345
10394POPC   PO419238  19.990   5.670   1.219
10394POPC   GL119239  20.129   5.601   1.093
10394POPC   GL219240  20.058   5.552   1.042
10394POPC   C1A19241  20.268   5.532   0.967
10394POPC   D2A19242  20.407   5.462   0.840
10394POPC   C3A19243  20.546   5.393   0.714
10394POPC   C4A19244  20.685   5.324   0.588
10394POPC   C1B19245  20.294   5.371   1.083
10394POPC   C2B19246  20.433   5.302   0.957
10394POPC   C3B19247  20.572   5.233   0.831
10394POPC   C4B19248  20.711   5.164   0.705
10395POPC   NC319249   1.273  18.883   3.743
10395POPC   PO419250   1.153  19.018   3.657
10395POPC   GL119251   1.033  19.153   3.571
10395POPC   GL219252   0.976  19.155   3.653
10395POPC   C1A19253   0.912  19.287   3.485
10395POPC   D2A19254   0.792  19.422   3.399
10395POPC   C3A19255   0.671  19.556   3.313
10395POPC   C4A19256   0.551  19.691   3.227
10395POPC   C1B19257   0.800  19.139   3.411
10395POPC   C2B19258   0.679  19.274   3.325
10395POPC   C3B19259   0.559  19.409   3.239
10395POPC   C4B19260   0.439  19.543   3.153
10396POPC   NC319261  14.549   2.096  -0.484
10396POPC   PO419262  14.611   1.976  -0.631
10396POPC   GL119263  14.673   1.856  -0.778
10396POPC   GL219264  14.662   1.930  -0.844
10396POPC   C1A19265  14.736   1.736  -0.925
10396POPC   D2A19266  14.798   1.615  -1.073
10396POPC   C3A19267  14.861   1.495  -1.220
10396POPC   C4A19268  14.923   1.375  -1.367
10396POPC   C1B19269  14.547   1.678  -0.958
10396POPC   C2B19270  14.610   1.558  -1.106
10396POPC   C3B19271  14.672   1.438  -1.253
10396POPC   C4B19272  14.734   1.317  -1.400
10397POPC   NC319273  16.320  10.266  -2.269
10397POPC   PO419274  16.414  10.269  -2.446
10397POPC   GL119275  16.508  10.272  -2.623
10397POPC   GL219276  16.435  10.330  -2.660
10397POPC   C1A19277  16.602  10.275  -2.799
10397POPC   D2A19278  16.695  10.278  -2.976
10397POPC   C3A19279  16.789  10.281  -3.152
10397POPC   C4A19280  16.883  10.284  -3.329
10397POPC   C1B19281  16.500  10.112  -2.856
10397POPC   C2B19282  16.594  10.115  -3.032
10397POPC   C3B19283  16.688  10.118  -3.209
10397POPC   C4B19284  16.782  10.121  -3.385
10398POPC   NC319285   3.653  -0.954  15.793
10398POPC   PO419286   3.564  -1.110  15.881
10398POPC   GL119287   3.475  -1.266  15.969
10398POPC   GL219288   3.563  -1.295  16.007
10398POPC   C1A19289   3.386  -1.422  16.057
10398POPC   D2A19290   3.298  -1.579  16.144
10398POPC   C3A19291   3.209  -1.735  16.232
10398POPC   C4A19292   3.120  -1.891  16.320
10398POPC   C1B19293   3.422  -1.534  15.894
10398POPC   C2B19294   3.333  -1.690  15.982
10398POPC   C3B19295   3.244  -1.846  16.070
10398POPC   C4B19296   3.155  -2.002  16.158
10399POPC   NC319297   1.944   2.546   1.439
10399POPC   PO419298   1.834   2.438   1.311
10399POPC   GL119299   1.724   2.330   1.183
10399POPC   GL219300   1.661   2.307   1.257
10399POPC   C1A19301   1.614   2.223   1.055
10399POPC   D2A19302   1.505   2.115   0.928
10399POPC   C3A19303   1.395   2.008   0.800
10399POPC   C4A19304   1.285   1.900   0.672
10399POPC   C1B19305   1.724   2.061   1.098
10399POPC   C2B19306   1.614   1.953   0.970
10399POPC   C3B19307   1.504   1.846   0.843
10399POPC   C4B19308   1.394   1.738   0.715
10400POPC   NC319309  14.501   6.861  -2.681
10400POPC   PO419310  14.574   6.818  -2.862
10400POPC   GL119311  14.647   6.775  -3.043
10400POPC   GL219312  14.565   6.813  -3.085
10400POPC   C1A19313  14.720   6.732  -3.224
10400POPC   D2A19314  14.793   6.689  -3.406
10400POPC   C3A19315  14.866   6.646  -3.587
10400POPC   C4A19316  14.939   6.603  -3.768
10400POPC   C1B19317  14.632   6.552  -3.217
10400POPC   C2B19318  14.705   6.509  -3.398
10400POPC   C3B19319  14.778   6.466  -3.579
10400POPC   C4B19320  14.851   6.423  -3.761
10401POPC   NC319321   2.255   9.531  21.605
10401POPC   PO419322   2.141   9.523  21.769
10401POPC   GL119323   2.027   9.515  21.933
10401POPC   GL219324   2.108   9.497  21.989
10401POPC   C1A19325   1.913   9.507  22.097
10401POPC   D2A19326   1.799   9.500  22.262
10401POPC   C3A19327   1.685   9.492  22.426
10401POPC   C4A19328   1.571   9.484  22.590
10401POPC   C1B19329   1.888   9.311  22.071
10401POPC   C2B19330   1.774   9.303  22.235
10401POPC   C3B19331   1.660   9.295  22.399
10401POPC   C4B19332   1.546   9.287  22.563
10402POPC   NC319333   4.577  21.320   4.031
10402POPC   PO419334   4.494  21.481   3.946
10402POPC   GL119335   4.411  21.642   3.861
10402POPC   GL219336   4.455  21.701   3.928
10402POPC   C1A19337   4.327  21.802   3.776
10402POPC   D2A19338   4.244  21.963   3.690
10402POPC   C3A19339   4.160  22.123   3.605
10402POPC   C4A19340   4.077  22.284   3.520
10402POPC   C1B19341   4.169  21.784   3.897
10402POPC   C2B19342   4.086  21.945   3.811
10402POPC   C3B19343   4.002  22.106   3.726
10402POPC   C4B19344   3.919  22.266   3.641
10403POPC   NC319345  18.398  20.657  12.212
10403POPC   PO419346  18.525  20.806  12.253
10403POPC   GL119347  18.652  20.955  12.294
10403POPC   GL219348  18.725  20.906  12.246
10403POPC   C1A19349  18.779  21.104  12.335
10403POPC   D2A19350  18.907  21.252  12.375
10403POPC   C3A19351  19.034  21.401  12.416
10403POPC   C4A19352  19.161  21.550  12.457
10403POPC   C1B19353  18.831  21.013  12.505
10403POPC   C2B19354  18.958  21.161  12.546
10403POPC   C3B19355  19.086  21.310  12.587
10403POPC   C4B19356  19.213  21.459  12.627
10404POPC   NC319357   6.466  12.051  -3.366
10404POPC   PO419358   6.417  12.078  -3.558
10404POPC   GL119359   6.368  12.105  -3.750
10404POPC   GL219360   6.405  12.198  -3.746
10404POPC   C1A19361   6.319  12.132  -3.942
10404POPC   D2A19362   6.271  12.158  -4.135
10404POPC   C3A19363   6.222  12.185  -4.327
10404POPC   C4A19364   6.173  12.212  -4.519
10404POPC   C1B19365   6.140  12.200  -3.887
10404POPC   C2B19366   6.091  12.227  -4.079
10404POPC   C3B19367   6.042  12.253  -4.272
10404POPC   C4B19368   5.993  12.280  -4.464
10405POPC   NC319369  13.178  22.083  15.797
10405POPC   PO419370  13.228  22.256  15.883
10405POPC   GL119371  13.278  22.429  15.969
10405POPC   GL219372  13.306  22.380  16.052
10405POPC   C1A19373  13.328  22.603  16.055
10405POPC   D2A19374  13.377  22.776  16.142
10405POPC   C3A19375  13.427  22.950  16.228
10405POPC   C4A19376  13.477  23.123  16.314
10405POPC   C1B19377  13.142  22.620  16.129
10405POPC   C2B19378  13.192  22.793  16.215
10405POPC   C3B19379  13.242  22.967  16.301
10405POPC   C4B19380  13.292  23.140  16.387
10406POPC   NC319381   9.582   8.527  -3.816
10406POPC   PO419382   9.574   8.504  -4.015
10406POPC   GL119383   9.566   8.481  -4.214
10406POPC   GL219384   9.666   8.477  -4.217
10406POPC   C1A19385   9.558   8.458  -4.412
10406POPC   D2A19386   9.551   8.434  -4.611
10406POPC   C3A19387   9.543   8.411  -4.809
10406POPC   C4A19388   9.535   8.388  -5.008
10406POPC   C1B19389   9.565   8.656  -4.436
10406POPC   C2B19390   9.558   8.633  -4.634
10406POPC   C3B19391   9.550   8.610  -4.833
10406POPC   C4B19392   9.542   8.586  -5.031
10407POPC   NC319393  22.111  16.312   9.129
10407POPC   PO419394  22.289  16.402   9.113
10407POPC   GL119395  22.467  16.492   9.097
10407POPC   GL219396  22.486  16.439   9.015
10407POPC   C1A19397  22.645  16.581   9.082
10407POPC   D2A19398  22.824  16.671   9.066
10407POPC   C3A19399  23.002  16.760   9.051
10407POPC   C4A19400  23.180  16.850   9.035
10407POPC   C1B19401  22.728  16.437   9.193
10407POPC   C2B19402  22.906  16.527   9.178
10407POPC   C3B19403  23.084  16.616   9.162
10407POPC   C4B19404  23.262  16.706   9.147
10408POPC   NC319405  -2.762  11.397   4.488
10408POPC   PO419406  -2.948  11.418   4.416
10408POPC   GL119407  -3.134  11.439   4.344
10408POPC   GL219408  -3.170  11.430   4.437
10408POPC   C1A19409  -3.319  11.460   4.272
10408POPC   D2A19410  -3.505  11.480   4.201
10408POPC   C3A19411  -3.690  11.501   4.129
10408POPC   C4A19412  -3.876  11.522   4.057
10408POPC   C1B19413  -3.332  11.262   4.248
10408POPC   C2B19414  -3.517  11.282   4.176
10408POPC   C3B19415  -3.703  11.303   4.104
10408POPC   C4B19416  -3.889  11.324   4.032
10409POPC   NC319417   8.645  23.332   6.307
10409POPC   PO419418   8.631  23.525   6.258
10409POPC   GL119419   8.617  23.718   6.209
10409POPC   GL219420   8.648  23.697   6.116
10409POPC   C1A19421   8.603  23.912   6.159
10409POPC   D2A19422   8.589  24.105   6.110
10409POPC   C3A19423   8.575  24.299   6.060
10409POPC   C4A19424   8.561  24.492   6.011
10409POPC   C1B19425   8.793  23.940   6.216
10409POPC   C2B19426   8.779  24.133   6.166
10409POPC   C3B19427   8.765  24.327   6.117
10409POPC   C4B19428   8.751  24.520   6.067
10410POPC   NC319429  -0.614   2.690   4.424
10410POPC   PO419430  -0.766   2.582   4.352
10410POPC   GL119431  -0.918   2.474   4.280
10410POPC   GL219432  -0.872   2.390   4.308
10410POPC   C1A19433  -1.070   2.366   4.208
10410POPC   D2A19434  -1.223   2.257   4.137
10410POPC   C3A19435  -1.375   2.149   4.065
10410POPC   C4A19436  -1.527   2.041   3.993
10410POPC   C1B19437  -0.980   2.356   4.031
10410POPC   C2B19438  -1.132   2.248   3.959
10410POPC   C3B19439  -1.284   2.139   3.887
10410POPC   C4B19440  -1.436   2.031   3.815
10411POPC   NC319441  13.623  23.307   9.503
10411POPC   PO419442  13.684  23.497   9.494
10411POPC   GL119443  13.745  23.687   9.485
10411POPC   GL219444  13.749  23.681   9.385
10411POPC   C1A19445  13.805  23.878   9.476
10411POPC   D2A19446  13.866  24.068   9.468
10411POPC   C3A19447  13.926  24.259   9.459
10411POPC   C4A19448  13.987  24.449   9.450
10411POPC   C1B19449  13.996  23.818   9.488
10411POPC   C2B19450  14.056  24.008   9.480
10411POPC   C3B19451  14.117  24.199   9.471
10411POPC   C4B19452  14.177  24.389   9.462
10412POPC   NC319453  -3.623  10.752  13.040
10412POPC   PO419454  -3.817  10.760  13.086
10412POPC   GL119455  -4.011  10.768  13.132
10412POPC   GL219456  -3.992  10.732  13.223
10412POPC   C1A19457  -4.206  10.777  13.178
10412POPC   D2A19458  -4.400  10.785  13.223
10412POPC   C3A19459  -4.595  10.794  13.269
10412POPC   C4A19460  -4.789  10.802  13.315
10412POPC   C1B19461  -4.230  10.591  13.108
10412POPC   C2B19462  -4.425  10.599  13.153
10412POPC   C3B19463  -4.619  10.608  13.199
10412POPC   C4B19464  -4.813  10.616  13.245
10413POPC   NC319465  15.174  20.256   2.324
10413POPC   PO419466  15.257  20.403   2.217
10413POPC   GL119467  15.340  20.550   2.110
10413POPC   GL219468  15.409  20.563   2.181
10413POPC   C1A19469  15.423  20.697   2.003
10413POPC   D2A19470  15.506  20.844   1.895
10413POPC   C3A19471  15.589  20.991   1.788
10413POPC   C4A19472  15.672  21.138   1.681
10413POPC   C1B19473  15.304  20.830   2.093
10413POPC   C2B19474  15.387  20.977   1.986
10413POPC   C3B19475  15.470  21.124   1.879
10413POPC   C4B19476  15.553  21.271   1.771
10414POPC   NC319477  -2.299  15.891  13.067
10414POPC   PO419478  -2.474  15.978  13.110
10414POPC   GL119479  -2.649  16.065  13.153
10414POPC   GL219480  -2.655  16.012  13.237
10414POPC   C1A19481  -2.824  16.152  13.196
10414POPC   D2A19482  -2.999  16.239  13.238
10414POPC   C3A19483  -3.174  16.326  13.281
10414POPC   C4A19484  -3.349  16.413  13.324
10414POPC   C1B19485  -2.920  16.006  13.098
10414POPC   C2B19486  -3.095  16.093  13.141
10414POPC   C3B19487  -3.270  16.180  13.183
10414POPC   C4B19488  -3.445  16.267  13.226
10415POPC   NC319489  23.609  10.809  10.275
10415POPC   PO419490  23.809  10.817  10.281
10415POPC   GL119491  24.009  10.825  10.287
10415POPC   GL219492  24.006  10.922  10.264
10415POPC   C1A19493  24.209  10.833  10.293
10415POPC   D2A19494  24.408  10.841  10.299
10415POPC   C3A19495  24.608  10.849  10.305
10415POPC   C4A19496  24.808  10.857  10.311
10415POPC   C1B19497  24.216  10.787  10.099
10415POPC   C2B19498  24.416  10.795  10.105
10415POPC   C3B19499  24.616  10.803  10.111
10415POPC   C4B19500  24.816  10.811  10.117
10416POPC   NC319501  20.046  12.524  18.902
10416POPC   PO419502  20.185  12.566  19.040
10416POPC   GL119503  20.324  12.608  19.178
10416POPC   GL219504  20.375  12.661  19.110
10416POPC   C1A19505  20.463  12.650  19.315
10416POPC   D2A19506  20.602  12.691  19.453
10416POPC   C3A19507  20.741  12.733  19.590
10416POPC   C4A19508  20.880  12.775  19.728
10416POPC   C1B19509  20.564  12.485  19.263
10416POPC   C2B19510  20.703  12.527  19.401
10416POPC   C3B19511  20.842  12.569  19.538
10416POPC   C4B19512  20.981  12.610  19.676
10417POPC   NC319513  -1.099   7.815   1.774
10417POPC   PO419514  -1.253   7.788   1.649
10417POPC   GL119515  -1.407   7.761   1.524
10417POPC   GL219516  -1.458   7.833   1.571
10417POPC   C1A19517  -1.561   7.734   1.399
10417POPC   D2A19518  -1.715   7.707   1.275
10417POPC   C3A19519  -1.869   7.680   1.150
10417POPC   C4A19520  -2.023   7.653   1.025
10417POPC   C1B19521  -1.639   7.599   1.525
10417POPC   C2B19522  -1.793   7.572   1.400
10417POPC   C3B19523  -1.947   7.545   1.275
10417POPC   C4B19524  -2.101   7.518   1.150
10418POPC   NC319525   9.915  13.119  -3.561
10418POPC   PO419526   9.918  13.166  -3.755
10418POPC   GL119527   9.921  13.213  -3.949
10418POPC   GL219528  10.013  13.173  -3.958
10418POPC   C1A19529   9.925  13.260  -4.144
10418POPC   D2A19530   9.928  13.307  -4.338
10418POPC   C3A19531   9.932  13.354  -4.533
10418POPC   C4A19532   9.935  13.401  -4.727
10418POPC   C1B19533  10.007  13.437  -4.099
10418POPC   C2B19534  10.010  13.484  -4.294
10418POPC   C3B19535  10.013  13.531  -4.488
10418POPC   C4B19536  10.017  13.578  -4.683
10419POPC   NC319537   9.790   4.238  -2.639
10419POPC   PO419538   9.786   4.161  -2.824
10419POPC   GL119539   9.782   4.084  -3.009
10419POPC   GL219540   9.868   4.131  -3.030
10419POPC   C1A19541   9.779   4.007  -3.193
10419POPC   D2A19542   9.775   3.930  -3.378
10419POPC   C3A19543   9.772   3.853  -3.562
10419POPC   C4A19544   9.768   3.776  -3.747
10419POPC   C1B19545   9.676   4.166  -3.258
10419POPC   C2B19546   9.672   4.089  -3.442
10419POPC   C3B19547   9.669   4.012  -3.627
10419POPC   C4B19548   9.665   3.935  -3.811
10420POPC   NC319549  14.785  -1.398  16.145
10420POPC   PO419550  14.853  -1.564  16.232
10420POPC   GL119551  14.921  -1.730  16.319
10420POPC   GL219552  15.013  -1.690  16.325
10420POPC   C1A19553  14.990  -1.897  16.407
10420POPC   D2A19554  15.058  -2.063  16.494
10420POPC   C3A19555  15.127  -2.230  16.582
10420POPC   C4A19556  15.195  -2.396  16.669
10420POPC   C1B19557  15.034  -1.973  16.227
10420POPC   C2B19558  15.103  -2.139  16.315
10420POPC   C3B19559  15.171  -2.306  16.402
10420POPC   C4B19560  15.240  -2.472  16.489
10421POPC   NC319561   5.184  20.759   2.647
10421POPC   PO419562   5.118  20.915   2.540
10421POPC   GL119563   5.052  21.071   2.433
10421POPC   GL219564   5.074  21.132   2.509
10421POPC   C1A19565   4.987  21.226   2.325
10421POPC   D2A19566   4.921  21.382   2.218
10421POPC   C3A19567   4.856  21.537   2.110
10421POPC   C4A19568   4.790  21.693   2.003
10421POPC   C1B19569   4.803  21.199   2.399
10421POPC   C2B19570   4.737  21.355   2.291
10421POPC   C3B19571   4.671  21.510   2.184
10421POPC   C4B19572   4.606  21.666   2.076
10422POPC   NC319573  22.156   7.234   4.104
10422POPC   PO419574  22.335   7.201   4.021
10422POPC   GL119575  22.514   7.168   3.938
10422POPC   GL219576  22.481   7.205   3.851
10422POPC   C1A19577  22.693   7.135   3.855
10422POPC   D2A19578  22.872   7.101   3.772
10422POPC   C3A19579  23.051   7.068   3.689
10422POPC   C4A19580  23.230   7.035   3.606
10422POPC   C1B19581  22.634   6.952   3.800
10422POPC   C2B19582  22.813   6.919   3.717
10422POPC   C3B19583  22.992   6.885   3.634
10422POPC   C4B19584  23.171   6.852   3.551
10423POPC   NC319585  18.766   5.741   0.251
10423POPC   PO419586  18.893   5.674   0.112
10423POPC   GL119587  19.020   5.607  -0.027
10423POPC   GL219588  18.943   5.583  -0.086
10423POPC   C1A19589  19.147   5.539  -0.166
10423POPC   D2A19590  19.275   5.472  -0.304
10423POPC   C3A19591  19.402   5.404  -0.443
10423POPC   C4A19592  19.529   5.337  -0.582
10423POPC   C1B19593  19.141   5.357  -0.083
10423POPC   C2B19594  19.268   5.290  -0.222
10423POPC   C3B19595  19.395   5.222  -0.361
10423POPC   C4B19596  19.523   5.155  -0.499
10424POPC   NC319597  11.074  -3.693   7.703
10424POPC   PO419598  11.085  -3.891   7.676
10424POPC   GL119599  11.096  -4.089   7.649
10424POPC   GL219600  11.121  -4.101   7.745
10424POPC   C1A19601  11.107  -4.287   7.623
10424POPC   D2A19602  11.119  -4.485   7.596
10424POPC   C3A19603  11.130  -4.683   7.570
10424POPC   C4A19604  11.141  -4.881   7.543
10424POPC   C1B19605  11.301  -4.270   7.574
10424POPC   C2B19606  11.312  -4.468   7.548
10424POPC   C3B19607  11.323  -4.666   7.521
10424POPC   C4B19608  11.334  -4.864   7.495
10425POPC   NC319609   8.940  -1.027   1.592
10425POPC   PO419610   8.926  -1.187   1.473
10425POPC   GL119611   8.912  -1.347   1.354
10425POPC   GL219612   8.969  -1.399   1.417
10425POPC   C1A19613   8.897  -1.507   1.235
10425POPC   D2A19614   8.883  -1.668   1.117
10425POPC   C3A19615   8.868  -1.828   0.998
10425POPC   C4A19616   8.854  -1.988   0.879
10425POPC   C1B19617   9.060  -1.448   1.136
10425POPC   C2B19618   9.046  -1.608   1.017
10425POPC   C3B19619   9.031  -1.769   0.898
10425POPC   C4B19620   9.017  -1.929   0.779
10426POPC   NC319621   5.005  20.230  17.882
10426POPC   PO419622   4.939  20.377  18.000
10426POPC   GL119623   4.873  20.524  18.118
10426POPC   GL219624   4.951  20.581  18.091
10426POPC   C1A19625   4.807  20.672  18.236
10426POPC   D2A19626   4.740  20.819  18.353
10426POPC   C3A19627   4.674  20.967  18.471
10426POPC   C4A19628   4.608  21.114  18.589
10426POPC   C1B19629   4.913  20.598  18.388
10426POPC   C2B19630   4.847  20.745  18.506
10426POPC   C3B19631   4.781  20.893  18.623
10426POPC   C4B19632   4.715  21.040  18.741
10427POPC   NC319633  19.778   0.874  13.123
10427POPC   PO419634  19.925   0.746  13.168
10427POPC   GL119635  20.072   0.618  13.213
10427POPC   GL219636  20.105   0.622  13.119
10427POPC   C1A19637  20.219   0.490  13.258
10427POPC   D2A19638  20.365   0.362  13.304
10427POPC   C3A19639  20.512   0.234  13.349
10427POPC   C4A19640  20.659   0.106  13.394
10427POPC   C1B19641  20.100   0.337  13.210
10427POPC   C2B19642  20.247   0.209  13.255
10427POPC   C3B19643  20.393   0.081  13.300
10427POPC   C4B19644  20.540  -0.047  13.346
10428POPC   NC319645  15.779  -2.525   9.663
10428POPC   PO419646  15.865  -2.705   9.658
10428POPC   GL119647  15.951  -2.885   9.653
10428POPC   GL219648  16.033  -2.845   9.613
10428POPC   C1A19649  16.037  -3.066   9.649
10428POPC   D2A19650  16.123  -3.246   9.644
10428POPC   C3A19651  16.209  -3.427   9.640
10428POPC   C4A19652  16.295  -3.607   9.635
10428POPC   C1B19653  15.962  -3.097   9.466
10428POPC   C2B19654  16.048  -3.277   9.461
10428POPC   C3B19655  16.134  -3.458   9.457
10428POPC   C4B19656  16.220  -3.638   9.452
10429POPC   NC319657   2.374  15.703  -0.239
10429POPC   PO419658   2.268  15.780  -0.390
10429POPC   GL119659   2.162  15.857  -0.541
10429POPC   GL219660   2.227  15.933  -0.547
10429POPC   C1A19661   2.056  15.935  -0.692
10429POPC   D2A19662   1.951  16.012  -0.843
10429POPC   C3A19663   1.845  16.090  -0.994
10429POPC   C4A19664   1.739  16.167  -1.145
10429POPC   C1B19665   1.947  16.039  -0.561
10429POPC   C2B19666   1.841  16.117  -0.712
10429POPC   C3B19667   1.735  16.194  -0.863
10429POPC   C4B19668   1.629  16.271  -1.014
10430POPC   NC319669  21.479  17.477   9.563
10430POPC   PO419670  21.648  17.584   9.553
10430POPC   GL119671  21.817  17.691   9.543
10430POPC   GL219672  21.870  17.606   9.538
10430POPC   C1A19673  21.985  17.798   9.533
10430POPC   D2A19674  22.154  17.905   9.523
10430POPC   C3A19675  22.322  18.012   9.513
10430POPC   C4A19676  22.491  18.119   9.503
10430POPC   C1B19677  21.999  17.794   9.732
10430POPC   C2B19678  22.168  17.901   9.722
10430POPC   C3B19679  22.337  18.008   9.712
10430POPC   C4B19680  22.505  18.115   9.702
10431POPC   NC319681   3.672  -0.774  16.118
10431POPC   PO419682   3.583  -0.927  16.211
10431POPC   GL119683   3.494  -1.080  16.304
10431POPC   GL219684   3.506  -1.034  16.392
10431POPC   C1A19685   3.406  -1.234  16.397
10431POPC   D2A19686   3.317  -1.387  16.489
10431POPC   C3A19687   3.229  -1.541  16.582
10431POPC   C4A19688   3.140  -1.694  16.675
10431POPC   C1B19689   3.583  -1.323  16.419
10431POPC   C2B19690   3.495  -1.476  16.512
10431POPC   C3B19691   3.406  -1.630  16.605
10431POPC   C4B19692   3.318  -1.783  16.698
10432POPC   NC319693  19.581  17.567   3.675
10432POPC   PO419694  19.715  17.682   3.581
10432POPC   GL119695  19.849  17.797   3.487
10432POPC   GL219696  19.848  17.735   3.409
10432POPC   C1A19697  19.983  17.913   3.393
10432POPC   D2A19698  20.116  18.028   3.300
10432POPC   C3A19699  20.250  18.144   3.206
10432POPC   C4A19700  20.384  18.259   3.112
10432POPC   C1B19701  20.131  17.808   3.477
10432POPC   C2B19702  20.265  17.924   3.383
10432POPC   C3B19703  20.399  18.039   3.289
10432POPC   C4B19704  20.533  18.155   3.196
10433POPC   NC319705  11.382  17.542  21.445
10433POPC   PO419706  11.409  17.649  21.612
10433POPC   GL119707  11.436  17.756  21.779
10433POPC   GL219708  11.528  17.780  21.749
10433POPC   C1A19709  11.463  17.863  21.946
10433POPC   D2A19710  11.489  17.970  22.112
10433POPC   C3A19711  11.516  18.077  22.279
10433POPC   C4A19712  11.543  18.184  22.446
10433POPC   C1B19713  11.535  17.701  22.038
10433POPC   C2B19714  11.562  17.808  22.205
10433POPC   C3B19715  11.588  17.915  22.372
10433POPC   C4B19716  11.615  18.022  22.538
10434POPC   NC319717   5.404  20.529   2.194
10434POPC   PO419718   5.343  20.683   2.082
10434POPC   GL119719   5.282  20.837   1.970
10434POPC   GL219720   5.307  20.900   2.044
10434POPC   C1A19721   5.221  20.991   1.858
10434POPC   D2A19722   5.159  21.146   1.747
10434POPC   C3A19723   5.098  21.300   1.635
10434POPC   C4A19724   5.037  21.454   1.523
10434POPC   C1B19725   5.037  20.974   1.935
10434POPC   C2B19726   4.976  21.128   1.823
10434POPC   C3B19727   4.914  21.283   1.712
10434POPC   C4B19728   4.853  21.437   1.600
10435POPC   NC319729  11.655   8.806  -3.801
10435POPC   PO419730  11.676   8.788  -3.999
10435POPC   GL119731  11.697   8.770  -4.197
10435POPC   GL219732  11.645   8.854  -4.210
10435POPC   C1A19733  11.719   8.752  -4.395
10435POPC   D2A19734  11.740   8.733  -4.593
10435POPC   C3A19735  11.762   8.715  -4.791
10435POPC   C4A19736  11.783   8.697  -4.989
10435POPC   C1B19737  11.550   8.644  -4.403
10435POPC   C2B19738  11.572   8.626  -4.601
10435POPC   C3B19739  11.593   8.608  -4.799
10435POPC   C4B19740  11.615   8.590  -4.997
10436POPC   NC319741   5.797  20.258  18.250
10436POPC   PO419742   5.741  20.404  18.374
10436POPC   GL119743   5.685  20.550  18.498
10436POPC   GL219744   5.758  20.609  18.463
10436POPC   C1A19745   5.628  20.696  18.622
10436POPC   D2A19746   5.572  20.843  18.747
10436POPC   C3A19747   5.515  20.989  18.871
10436POPC   C4A19748   5.459  21.135  18.995
10436POPC   C1B19749   5.753  20.626  18.762
10436POPC   C2B19750   5.697  20.772  18.886
10436POPC   C3B19751   5.640  20.918  19.010
10436POPC   C4B19752   5.584  21.065  19.135
10437POPC   NC319753   9.976  -3.831   9.537
10437POPC   PO419754   9.974  -4.031   9.533
10437POPC   GL119755   9.972  -4.231   9.529
10437POPC   GL219756  10.056  -4.231   9.475
10437POPC   C1A19757   9.969  -4.431   9.525
10437POPC   D2A19758   9.967  -4.631   9.520
10437POPC   C3A19759   9.964  -4.831   9.516
10437POPC   C4A19760   9.962  -5.031   9.512
10437POPC   C1B19761   9.862  -4.426   9.356
10437POPC   C2B19762   9.860  -4.626   9.351
10437POPC   C3B19763   9.857  -4.826   9.347
10437POPC   C4B19764   9.855  -5.026   9.343
10438POPC   NC319765  10.280   2.946  21.848
10438POPC   PO419766  10.282   2.844  22.020
10438POPC   GL119767  10.284   2.742  22.192
10438POPC   GL219768  10.357   2.802  22.227
10438POPC   C1A19769  10.286   2.641  22.364
10438POPC   D2A19770  10.288   2.539  22.537
10438POPC   C3A19771  10.290   2.438  22.709
10438POPC   C4A19772  10.292   2.336  22.881
10438POPC   C1B19773  10.424   2.517  22.290
10438POPC   C2B19774  10.426   2.415  22.462
10438POPC   C3B19775  10.428   2.313  22.634
10438POPC   C4B19776  10.430   2.212  22.806
10439POPC   NC319777  20.856  14.696   2.912
10439POPC   PO419778  21.015  14.763   2.811
10439POPC   GL119779  21.174  14.830   2.710
10439POPC   GL219780  21.121  14.829   2.625
10439POPC   C1A19781  21.333  14.897   2.609
10439POPC   D2A19782  21.492  14.963   2.507
10439POPC   C3A19783  21.651  15.030   2.406
10439POPC   C4A19784  21.810  15.097   2.305
10439POPC   C1B19785  21.390  14.708   2.574
10439POPC   C2B19786  21.549  14.775   2.473
10439POPC   C3B19787  21.708  14.842   2.372
10439POPC   C4B19788  21.867  14.908   2.270
10440POPC   NC319789  21.860   7.911   3.303
10440POPC   PO419790  22.034   7.888   3.207
10440POPC   GL119791  22.208   7.865   3.111
10440POPC   GL219792  22.174   7.780   3.070
10440POPC   C1A19793  22.382   7.841   3.016
10440POPC   D2A19794  22.556   7.818   2.920
10440POPC   C3A19795  22.730   7.794   2.825
10440POPC   C4A19796  22.904   7.771   2.729
10440POPC   C1B19797  22.453   7.736   3.170
10440POPC   C2B19798  22.627   7.713   3.075
10440POPC   C3B19799  22.801   7.689   2.979
10440POPC   C4B19800  22.975   7.666   2.884
10441POPC   NC319801  21.076   8.369   1.988
10441POPC   PO419802  21.239   8.357   1.873
10441POPC   GL119803  21.402   8.345   1.758
10441POPC   GL219804  21.353   8.286   1.694
10441POPC   C1A19805  21.565   8.332   1.643
10441POPC   D2A19806  21.729   8.320   1.528
10441POPC   C3A19807  21.892   8.307   1.413
10441POPC   C4A19808  22.055   8.295   1.298
10441POPC   C1B19809  21.625   8.170   1.745
10441POPC   C2B19810  21.788   8.158   1.630
10441POPC   C3B19811  21.951   8.146   1.515
10441POPC   C4B19812  22.114   8.133   1.400
10442POPC   NC319813  -3.905  11.723  10.876
10442POPC   PO419814  -4.103  11.747  10.890
10442POPC   GL119815  -4.301  11.771  10.904
10442POPC   GL219816  -4.287  11.853  10.960
10442POPC   C1A19817  -4.499  11.795  10.917
10442POPC   D2A19818  -4.697  11.819  10.931
10442POPC   C3A19819  -4.895  11.843  10.944
10442POPC   C4A19820  -5.093  11.867  10.958
10442POPC   C1B19821  -4.501  11.682  11.082
10442POPC   C2B19822  -4.699  11.706  11.096
10442POPC   C3B19823  -4.897  11.730  11.109
10442POPC   C4B19824  -5.095  11.754  11.123
10443POPC   NC319825   0.375   1.364   4.557
10443POPC   PO419826   0.235   1.241   4.485
10443POPC   GL119827   0.095   1.118   4.413
10443POPC   GL219828   0.157   1.040   4.425
10443POPC   C1A19829  -0.045   0.994   4.341
10443POPC   D2A19830  -0.184   0.871   4.268
10443POPC   C3A19831  -0.324   0.747   4.196
10443POPC   C4A19832  -0.464   0.624   4.124
10443POPC   C1B19833   0.027   1.021   4.156
10443POPC   C2B19834  -0.113   0.898   4.084
10443POPC   C3B19835  -0.253   0.775   4.011
10443POPC   C4B19836  -0.393   0.651   3.939
10444POPC   NC319837  16.567   5.388  -1.259
10444POPC   PO419838  16.665   5.324  -1.421
10444POPC   GL119839  16.763   5.260  -1.583
10444POPC   GL219840  16.825   5.338  -1.577
10444POPC   C1A19841  16.861   5.196  -1.745
10444POPC   D2A19842  16.958   5.131  -1.908
10444POPC   C3A19843  17.056   5.067  -2.070
10444POPC   C4A19844  17.154   5.003  -2.232
10444POPC   C1B19845  16.738   5.302  -1.862
10444POPC   C2B19846  16.836   5.238  -2.024
10444POPC   C3B19847  16.934   5.174  -2.186
10444POPC   C4B19848  17.031   5.110  -2.348
10445POPC   NC319849   3.602  20.261  16.850
10445POPC   PO419850   3.514  20.412  16.947
10445POPC   GL119851   3.426  20.563  17.044
10445POPC   GL219852   3.513  20.612  17.046
10445POPC   C1A19853   3.338  20.714  17.141
10445POPC   D2A19854   3.249  20.865  17.237
10445POPC   C3A19855   3.161  21.016  17.334
10445POPC   C4A19856   3.073  21.167  17.431
10445POPC   C1B19857   3.381  20.627  17.315
10445POPC   C2B19858   3.293  20.778  17.412
10445POPC   C3B19859   3.205  20.929  17.509
10445POPC   C4B19860   3.117  21.080  17.606
10446POPC   NC319861   2.014  19.144  16.815
10446POPC   PO419862   1.899  19.275  16.913
10446POPC   GL119863   1.784  19.406  17.011
10446POPC   GL219864   1.839  19.393  17.093
10446POPC   C1A19865   1.669  19.537  17.109
10446POPC   D2A19866   1.553  19.668  17.206
10446POPC   C3A19867   1.438  19.799  17.304
10446POPC   C4A19868   1.323  19.930  17.402
10446POPC   C1B19869   1.548  19.388  17.166
10446POPC   C2B19870   1.433  19.519  17.264
10446POPC   C3B19871   1.318  19.650  17.362
10446POPC   C4B19872   1.203  19.781  17.460
10447POPC   NC319873   6.352  22.810   5.787
10447POPC   PO419874   6.304  22.994   5.727
10447POPC   GL119875   6.256  23.178   5.667
10447POPC   GL219876   6.240  23.205   5.762
10447POPC   C1A19877   6.207  23.363   5.606
10447POPC   D2A19878   6.159  23.547   5.546
10447POPC   C3A19879   6.110  23.732   5.485
10447POPC   C4A19880   6.062  23.916   5.425
10447POPC   C1B19881   6.016  23.307   5.590
10447POPC   C2B19882   5.967  23.492   5.530
10447POPC   C3B19883   5.919  23.676   5.469
10447POPC   C4B19884   5.871  23.860   5.409
10448POPC   NC319885   9.963  17.883  21.341
10448POPC   PO419886   9.964  18.002  21.502
10448POPC   GL119887   9.965  18.121  21.663
10448POPC   GL219888   9.992  18.198  21.606
10448POPC   C1A19889   9.967  18.239  21.824
10448POPC   D2A19890   9.968  18.358  21.985
10448POPC   C3A19891   9.970  18.476  22.146
10448POPC   C4A19892   9.971  18.595  22.307
10448POPC   C1B19893  10.160  18.195  21.854
10448POPC   C2B19894  10.161  18.314  22.015
10448POPC   C3B19895  10.162  18.433  22.176
10448POPC   C4B19896  10.164  18.551  22.337
10449POPC   NC319897  -2.326  16.383  11.647
10449POPC   PO419898  -2.501  16.476  11.674
10449POPC   GL119899  -2.676  16.569  11.701
10449POPC   GL219900  -2.673  16.546  11.798
10449POPC   C1A19901  -2.851  16.661  11.728
10449POPC   D2A19902  -3.027  16.754  11.756
10449POPC   C3A19903  -3.202  16.846  11.783
10449POPC   C4A19904  -3.377  16.939  11.810
10449POPC   C1B19905  -2.948  16.490  11.691
10449POPC   C2B19906  -3.123  16.583  11.718
10449POPC   C3B19907  -3.298  16.675  11.746
10449POPC   C4B19908  -3.473  16.768  11.773
10450POPC   NC319909  20.855   3.220  15.086
10450POPC   PO419910  21.014   3.121  15.156
10450POPC   GL119911  21.173   3.022  15.226
10450POPC   GL219912  21.225   3.048  15.144
10450POPC   C1A19913  21.333   2.924  15.296
10450POPC   D2A19914  21.492   2.825  15.365
10450POPC   C3A19915  21.652   2.727  15.435
10450POPC   C4A19916  21.811   2.628  15.505
10450POPC   C1B19917  21.270   2.758  15.203
10450POPC   C2B19918  21.430   2.659  15.273
10450POPC   C3B19919  21.589   2.560  15.343
10450POPC   C4B19920  21.749   2.462  15.413
10451POPC   NC319921  21.953   6.113   4.251
10451POPC   PO419922  22.128   6.059   4.169
10451POPC   GL119923  22.303   6.005   4.087
10451POPC   GL219924  22.257   5.989   4.000
10451POPC   C1A19925  22.477   5.952   4.006
10451POPC   D2A19926  22.652   5.898   3.924
10451POPC   C3A19927  22.826   5.845   3.843
10451POPC   C4A19928  23.001   5.791   3.761
10451POPC   C1B19929  22.443   5.762   4.058
10451POPC   C2B19930  22.618   5.708   3.977
10451POPC   C3B19931  22.793   5.655   3.895
10451POPC   C4B19932  22.967   5.601   3.814
10452POPC   NC319933   6.073  -1.009   2.365
10452POPC   PO419934   6.024  -1.169   2.255
10452POPC   GL119935   5.975  -1.329   2.145
10452POPC   GL219936   6.037  -1.299   2.073
10452POPC   C1A19937   5.926  -1.489   2.036
10452POPC   D2A19938   5.878  -1.649   1.926
10452POPC   C3A19939   5.829  -1.809   1.817
10452POPC   C4A19940   5.780  -1.969   1.707
10452POPC   C1B19941   5.778  -1.386   1.951
10452POPC   C2B19942   5.729  -1.546   1.841
10452POPC   C3B19943   5.680  -1.706   1.732
10452POPC   C4B19944   5.631  -1.866   1.622
10453POPC   NC319945  -1.282  14.902   3.390
10453POPC   PO419946  -1.447  14.976   3.304
10453POPC   GL119947  -1.612  15.050   3.218
10453POPC   GL219948  -1.626  15.110   3.297
10453POPC   C1A19949  -1.777  15.124   3.132
10453POPC   D2A19950  -1.941  15.199   3.047
10453POPC   C3A19951  -2.106  15.273   2.961
10453POPC   C4A19952  -2.271  15.347   2.875
10453POPC   C1B19953  -1.887  14.983   3.221
10453POPC   C2B19954  -2.051  15.057   3.135
10453POPC   C3B19955  -2.216  15.131   3.049
10453POPC   C4B19956  -2.381  15.205   2.964
10454POPC   NC319957  21.805  16.906  11.095
10454POPC   PO419958  21.977  17.006  11.111
10454POPC   GL119959  22.149  17.106  11.127
10454POPC   GL219960  22.197  17.021  11.148
10454POPC   C1A19961  22.321  17.207  11.143
10454POPC   D2A19962  22.494  17.307  11.160
10454POPC   C3A19963  22.666  17.408  11.176
10454POPC   C4A19964  22.838  17.508  11.192
10454POPC   C1B19965  22.286  17.236  11.338
10454POPC   C2B19966  22.459  17.336  11.354
10454POPC   C3B19967  22.631  17.436  11.371
10454POPC   C4B19968  22.803  17.537  11.387
10455POPC   NC319969   2.113  16.151   0.200
10455POPC   PO419970   2.002  16.236   0.057
10455POPC   GL119971   1.891  16.321  -0.086
10455POPC   GL219972   1.955  16.397  -0.090
10455POPC   C1A19973   1.780  16.405  -0.230
10455POPC   D2A19974   1.670  16.490  -0.373
10455POPC   C3A19975   1.559  16.574  -0.517
10455POPC   C4A19976   1.448  16.659  -0.660
10455POPC   C1B19977   1.674  16.501  -0.091
10455POPC   C2B19978   1.563  16.586  -0.234
10455POPC   C3B19979   1.452  16.671  -0.377
10455POPC   C4B19980   1.341  16.755  -0.521
10456POPC   NC319981   9.536  -2.882  15.128
10456POPC   PO419982   9.528  -3.067  15.204
10456POPC   GL119983   9.520  -3.252  15.280
10456POPC   GL219984   9.525  -3.214  15.372
10456POPC   C1A19985   9.512  -3.437  15.356
10456POPC   D2A19986   9.504  -3.622  15.431
10456POPC   C3A19987   9.496  -3.807  15.507
10456POPC   C4A19988   9.488  -3.992  15.583
10456POPC   C1B19989   9.712  -3.448  15.350
10456POPC   C2B19990   9.704  -3.633  15.426
10456POPC   C3B19991   9.696  -3.818  15.501
10456POPC   C4B19992   9.688  -4.003  15.577
10457POPC   NC319993  21.197  14.756  16.445
10457POPC   PO419994  21.364  14.821  16.535
10457POPC   GL119995  21.531  14.886  16.625
10457POPC   GL219996  21.550  14.793  16.655
10457POPC   C1A19997  21.697  14.951  16.714
10457POPC   D2A19998  21.864  15.015  16.804
10457POPC   C3A19999  22.030  15.080  16.893
10457POPC   C4A20000  22.197  15.145  16.983
10457POPC   C1B20001  21.594  14.984  16.882
10457POPC   C2B20002  21.761  15.049  16.972
10457POPC   C3B20003  21.927  15.113  17.061
10457POPC   C4B20004  22.094  15.178  17.151
10458POPC   NC320005  -2.228  10.317   3.153
10458POPC   PO420006  -2.405  10.319   3.060
10458POPC   GL120007  -2.582  10.321   2.967
10458POPC   GL220008  -2.600  10.228   3.000
10458POPC   C1A20009  -2.759  10.322   2.873
10458POPC   D2A20010  -2.935  10.324   2.780
10458POPC   C3A20011  -3.112  10.325   2.686
10458POPC   C4A20012  -3.289  10.327   2.593
10458POPC   C1B20013  -2.673  10.246   2.709
10458POPC   C2B20014  -2.849  10.248   2.616
10458POPC   C3B20015  -3.026  10.250   2.522
10458POPC   C4B20016  -3.203  10.251   2.429
10459POPC   NC320017  14.566  16.733  21.078
10459POPC   PO420018  14.632  16.828  21.241
10459POPC   GL120019  14.698  16.923  21.404
10459POPC   GL220020  14.758  16.845  21.425
10459POPC   C1A20021  14.764  17.017  21.568
10459POPC   D2A20022  14.830  17.112  21.731
10459POPC   C3A20023  14.896  17.206  21.895
10459POPC   C4A20024  14.962  17.301  22.058
10459POPC   C1B20025  14.619  16.932  21.676
10459POPC   C2B20026  14.685  17.027  21.839
10459POPC   C3B20027  14.751  17.121  22.002
10459POPC   C4B20028  14.817  17.216  22.166
10460POPC   NC320029  11.078  -3.790   8.832
10460POPC   PO420030  11.086  -3.990   8.823
10460POPC   GL120031  11.094  -4.190   8.814
10460POPC   GL220032  11.094  -4.185   8.714
10460POPC   C1A20033  11.102  -4.389   8.805
10460POPC   D2A20034  11.110  -4.589   8.797
10460POPC   C3A20035  11.118  -4.788   8.788
10460POPC   C4A20036  11.126  -4.988   8.779
10460POPC   C1B20037  10.902  -4.397   8.805
10460POPC   C2B20038  10.910  -4.597   8.796
10460POPC   C3B20039  10.918  -4.796   8.787
10460POPC   C4B20040  10.926  -4.996   8.778
10461POPC   NC320041  22.650  14.932  11.971
10461POPC   PO420042  22.834  15.005  11.998
10461POPC   GL120043  23.018  15.078  12.025
10461POPC   GL220044  23.044  15.047  11.934
10461POPC   C1A20045  23.202  15.151  12.052
10461POPC   D2A20046  23.386  15.225  12.080
10461POPC   C3A20047  23.570  15.298  12.107
10461POPC   C4A20048  23.754  15.371  12.134
10461POPC   C1B20049  23.260  14.976  12.130
10461POPC   C2B20050  23.444  15.050  12.157
10461POPC   C3B20051  23.628  15.123  12.184
10461POPC   C4B20052  23.812  15.196  12.211
10462POPC   NC320053  -3.911   8.367  10.436
10462POPC   PO420054  -4.108   8.338  10.450
10462POPC   GL120055  -4.305   8.309  10.464
10462POPC   GL220056  -4.307   8.364  10.548
10462POPC   C1A20057  -4.503   8.280  10.479
10462POPC   D2A20058  -4.700   8.250  10.493
10462POPC   C3A20059  -4.898   8.221  10.508
10462POPC   C4A20060  -5.095   8.192  10.522
10462POPC   C1B20061  -4.471   8.115  10.588
10462POPC   C2B20062  -4.668   8.086  10.602
10462POPC   C3B20063  -4.865   8.057  10.616
10462POPC   C4B20064  -5.063   8.027  10.631
10463POPC   NC320065   0.902  15.016   0.588
10463POPC   PO420066   0.776  15.087   0.450
10463POPC   GL120067   0.650  15.158   0.312
10463POPC   GL220068   0.718  15.226   0.285
10463POPC   C1A20069   0.524  15.229   0.174
10463POPC   D2A20070   0.399  15.300   0.035
10463POPC   C3A20071   0.273  15.371  -0.103
10463POPC   C4A20072   0.147  15.442  -0.241
10463POPC   C1B20073   0.450  15.357   0.308
10463POPC   C2B20074   0.324  15.428   0.169
10463POPC   C3B20075   0.198  15.499   0.031
10463POPC   C4B20076   0.072  15.570  -0.107
10464POPC   NC320077  21.998   4.897  14.337
10464POPC   PO420078  22.175   4.826  14.398
10464POPC   GL120079  22.352   4.755  14.459
10464POPC   GL220080  22.397   4.807  14.386
10464POPC   C1A20081  22.529   4.685  14.519
10464POPC   D2A20082  22.706   4.614  14.580
10464POPC   C3A20083  22.883   4.544  14.640
10464POPC   C4A20084  23.060   4.473  14.701
10464POPC   C1B20085  22.509   4.529  14.395
10464POPC   C2B20086  22.686   4.459  14.456
10464POPC   C3B20087  22.863   4.388  14.516
10464POPC   C4B20088  23.040   4.317  14.577
10465POPC   NC320089  12.210  -0.007   0.643
10465POPC   PO420090  12.248  -0.151   0.509
10465POPC   GL120091  12.286  -0.295   0.375
10465POPC   GL220092  12.345  -0.232   0.324
10465POPC   C1A20093  12.324  -0.438   0.241
10465POPC   D2A20094  12.361  -0.582   0.107
10465POPC   C3A20095  12.399  -0.725  -0.027
10465POPC   C4A20096  12.437  -0.869  -0.161
10465POPC   C1B20097  12.167  -0.378   0.132
10465POPC   C2B20098  12.205  -0.522  -0.002
10465POPC   C3B20099  12.242  -0.665  -0.136
10465POPC   C4B20100  12.280  -0.809  -0.270
10466POPC   NC320101   6.450  20.662  18.048
10466POPC   PO420102   6.400  20.811  18.172
10466POPC   GL120103   6.350  20.960  18.296
10466POPC   GL220104   6.410  21.022  18.245
10466POPC   C1A20105   6.301  21.109  18.420
10466POPC   D2A20106   6.251  21.258  18.543
10466POPC   C3A20107   6.202  21.407  18.667
10466POPC   C4A20108   6.152  21.556  18.791
10466POPC   C1B20109   6.453  21.060  18.540
10466POPC   C2B20110   6.403  21.209  18.664
10466POPC   C3B20111   6.354  21.358  18.787
10466POPC   C4B20112   6.304  21.507  18.911
10467POPC   NC320113  14.640  22.559   6.804
10467POPC   PO420114  14.707  22.741   6.757
10467POPC   GL120115  14.774  22.923   6.710
10467POPC   GL220116  14.839  22.883   6.645
10467POPC   C1A20117  14.841  23.106   6.662
10467POPC   D2A20118  14.908  23.288   6.615
10467POPC   C3A20119  14.975  23.471   6.567
10467POPC   C4A20120  15.042  23.653   6.520
10467POPC   C1B20121  14.978  23.093   6.807
10467POPC   C2B20122  15.045  23.276   6.760
10467POPC   C3B20123  15.112  23.458   6.712
10467POPC   C4B20124  15.179  23.640   6.665
10468POPC   NC320125  10.580  23.796  10.124
10468POPC   PO420126  10.589  23.996  10.127
10468POPC   GL120127  10.598  24.196  10.130
10468POPC   GL220128  10.691  24.192  10.094
10468POPC   C1A20129  10.607  24.396  10.133
10468POPC   D2A20130  10.616  24.595  10.136
10468POPC   C3A20131  10.625  24.795  10.139
10468POPC   C4A20132  10.634  24.995  10.142
10468POPC   C1B20133  10.680  24.389  10.319
10468POPC   C2B20134  10.689  24.589  10.322
10468POPC   C3B20135  10.698  24.789  10.325
10468POPC   C4B20136  10.707  24.989  10.328
10469POPC   NC320137  10.847  16.617  -2.168
10469POPC   PO420138  10.865  16.711  -2.344
10469POPC   GL120139  10.883  16.805  -2.520
10469POPC   GL220140  10.982  16.791  -2.517
10469POPC   C1A20141  10.901  16.898  -2.696
10469POPC   D2A20142  10.918  16.992  -2.871
10469POPC   C3A20143  10.936  17.085  -3.047
10469POPC   C4A20144  10.954  17.179  -3.223
10469POPC   C1B20145  10.922  17.073  -2.600
10469POPC   C2B20146  10.940  17.166  -2.776
10469POPC   C3B20147  10.958  17.260  -2.952
10469POPC   C4B20148  10.976  17.354  -3.128
10470POPC   NC320149   7.456  -2.646   4.829
10470POPC   PO420150   7.421  -2.829   4.755
10470POPC   GL120151   7.386  -3.012   4.681
10470POPC   GL220152   7.409  -3.052   4.770
10470POPC   C1A20153   7.351  -3.194   4.607
10470POPC   D2A20154   7.316  -3.377   4.534
10470POPC   C3A20155   7.281  -3.559   4.460
10470POPC   C4A20156   7.246  -3.742   4.386
10470POPC   C1B20157   7.543  -3.208   4.552
10470POPC   C2B20158   7.508  -3.391   4.478
10470POPC   C3B20159   7.473  -3.574   4.404
10470POPC   C4B20160   7.438  -3.756   4.330
10471POPC   NC320161  -2.809  15.416   8.392
10471POPC   PO420162  -2.992  15.491   8.364
10471POPC   GL120163  -3.175  15.566   8.336
10471POPC   GL220164  -3.136  15.654   8.311
10471POPC   C1A20165  -3.359  15.640   8.308
10471POPC   D2A20166  -3.542  15.715   8.279
10471POPC   C3A20167  -3.726  15.789   8.251
10471POPC   C4A20168  -3.909  15.864   8.223
10471POPC   C1B20169  -3.365  15.698   8.499
10471POPC   C2B20170  -3.548  15.772   8.471
10471POPC   C3B20171  -3.732  15.847   8.443
10471POPC   C4B20172  -3.915  15.922   8.414
10472POPC   NC320173  15.920   2.485  19.882
10472POPC   PO420174  16.010   2.377  20.024
10472POPC   GL120175  16.100   2.269  20.166
10472POPC   GL220176  16.151   2.219  20.095
10472POPC   C1A20177  16.190   2.160  20.308
10472POPC   D2A20178  16.281   2.052  20.449
10472POPC   C3A20179  16.371   1.943  20.591
10472POPC   C4A20180  16.461   1.835  20.733
10472POPC   C1B20181  16.044   2.025  20.298
10472POPC   C2B20182  16.134   1.916  20.439
10472POPC   C3B20183  16.224   1.808  20.581
10472POPC   C4B20184  16.314   1.700  20.723
10473POPC   NC320185  15.007  -2.860  10.554
10473POPC   PO420186  15.085  -3.044  10.563
10473POPC   GL120187  15.163  -3.228  10.572
10473POPC   GL220188  15.251  -3.193  10.540
10473POPC   C1A20189  15.241  -3.412  10.582
10473POPC   D2A20190  15.318  -3.596  10.591
10473POPC   C3A20191  15.396  -3.780  10.601
10473POPC   C4A20192  15.474  -3.964  10.610
10473POPC   C1B20193  15.185  -3.445  10.393
10473POPC   C2B20194  15.263  -3.629  10.402
10473POPC   C3B20195  15.341  -3.813  10.411
10473POPC   C4B20196  15.418  -3.997  10.421
10474POPC   NC320197  15.379  21.542   4.658
10474POPC   PO420198  15.455  21.711   4.583
10474POPC   GL120199  15.531  21.880   4.508
10474POPC   GL220200  15.605  21.877   4.575
10474POPC   C1A20201  15.607  22.049   4.432
10474POPC   D2A20202  15.682  22.218   4.357
10474POPC   C3A20203  15.758  22.387   4.281
10474POPC   C4A20204  15.834  22.556   4.206
10474POPC   C1B20205  15.495  22.156   4.560
10474POPC   C2B20206  15.571  22.325   4.484
10474POPC   C3B20207  15.647  22.494   4.409
10474POPC   C4B20208  15.723  22.663   4.333
10475POPC   NC320209  15.815  -1.490   5.084
10475POPC   PO420210  15.899  -1.658   5.015
10475POPC   GL120211  15.983  -1.826   4.946
10475POPC   GL220212  16.068  -1.775   4.927
10475POPC   C1A20213  16.068  -1.994   4.877
10475POPC   D2A20214  16.152  -2.161   4.808
10475POPC   C3A20215  16.237  -2.329   4.739
10475POPC   C4A20216  16.321  -2.497   4.670
10475POPC   C1B20217  16.001  -1.952   4.693
10475POPC   C2B20218  16.085  -2.119   4.624
10475POPC   C3B20219  16.170  -2.287   4.555
10475POPC   C4B20220  16.254  -2.455   4.486
10476POPC   NC320221   9.838  23.545  12.739
10476POPC   PO420222   9.842  23.741  12.777
10476POPC   GL120223   9.846  23.937  12.815
10476POPC   GL220224   9.878  23.955  12.721
10476POPC   C1A20225   9.850  24.134  12.852
10476POPC   D2A20226   9.855  24.330  12.890
10476POPC   C3A20227   9.859  24.527  12.927
10476POPC   C4A20228   9.863  24.723  12.965
10476POPC   C1B20229  10.040  24.118  12.914
10476POPC   C2B20230  10.044  24.314  12.951
10476POPC   C3B20231  10.048  24.511  12.989
10476POPC   C4B20232  10.053  24.707  13.026
10477POPC   NC320233   2.327  21.487  11.894
10477POPC   PO420234   2.223  21.655  11.923
10477POPC   GL120235   2.119  21.823  11.952
10477POPC   GL220236   2.204  21.876  11.954
10477POPC   C1A20237   2.015  21.991  11.980
10477POPC   D2A20238   1.910  22.160  12.009
10477POPC   C3A20239   1.806  22.328  12.037
10477POPC   C4A20240   1.702  22.496  12.066
10477POPC   C1B20241   2.026  21.965  12.178
10477POPC   C2B20242   1.922  22.133  12.207
10477POPC   C3B20243   1.818  22.301  12.235
10477POPC   C4B20244   1.713  22.469  12.264
10478POPC   NC320245  19.122   9.392  -0.353
10478POPC   PO420246  19.258   9.385  -0.499
10478POPC   GL120247  19.394   9.378  -0.645
10478POPC   GL220248  19.356   9.462  -0.684
10478POPC   C1A20249  19.530   9.371  -0.792
10478POPC   D2A20250  19.666   9.364  -0.938
10478POPC   C3A20251  19.802   9.357  -1.085
10478POPC   C4A20252  19.938   9.350  -1.231
10478POPC   C1B20253  19.404   9.262  -0.903
10478POPC   C2B20254  19.540   9.255  -1.050
10478POPC   C3B20255  19.676   9.248  -1.196
10478POPC   C4B20256  19.812   9.241  -1.343
10479POPC   NC320257  -0.063  11.999   0.497
10479POPC   PO420258  -0.202  12.020   0.355
10479POPC   GL120259  -0.341  12.041   0.213
10479POPC   GL220260  -0.387  12.111   0.268
10479POPC   C1A20261  -0.481  12.062   0.071
10479POPC   D2A20262  -0.620  12.083  -0.071
10479POPC   C3A20263  -0.760  12.104  -0.213
10479POPC   C4A20264  -0.899  12.125  -0.355
10479POPC   C1B20265  -0.592  11.921   0.159
10479POPC   C2B20266  -0.731  11.942   0.017
10479POPC   C3B20267  -0.871  11.963  -0.125
10479POPC   C4B20268  -1.010  11.984  -0.267
10480POPC   NC320269   5.027   2.026  20.284
10480POPC   PO420270   4.956   1.911  20.431
10480POPC   GL120271   4.885   1.796  20.578
10480POPC   GL220272   4.931   1.854  20.646
10480POPC   C1A20273   4.814   1.681  20.726
10480POPC   D2A20274   4.744   1.566  20.873
10480POPC   C3A20275   4.673   1.451  21.021
10480POPC   C4A20276   4.602   1.336  21.168
10480POPC   C1B20277   4.978   1.566  20.715
10480POPC   C2B20278   4.907   1.451  20.862
10480POPC   C3B20279   4.836   1.336  21.010
10480POPC   C4B20280   4.766   1.221  21.157
10481POPC   NC320281  12.406  15.021  -2.680
10481POPC   PO420282  12.442  15.095  -2.862
10481POPC   GL120283  12.478  15.169  -3.044
10481POPC   GL220284  12.458  15.079  -3.084
10481POPC   C1A20285  12.514  15.243  -3.227
10481POPC   D2A20286  12.549  15.316  -3.409
10481POPC   C3A20287  12.585  15.390  -3.592
10481POPC   C4A20288  12.621  15.464  -3.774
10481POPC   C1B20289  12.706  15.191  -3.210
10481POPC   C2B20290  12.742  15.265  -3.392
10481POPC   C3B20291  12.778  15.339  -3.575
10481POPC   C4B20292  12.814  15.413  -3.757
10482POPC   NC320293  15.092  16.423  21.030
10482POPC   PO420294  15.166  16.515  21.192
10482POPC   GL120295  15.240  16.607  21.354
10482POPC   GL220296  15.287  16.522  21.380
10482POPC   C1A20297  15.314  16.698  21.515
10482POPC   D2A20298  15.388  16.790  21.677
10482POPC   C3A20299  15.462  16.881  21.838
10482POPC   C4A20300  15.536  16.973  22.000
10482POPC   C1B20301  15.154  16.642  21.621
10482POPC   C2B20302  15.228  16.733  21.782
10482POPC   C3B20303  15.302  16.825  21.944
10482POPC   C4B20304  15.376  16.916  22.105
10483POPC   NC320305   1.504  20.080  14.438
10483POPC   PO420306   1.387  20.229  14.502
10483POPC   GL120307   1.270  20.378  14.566
10483POPC   GL220308   1.304  20.365  14.659
10483POPC   C1A20309   1.153  20.527  14.630
10483POPC   D2A20310   1.037  20.677  14.694
10483POPC   C3A20311   0.920  20.826  14.758
10483POPC   C4A20312   0.803  20.975  14.822
10483POPC   C1B20313   1.006  20.397  14.666
10483POPC   C2B20314   0.889  20.546  14.730
10483POPC   C3B20315   0.773  20.695  14.794
10483POPC   C4B20316   0.656  20.844  14.858
10484POPC   NC320317   5.922  18.502  20.073
10484POPC   PO420318   5.870  18.629  20.219
10484POPC   GL120319   5.818  18.756  20.365
10484POPC   GL220320   5.838  18.685  20.433
10484POPC   C1A20321   5.766  18.883  20.511
10484POPC   D2A20322   5.715  19.009  20.656
10484POPC   C3A20323   5.663  19.136  20.802
10484POPC   C4A20324   5.611  19.263  20.948
10484POPC   C1B20325   5.577  18.819  20.499
10484POPC   C2B20326   5.525  18.946  20.644
10484POPC   C3B20327   5.474  19.073  20.790
10484POPC   C4B20328   5.422  19.199  20.936
10485POPC   NC320329  14.035  12.910  22.862
10485POPC   PO420330  14.088  12.956  23.049
10485POPC   GL120331  14.141  13.002  23.236
10485POPC   GL220332  14.200  13.075  23.201
10485POPC   C1A20333  14.195  13.048  23.423
10485POPC   D2A20334  14.248  13.095  23.611
10485POPC   C3A20335  14.302  13.141  23.798
10485POPC   C4A20336  14.355  13.187  23.985
10485POPC   C1B20337  14.348  12.920  23.412
10485POPC   C2B20338  14.401  12.966  23.599
10485POPC   C3B20339  14.454  13.012  23.786
10485POPC   C4B20340  14.508  13.058  23.973
10486POPC   NC320341  -0.729   2.405  14.636
10486POPC   PO420342  -0.884   2.297  14.702
10486POPC   GL120343  -1.039   2.189  14.768
10486POPC   GL220344  -1.046   2.248  14.849
10486POPC   C1A20345  -1.194   2.082  14.835
10486POPC   D2A20346  -1.349   1.974  14.901
10486POPC   C3A20347  -1.504   1.867  14.968
10486POPC   C4A20348  -1.659   1.759  15.034
10486POPC   C1B20349  -1.068   1.961  14.933
10486POPC   C2B20350  -1.223   1.854  15.000
10486POPC   C3B20351  -1.378   1.746  15.066
10486POPC   C4B20352  -1.533   1.639  15.133
10487POPC   NC320353  20.790  14.714  17.143
10487POPC   PO420354  20.945  14.780  17.251
10487POPC   GL120355  21.100  14.846  17.359
10487POPC   GL220356  21.092  14.936  17.316
10487POPC   C1A20357  21.255  14.912  17.466
10487POPC   D2A20358  21.410  14.978  17.574
10487POPC   C3A20359  21.565  15.044  17.681
10487POPC   C4A20360  21.720  15.110  17.789
10487POPC   C1B20361  21.380  14.854  17.321
10487POPC   C2B20362  21.535  14.920  17.429
10487POPC   C3B20363  21.690  14.986  17.537
10487POPC   C4B20364  21.845  15.052  17.644
10488POPC   NC320365  -3.382   6.504   7.813
10488POPC   PO420366  -3.570   6.441   7.789
10488POPC   GL120367  -3.758   6.378   7.765
10488POPC   GL220368  -3.785   6.425   7.850
10488POPC   C1A20369  -3.947   6.315   7.742
10488POPC   D2A20370  -4.135   6.251   7.718
10488POPC   C3A20371  -4.324   6.188   7.695
10488POPC   C4A20372  -4.512   6.125   7.671
10488POPC   C1B20373  -3.905   6.150   7.847
10488POPC   C2B20374  -4.093   6.087   7.823
10488POPC   C3B20375  -4.282   6.023   7.800
10488POPC   C4B20376  -4.470   5.960   7.776
10489POPC   NC320377  22.282   6.784   4.598
10489POPC   PO420378  22.463   6.744   4.524
10489POPC   GL120379  22.644   6.704   4.450
10489POPC   GL220380  22.610   6.619   4.411
10489POPC   C1A20381  22.826   6.664   4.376
10489POPC   D2A20382  23.007   6.623   4.302
10489POPC   C3A20383  23.189   6.583   4.228
10489POPC   C4A20384  23.370   6.543   4.154
10489POPC   C1B20385  22.873   6.567   4.545
10489POPC   C2B20386  23.055   6.527   4.471
10489POPC   C3B20387  23.236   6.487   4.397
10489POPC   C4B20388  23.418   6.447   4.323
10490POPC   NC320389   9.440   4.508  22.600
10490POPC   PO420390   9.425   4.433  22.785
10490POPC   GL120391   9.410   4.358  22.970
10490POPC   GL220392   9.475   4.285  22.945
10490POPC   C1A20393   9.395   4.282  23.154
10490POPC   D2A20394   9.380   4.207  23.339
10490POPC   C3A20395   9.365   4.131  23.523
10490POPC   C4A20396   9.350   4.056  23.708
10490POPC   C1B20397   9.244   4.166  23.094
10490POPC   C2B20398   9.229   4.090  23.279
10490POPC   C3B20399   9.214   4.015  23.464
10490POPC   C4B20400   9.199   3.940  23.648
10491POPC   NC320401  23.255   8.706   6.835
10491POPC   PO420402  23.450   8.688   6.794
10491POPC   GL120403  23.645   8.670   6.753
10491POPC   GL220404  23.631   8.715   6.665
10491POPC   C1A20405  23.840   8.652   6.712
10491POPC   D2A20406  24.035   8.634   6.671
10491POPC   C3A20407  24.230   8.616   6.630
10491POPC   C4A20408  24.425   8.598   6.589
10491POPC   C1B20409  23.806   8.474   6.628
10491POPC   C2B20410  24.001   8.456   6.587
10491POPC   C3B20411  24.196   8.438   6.546
10491POPC   C4B20412  24.391   8.420   6.505
10492POPC   NC320413   8.787  -2.723   4.565
10492POPC   PO420414   8.769  -2.906   4.486
10492POPC   GL120415   8.751  -3.089   4.407
10492POPC   GL220416   8.850  -3.101   4.413
10492POPC   C1A20417   8.734  -3.272   4.327
10492POPC   D2A20418   8.716  -3.454   4.248
10492POPC   C3A20419   8.699  -3.637   4.168
10492POPC   C4A20420   8.681  -3.820   4.089
10492POPC   C1B20421   8.755  -3.194   4.144
10492POPC   C2B20422   8.737  -3.377   4.065
10492POPC   C3B20423   8.720  -3.560   3.985
10492POPC   C4B20424   8.702  -3.742   3.906
10493POPC   NC320425   6.855  22.723  14.462
10493POPC   PO420426   6.808  22.906  14.528
10493POPC   GL120427   6.761  23.089  14.594
10493POPC   GL220428   6.779  23.126  14.504
10493POPC   C1A20429   6.713  23.271  14.661
10493POPC   D2A20430   6.666  23.454  14.727
10493POPC   C3A20431   6.618  23.636  14.794
10493POPC   C4A20432   6.571  23.819  14.860
10493POPC   C1B20433   6.904  23.302  14.712
10493POPC   C2B20434   6.857  23.485  14.778
10493POPC   C3B20435   6.809  23.667  14.845
10493POPC   C4B20436   6.762  23.850  14.911
10494POPC   NC320437  21.169   7.801  17.515
10494POPC   PO420438  21.333   7.767  17.624
10494POPC   GL120439  21.497   7.733  17.733
10494POPC   GL220440  21.554   7.752  17.654
10494POPC   C1A20441  21.661   7.699  17.843
10494POPC   D2A20442  21.825   7.664  17.952
10494POPC   C3A20443  21.989   7.630  18.062
10494POPC   C4A20444  22.153   7.596  18.171
10494POPC   C1B20445  21.654   7.505  17.792
10494POPC   C2B20446  21.818   7.471  17.902
10494POPC   C3B20447  21.982   7.437  18.011
10494POPC   C4B20448  22.146   7.403  18.121
10495POPC   NC320449  17.139  19.722   3.423
10495POPC   PO420450  17.248  19.858   3.324
10495POPC   GL120451  17.357  19.994   3.225
10495POPC   GL220452  17.385  19.924   3.160
10495POPC   C1A20453  17.466  20.130   3.127
10495POPC   D2A20454  17.574  20.265   3.028
10495POPC   C3A20455  17.683  20.401   2.930
10495POPC   C4A20456  17.792  20.537   2.831
10495POPC   C1B20457  17.624  20.086   3.242
10495POPC   C2B20458  17.732  20.222   3.143
10495POPC   C3B20459  17.841  20.358   3.044
10495POPC   C4B20460  17.950  20.494   2.946
10496POPC   NC320461   5.384  21.645   3.938
10496POPC   PO420462   5.315  21.810   3.847
10496POPC   GL120463   5.246  21.975   3.756
10496POPC   GL220464   5.297  22.032   3.822
10496POPC   C1A20465   5.178  22.139   3.666
10496POPC   D2A20466   5.109  22.304   3.575
10496POPC   C3A20467   5.041  22.468   3.485
10496POPC   C4A20468   4.972  22.633   3.394
10496POPC   C1B20469   5.019  22.140   3.787
10496POPC   C2B20470   4.950  22.305   3.697
10496POPC   C3B20471   4.882  22.469   3.606
10496POPC   C4B20472   4.813  22.634   3.516
10497POPC   NC320473  22.715   5.584   7.228
10497POPC   PO420474  22.899   5.517   7.188
10497POPC   GL120475  23.083   5.450   7.148
10497POPC   GL220476  23.054   5.425   7.055
10497POPC   C1A20477  23.267   5.384   7.107
10497POPC   D2A20478  23.452   5.317   7.067
10497POPC   C3A20479  23.636   5.251   7.026
10497POPC   C4A20480  23.820   5.184   6.986
10497POPC   C1B20481  23.216   5.202   7.173
10497POPC   C2B20482  23.400   5.135   7.132
10497POPC   C3B20483  23.585   5.069   7.092
10497POPC   C4B20484  23.769   5.002   7.052
10498POPC   NC320485  20.013   8.024   0.681
10498POPC   PO420486  20.161   8.004   0.548
10498POPC   GL120487  20.309   7.984   0.415
10498POPC   GL220488  20.253   8.028   0.345
10498POPC   C1A20489  20.458   7.963   0.283
10498POPC   D2A20490  20.606   7.943   0.150
10498POPC   C3A20491  20.755   7.922   0.018
10498POPC   C4A20492  20.903   7.902  -0.115
10498POPC   C1B20493  20.385   7.785   0.229
10498POPC   C2B20494  20.534   7.764   0.097
10498POPC   C3B20495  20.682   7.744  -0.036
10498POPC   C4B20496  20.831   7.723  -0.169
10499POPC   NC320497   2.755  21.640   8.296
10499POPC   PO420498   2.648  21.807   8.271
10499POPC   GL120499   2.541  21.974   8.246
10499POPC   GL220500   2.624  22.029   8.260
10499POPC   C1A20501   2.434  22.141   8.221
10499POPC   D2A20502   2.328  22.309   8.195
10499POPC   C3A20503   2.221  22.476   8.170
10499POPC   C4A20504   2.114  22.643   8.145
10499POPC   C1B20505   2.396  22.147   8.417
10499POPC   C2B20506   2.290  22.314   8.392
10499POPC   C3B20507   2.183  22.481   8.366
10499POPC   C4B20508   2.076  22.648   8.341
10500POPC   NC320509  -1.667   7.244   2.736
10500POPC   PO420510  -1.834   7.209   2.632
10500POPC   GL120511  -2.001   7.174   2.528
10500POPC   GL220512  -1.995   7.077   2.550
10500POPC   C1A20513  -2.168   7.140   2.424
10500POPC   D2A20514  -2.336   7.105   2.320
10500POPC   C3A20515  -2.503   7.071   2.216
10500POPC   C4A20516  -2.670   7.036   2.112
10500POPC   C1B20517  -2.059   7.110   2.259
10500POPC   C2B20518  -2.227   7.075   2.155
10500POPC   C3B20519  -2.394   7.041   2.051
10500POPC   C4B20520  -2.561   7.006   1.947
10501POPC   NC320521   9.090  13.621  23.263
10501POPC   PO420522   9.077  13.672  23.456
10501POPC   GL120523   9.064  13.723  23.649
10501POPC   GL220524   9.117  13.642  23.674
10501POPC   C1A20525   9.051  13.774  23.842
10501POPC   D2A20526   9.039  13.826  24.035
10501POPC   C3A20527   9.026  13.877  24.228
10501POPC   C4A20528   9.013  13.928  24.421
10501POPC   C1B20529   8.882  13.669  23.859
10501POPC   C2B20530   8.870  13.720  24.052
10501POPC   C3B20531   8.857  13.771  24.245
10501POPC   C4B20532   8.844  13.822  24.438
10502POPC   NC320533   8.484   0.420  19.887
10502POPC   PO420534   8.469   0.280  20.029
10502POPC   GL120535   8.454   0.140  20.171
10502POPC   GL220536   8.464   0.068  20.101
10502POPC   C1A20537   8.438  -0.001  20.312
10502POPC   D2A20538   8.423  -0.141  20.454
10502POPC   C3A20539   8.407  -0.282  20.595
10502POPC   C4A20540   8.392  -0.422  20.737
10502POPC   C1B20541   8.240  -0.005  20.286
10502POPC   C2B20542   8.225  -0.146  20.428
10502POPC   C3B20543   8.209  -0.286  20.569
10502POPC   C4B20544   8.194  -0.427  20.711
10503POPC   NC320545   5.240   8.350  22.930
10503POPC   PO420546   5.182   8.330  23.120
10503POPC   GL120547   5.124   8.310  23.310
10503POPC   GL220548   5.219   8.305  23.339
10503POPC   C1A20549   5.065   8.291  23.500
10503POPC   D2A20550   5.007   8.271  23.691
10503POPC   C3A20551   4.948   8.252  23.881
10503POPC   C4A20552   4.890   8.232  24.071
10503POPC   C1B20553   5.061   8.092  23.479
10503POPC   C2B20554   5.003   8.072  23.669
10503POPC   C3B20555   4.944   8.053  23.859
10503POPC   C4B20556   4.886   8.033  24.049
10504POPC   NC320557  -1.692  17.684   8.848
10504POPC   PO420558  -1.858  17.795   8.835
10504POPC   GL120559  -2.024  17.906   8.822
10504POPC   GL220560  -2.062  17.859   8.902
10504POPC   C1A20561  -2.190  18.017   8.809
10504POPC   D2A20562  -2.355  18.129   8.795
10504POPC   C3A20563  -2.521  18.240   8.782
10504POPC   C4A20564  -2.687  18.351   8.769
10504POPC   C1B20565  -2.272  17.880   8.689
10504POPC   C2B20566  -2.438  17.991   8.676
10504POPC   C3B20567  -2.604  18.103   8.662
10504POPC   C4B20568  -2.770  18.214   8.649
10505POPC   NC320569  -1.750  10.031  17.443
10505POPC   PO420570  -1.915  10.034  17.556
10505POPC   GL120571  -2.080  10.037  17.669
10505POPC   GL220572  -2.038   9.971  17.732
10505POPC   C1A20573  -2.245  10.040  17.782
10505POPC   D2A20574  -2.410  10.044  17.895
10505POPC   C3A20575  -2.575  10.047  18.008
10505POPC   C4A20576  -2.740  10.050  18.121
10505POPC   C1B20577  -2.322   9.890  17.674
10505POPC   C2B20578  -2.487   9.893  17.787
10505POPC   C3B20579  -2.652   9.897  17.900
10505POPC   C4B20580  -2.817   9.900  18.013
10506POPC   NC320581   8.020  10.702  -3.774
10506POPC   PO420582   7.994  10.710  -3.972
10506POPC   GL120583   7.968  10.718  -4.170
10506POPC   GL220584   7.902  10.792  -4.159
10506POPC   C1A20585   7.942  10.726  -4.368
10506POPC   D2A20586   7.916  10.734  -4.567
10506POPC   C3A20587   7.890  10.742  -4.765
10506POPC   C4A20588   7.864  10.750  -4.963
10506POPC   C1B20589   7.793  10.593  -4.354
10506POPC   C2B20590   7.767  10.601  -4.552
10506POPC   C3B20591   7.741  10.609  -4.751
10506POPC   C4B20592   7.715  10.617  -4.949
10507POPC   NC320593   4.577  22.265  13.491
10507POPC   PO420594   4.496  22.441  13.542
10507POPC   GL120595   4.415  22.617  13.593
10507POPC   GL220596   4.501  22.642  13.639
10507POPC   C1A20597   4.335  22.792  13.645
10507POPC   D2A20598   4.254  22.968  13.696
10507POPC   C3A20599   4.174  23.143  13.748
10507POPC   C4A20600   4.093  23.319  13.799
10507POPC   C1B20601   4.268  22.712  13.815
10507POPC   C2B20602   4.187  22.887  13.867
10507POPC   C3B20603   4.107  23.063  13.918
10507POPC   C4B20604   4.026  23.238  13.969
10508POPC   NC320605   6.172  13.382  -3.018
10508POPC   PO420606   6.118  13.432  -3.204
10508POPC   GL120607   6.064  13.482  -3.390
10508POPC   GL220608   6.132  13.555  -3.391
10508POPC   C1A20609   6.009  13.532  -3.576
10508POPC   D2A20610   5.955  13.581  -3.762
10508POPC   C3A20611   5.900  13.631  -3.948
10508POPC   C4A20612   5.846  13.681  -4.134
10508POPC   C1B20613   5.874  13.659  -3.502
10508POPC   C2B20614   5.819  13.709  -3.688
10508POPC   C3B20615   5.765  13.759  -3.874
10508POPC   C4B20616   5.711  13.808  -4.060
10509POPC   NC320617  13.183  -1.958   3.696
10509POPC   PO420618  13.236  -2.128   3.606
10509POPC   GL120619  13.289  -2.298   3.516
10509POPC   GL220620  13.350  -2.247   3.455
10509POPC   C1A20621  13.342  -2.468   3.425
10509POPC   D2A20622  13.396  -2.639   3.335
10509POPC   C3A20623  13.449  -2.809   3.244
10509POPC   C4A20624  13.502  -2.979   3.154
10509POPC   C1B20625  13.193  -2.446   3.294
10509POPC   C2B20626  13.246  -2.616   3.204
10509POPC   C3B20627  13.299  -2.786   3.114
10509POPC   C4B20628  13.353  -2.956   3.023
10510POPC   NC320629  18.781  20.555  11.038
10510POPC   PO420630  18.909  20.708  11.057
10510POPC   GL120631  19.037  20.861  11.076
10510POPC   GL220632  19.097  20.819  11.008
10510POPC   C1A20633  19.164  21.014  11.094
10510POPC   D2A20634  19.292  21.166  11.113
10510POPC   C3A20635  19.419  21.319  11.131
10510POPC   C4A20636  19.547  21.472  11.150
10510POPC   C1B20637  19.260  20.916  11.240
10510POPC   C2B20638  19.388  21.069  11.259
10510POPC   C3B20639  19.515  21.221  11.277
10510POPC   C4B20640  19.643  21.374  11.296
10511POPC   NC320641  -0.003  14.038  18.790
10511POPC   PO420642  -0.137  14.099  18.926
10511POPC   GL120643  -0.271  14.160  19.062
10511POPC   GL220644  -0.229  14.250  19.062
10511POPC   C1A20645  -0.404  14.220  19.198
10511POPC   D2A20646  -0.538  14.281  19.333
10511POPC   C3A20647  -0.671  14.341  19.469
10511POPC   C4A20648  -0.805  14.402  19.605
10511POPC   C1B20649  -0.281  14.163  19.344
10511POPC   C2B20650  -0.415  14.223  19.480
10511POPC   C3B20651  -0.548  14.284  19.616
10511POPC   C4B20652  -0.682  14.345  19.752
10512POPC   NC320653  15.466  -0.723   3.157
10512POPC   PO420654  15.548  -0.879   3.063
10512POPC   GL120655  15.630  -1.035   2.969
10512POPC   GL220656  15.704  -0.977   2.937
10512POPC   C1A20657  15.712  -1.192   2.875
10512POPC   D2A20658  15.795  -1.348   2.782
10512POPC   C3A20659  15.877  -1.505   2.688
10512POPC   C4A20660  15.959  -1.661   2.594
10512POPC   C1B20661  15.607  -1.149   2.711
10512POPC   C2B20662  15.689  -1.305   2.617
10512POPC   C3B20663  15.771  -1.462   2.523
10512POPC   C4B20664  15.853  -1.618   2.430
10513POPC   NC320665  23.515  11.108  11.510
10513POPC   PO420666  23.714  11.121  11.530
10513POPC   GL120667  23.913  11.134  11.550
10513POPC   GL220668  23.916  11.195  11.471
10513POPC   C1A20669  24.111  11.147  11.569
10513POPC   D2A20670  24.310  11.159  11.589
10513POPC   C3A20671  24.508  11.172  11.608
10513POPC   C4A20672  24.707  11.185  11.628
10513POPC   C1B20673  24.133  10.989  11.448
10513POPC   C2B20674  24.332  11.002  11.467
10513POPC   C3B20675  24.531  11.015  11.487
10513POPC   C4B20676  24.729  11.028  11.507
10514POPC   NC320677   8.454  -2.244  16.316
10514POPC   PO420678   8.432  -2.420  16.409
10514POPC   GL120679   8.410  -2.596  16.502
10514POPC   GL220680   8.510  -2.607  16.505
10514POPC   C1A20681   8.388  -2.771  16.595
10514POPC   D2A20682   8.367  -2.947  16.689
10514POPC   C3A20683   8.345  -3.122  16.782
10514POPC   C4A20684   8.323  -3.298  16.875
10514POPC   C1B20685   8.382  -2.864  16.418
10514POPC   C2B20686   8.361  -3.040  16.512
10514POPC   C3B20687   8.339  -3.215  16.605
10514POPC   C4B20688   8.317  -3.391  16.698
10515POPC   NC320689  19.258   4.063  18.150
10515POPC   PO420690  19.393   3.983  18.274
10515POPC   GL120691  19.528   3.903  18.398
10515POPC   GL220692  19.586   3.879  18.320
10515POPC   C1A20693  19.663   3.823  18.522
10515POPC   D2A20694  19.798   3.744  18.647
10515POPC   C3A20695  19.933   3.664  18.771
10515POPC   C4A20696  20.068   3.584  18.895
10515POPC   C1B20697  19.570   3.647  18.510
10515POPC   C2B20698  19.705   3.567  18.634
10515POPC   C3B20699  19.840   3.487  18.758
10515POPC   C4B20700  19.975   3.407  18.882
10516POPC   NC320701   6.343   7.686  23.129
10516POPC   PO420702   6.298   7.650  23.320
10516POPC   GL120703   6.253   7.614  23.511
10516POPC   GL220704   6.350   7.604  23.533
10516POPC   C1A20705   6.207   7.578  23.703
10516POPC   D2A20706   6.162   7.541  23.894
10516POPC   C3A20707   6.116   7.505  24.086
10516POPC   C4A20708   6.071   7.469  24.277
10516POPC   C1B20709   6.197   7.382  23.663
10516POPC   C2B20710   6.152   7.346  23.855
10516POPC   C3B20711   6.106   7.309  24.046
10516POPC   C4B20712   6.061   7.273  24.238
10517POPC   NC320713  17.997   0.671   3.652
10517POPC   PO420714  18.114   0.538   3.559
10517POPC   GL120715  18.231   0.405   3.466
10517POPC   GL220716  18.306   0.427   3.529
10517POPC   C1A20717  18.348   0.272   3.373
10517POPC   D2A20718  18.465   0.138   3.281
10517POPC   C3A20719  18.582   0.005   3.188
10517POPC   C4A20720  18.699  -0.128   3.095
10517POPC   C1B20721  18.410   0.414   3.247
10517POPC   C2B20722  18.527   0.281   3.155
10517POPC   C3B20723  18.644   0.148   3.062
10517POPC   C4B20724  18.761   0.014   2.969
10518POPC   NC320725  11.745  18.998  20.276
10518POPC   PO420726  11.770  19.132  20.423
10518POPC   GL120727  11.795  19.266  20.570
10518POPC   GL220728  11.886  19.229  20.588
10518POPC   C1A20729  11.820  19.399  20.717
10518POPC   D2A20730  11.844  19.533  20.863
10518POPC   C3A20731  11.869  19.666  21.010
10518POPC   C4A20732  11.894  19.800  21.157
10518POPC   C1B20733  11.742  19.270  20.848
10518POPC   C2B20734  11.766  19.403  20.994
10518POPC   C3B20735  11.791  19.537  21.141
10518POPC   C4B20736  11.816  19.670  21.288
10519POPC   NC320737  17.225   0.020   3.721
10519POPC   PO420738  17.327  -0.127   3.631
10519POPC   GL120739  17.429  -0.274   3.541
10519POPC   GL220740  17.373  -0.262   3.459
10519POPC   C1A20741  17.531  -0.421   3.451
10519POPC   D2A20742  17.632  -0.567   3.361
10519POPC   C3A20743  17.734  -0.714   3.271
10519POPC   C4A20744  17.836  -0.861   3.181
10519POPC   C1B20745  17.399  -0.554   3.520
10519POPC   C2B20746  17.501  -0.701   3.430
10519POPC   C3B20747  17.603  -0.848   3.340
10519POPC   C4B20748  17.704  -0.995   3.250
10520POPC   NC320749  -2.157  11.050  16.743
10520POPC   PO420750  -2.326  11.064  16.849
10520POPC   GL120751  -2.495  11.078  16.955
10520POPC   GL220752  -2.489  10.981  16.979
10520POPC   C1A20753  -2.664  11.093  17.061
10520POPC   D2A20754  -2.833  11.107  17.167
10520POPC   C3A20755  -3.002  11.122  17.273
10520POPC   C4A20756  -3.171  11.136  17.379
10520POPC   C1B20757  -2.770  11.046  16.898
10520POPC   C2B20758  -2.939  11.061  17.004
10520POPC   C3B20759  -3.108  11.075  17.110
10520POPC   C4B20760  -3.277  11.089  17.216
10521POPC   NC320761  19.565  14.930   1.304
10521POPC   PO420762  19.704  15.000   1.179
10521POPC   GL120763  19.843  15.070   1.054
10521POPC   GL220764  19.838  14.986   1.001
10521POPC   C1A20765  19.983  15.140   0.929
10521POPC   D2A20766  20.122  15.211   0.804
10521POPC   C3A20767  20.262  15.281   0.679
10521POPC   C4A20768  20.401  15.351   0.554
10521POPC   C1B20769  20.126  15.060   1.043
10521POPC   C2B20770  20.265  15.130   0.918
10521POPC   C3B20771  20.405  15.200   0.793
10521POPC   C4B20772  20.544  15.271   0.668
10522POPC   NC320773  15.105  20.029  17.908
10522POPC   PO420774  15.180  20.177  18.019
10522POPC   GL120775  15.255  20.325  18.130
10522POPC   GL220776  15.292  20.259  18.195
10522POPC   C1A20777  15.330  20.474  18.241
10522POPC   D2A20778  15.406  20.622  18.352
10522POPC   C3A20779  15.481  20.771  18.463
10522POPC   C4A20780  15.556  20.919  18.574
10522POPC   C1B20781  15.160  20.482  18.345
10522POPC   C2B20782  15.235  20.631  18.456
10522POPC   C3B20783  15.310  20.779  18.567
10522POPC   C4B20784  15.385  20.928  18.678
10523POPC   NC320785  16.672  -0.280  16.335
10523POPC   PO420786  16.773  -0.426  16.428
10523POPC   GL120787  16.874  -0.572  16.521
10523POPC   GL220788  16.960  -0.525  16.501
10523POPC   C1A20789  16.974  -0.718  16.614
10523POPC   D2A20790  17.075  -0.863  16.706
10523POPC   C3A20791  17.175  -1.009  16.799
10523POPC   C4A20792  17.276  -1.155  16.892
10523POPC   C1B20793  16.990  -0.817  16.441
10523POPC   C2B20794  17.090  -0.963  16.534
10523POPC   C3B20795  17.191  -1.109  16.626
10523POPC   C4B20796  17.292  -1.254  16.719
10524POPC   NC320797  -1.899   4.853   4.542
10524POPC   PO420798  -2.070   4.777   4.472
10524POPC   GL120799  -2.241   4.701   4.402
10524POPC   GL220800  -2.293   4.765   4.457
10524POPC   C1A20801  -2.412   4.624   4.331
10524POPC   D2A20802  -2.582   4.548   4.261
10524POPC   C3A20803  -2.753   4.471   4.190
10524POPC   C4A20804  -2.924   4.395   4.120
10524POPC   C1B20805  -2.415   4.492   4.481
10524POPC   C2B20806  -2.585   4.416   4.411
10524POPC   C3B20807  -2.756   4.339   4.341
10524POPC   C4B20808  -2.927   4.263   4.270
10525POPC   NC320809  14.725  22.823  11.642
10525POPC   PO420810  14.802  23.006  11.663
10525POPC   GL120811  14.879  23.189  11.684
10525POPC   GL220812  14.971  23.150  11.689
10525POPC   C1A20813  14.957  23.372  11.706
10525POPC   D2A20814  15.034  23.556  11.727
10525POPC   C3A20815  15.112  23.739  11.749
10525POPC   C4A20816  15.189  23.922  11.770
10525POPC   C1B20817  14.940  23.356  11.904
10525POPC   C2B20818  15.017  23.540  11.926
10525POPC   C3B20819  15.094  23.723  11.947
10525POPC   C4B20820  15.172  23.906  11.969
10526POPC   NC320821  18.649  13.313  -0.261
10526POPC   PO420822  18.774  13.360  -0.410
10526POPC   GL120823  18.899  13.407  -0.559
10526POPC   GL220824  18.886  13.317  -0.599
10526POPC   C1A20825  19.024  13.455  -0.707
10526POPC   D2A20826  19.150  13.502  -0.856
10526POPC   C3A20827  19.275  13.550  -1.004
10526POPC   C4A20828  19.400  13.597  -1.153
10526POPC   C1B20829  19.178  13.384  -0.600
10526POPC   C2B20830  19.303  13.432  -0.749
10526POPC   C3B20831  19.428  13.479  -0.897
10526POPC   C4B20832  19.554  13.527  -1.046
10527POPC   NC320833   8.324  23.298  13.559
10527POPC   PO420834   8.303  23.490  13.612
10527POPC   GL120835   8.282  23.682  13.665
10527POPC   GL220836   8.349  23.669  13.738
10527POPC   C1A20837   8.261  23.873  13.718
10527POPC   D2A20838   8.239  24.065  13.772
10527POPC   C3A20839   8.218  24.256  13.825
10527POPC   C4A20840   8.197  24.448  13.878
10527POPC   C1B20841   8.114  23.822  13.844
10527POPC   C2B20842   8.092  24.014  13.897
10527POPC   C3B20843   8.071  24.205  13.950
10527POPC   C4B20844   8.050  24.397  14.004
10528POPC   NC320845  -0.615  18.953   8.159
10528POPC   PO420846  -0.760  19.089   8.135
10528POPC   GL120847  -0.905  19.225   8.111
10528POPC   GL220848  -0.893  19.254   8.206
10528POPC   C1A20849  -1.050  19.360   8.088
10528POPC   D2A20850  -1.196  19.496   8.064
10528POPC   C3A20851  -1.341  19.631   8.041
10528POPC   C4A20852  -1.486  19.767   8.017
10528POPC   C1B20853  -1.186  19.225   8.147
10528POPC   C2B20854  -1.331  19.361   8.123
10528POPC   C3B20855  -1.476  19.497   8.100
10528POPC   C4B20856  -1.621  19.632   8.076
10529POPC   NC320857  -0.774   3.070  15.529
10529POPC   PO420858  -0.928   2.968  15.605
10529POPC   GL120859  -1.082   2.866  15.681
10529POPC   GL220860  -1.038   2.780  15.657
10529POPC   C1A20861  -1.237   2.765  15.758
10529POPC   D2A20862  -1.391   2.663  15.834
10529POPC   C3A20863  -1.546   2.562  15.911
10529POPC   C4A20864  -1.700   2.460  15.987
10529POPC   C1B20865  -1.328   2.769  15.580
10529POPC   C2B20866  -1.482   2.667  15.656
10529POPC   C3B20867  -1.636   2.566  15.732
10529POPC   C4B20868  -1.791   2.464  15.809
10530POPC   NC320869  10.168   5.566  23.031
10530POPC   PO420870  10.165   5.502  23.220
10530POPC   GL120871  10.162   5.438  23.409
10530POPC   GL220872  10.217   5.358  23.383
10530POPC   C1A20873  10.159   5.373  23.599
10530POPC   D2A20874  10.156   5.309  23.788
10530POPC   C3A20875  10.153   5.244  23.978
10530POPC   C4A20876  10.150   5.180  24.167
10530POPC   C1B20877   9.992   5.270  23.561
10530POPC   C2B20878   9.989   5.206  23.751
10530POPC   C3B20879   9.986   5.141  23.940
10530POPC   C4B20880   9.983   5.077  24.129
10531POPC   NC320881   0.154   1.065   5.652
10531POPC   PO420882   0.009   0.938   5.597
10531POPC   GL120883  -0.136   0.811   5.542
10531POPC   GL220884  -0.103   0.745   5.610
10531POPC   C1A20885  -0.280   0.684   5.488
10531POPC   D2A20886  -0.425   0.557   5.433
10531POPC   C3A20887  -0.569   0.430   5.379
10531POPC   C4A20888  -0.714   0.303   5.324
10531POPC   C1B20889  -0.158   0.604   5.351
10531POPC   C2B20890  -0.303   0.477   5.296
10531POPC   C3B20891  -0.447   0.350   5.242
10531POPC   C4B20892  -0.592   0.223   5.187
10532POPC   NC320893  21.976   9.535  16.618
10532POPC   PO420894  22.148   9.522  16.718
10532POPC   GL120895  22.320   9.509  16.818
10532POPC   GL220896  22.368   9.485  16.734
10532POPC   C1A20897  22.493   9.496  16.919
10532POPC   D2A20898  22.665   9.483  17.019
10532POPC   C3A20899  22.838   9.470  17.120
10532POPC   C4A20900  23.010   9.457  17.220
10532POPC   C1B20901  22.458   9.302  16.954
10532POPC   C2B20902  22.630   9.289  17.054
10532POPC   C3B20903  22.803   9.276  17.155
10532POPC   C4B20904  22.975   9.263  17.255
10533POPC   NC320905  22.698  14.391  12.708
10533POPC   PO420906  22.885  14.449  12.750
10533POPC   GL120907  23.072  14.507  12.792
10533POPC   GL220908  23.106  14.418  12.763
10533POPC   C1A20909  23.259  14.565  12.833
10533POPC   D2A20910  23.445  14.624  12.875
10533POPC   C3A20911  23.632  14.682  12.916
10533POPC   C4A20912  23.819  14.740  12.958
10533POPC   C1B20913  23.238  14.498  13.020
10533POPC   C2B20914  23.425  14.556  13.062
10533POPC   C3B20915  23.612  14.614  13.103
10533POPC   C4B20916  23.799  14.672  13.145
10534POPC   NC320917   3.979  19.105   1.263
10534POPC   PO420918   3.896  19.244   1.146
10534POPC   GL120919   3.813  19.383   1.029
10534POPC   GL220920   3.777  19.429   1.109
10534POPC   C1A20921   3.731  19.522   0.911
10534POPC   D2A20922   3.648  19.662   0.794
10534POPC   C3A20923   3.566  19.801   0.676
10534POPC   C4A20924   3.483  19.940   0.559
10534POPC   C1B20925   3.564  19.413   0.898
10534POPC   C2B20926   3.482  19.552   0.781
10534POPC   C3B20927   3.399  19.691   0.664
10534POPC   C4B20928   3.316  19.830   0.546
10535POPC   NC320929  14.430  21.982   4.856
10535POPC   PO420930  14.490  22.160   4.789
10535POPC   GL120931  14.550  22.338   4.722
10535POPC   GL220932  14.638  22.299   4.695
10535POPC   C1A20933  14.610  22.517   4.654
10535POPC   D2A20934  14.671  22.695   4.587
10535POPC   C3A20935  14.731  22.874   4.519
10535POPC   C4A20936  14.791  23.052   4.452
10535POPC   C1B20937  14.685  22.560   4.835
10535POPC   C2B20938  14.746  22.738   4.767
10535POPC   C3B20939  14.806  22.916   4.700
10535POPC   C4B20940  14.866  23.095   4.632
10536POPC   NC320941  11.568  -3.212   5.817
10536POPC   PO420942  11.594  -3.401   5.756
10536POPC   GL120943  11.620  -3.590   5.695
10536POPC   GL220944  11.639  -3.558   5.603
10536POPC   C1A20945  11.646  -3.779   5.635
10536POPC   D2A20946  11.673  -3.967   5.574
10536POPC   C3A20947  11.699  -4.156   5.514
10536POPC   C4A20948  11.725  -4.345   5.453
10536POPC   C1B20949  11.452  -3.792   5.591
10536POPC   C2B20950  11.478  -3.981   5.531
10536POPC   C3B20951  11.504  -4.169   5.470
10536POPC   C4B20952  11.530  -4.358   5.410
10537POPC   NC320953  16.989  17.979  18.769
10537POPC   PO420954  17.096  18.091  18.896
10537POPC   GL120955  17.203  18.203  19.023
10537POPC   GL220956  17.286  18.183  18.971
10537POPC   C1A20957  17.310  18.315  19.150
10537POPC   D2A20958  17.416  18.426  19.277
10537POPC   C3A20959  17.523  18.538  19.404
10537POPC   C4A20960  17.630  18.650  19.531
10537POPC   C1B20961  17.342  18.154  19.265
10537POPC   C2B20962  17.449  18.266  19.392
10537POPC   C3B20963  17.555  18.377  19.519
10537POPC   C4B20964  17.662  18.489  19.646
10538POPC   NC320965  12.739   2.040  -1.020
10538POPC   PO420966  12.777   1.924  -1.179
10538POPC   GL120967  12.815   1.808  -1.338
10538POPC   GL220968  12.871   1.881  -1.377
10538POPC   C1A20969  12.853   1.693  -1.496
10538POPC   D2A20970  12.892   1.577  -1.655
10538POPC   C3A20971  12.930   1.462  -1.813
10538POPC   C4A20972  12.968   1.346  -1.972
10538POPC   C1B20973  12.692   1.767  -1.589
10538POPC   C2B20974  12.730   1.651  -1.747
10538POPC   C3B20975  12.769   1.536  -1.906
10538POPC   C4B20976  12.807   1.420  -2.065
10539POPC   NC320977   0.076  18.020  15.572
10539POPC   PO420978  -0.065  18.136  15.654
10539POPC   GL120979  -0.206  18.252  15.736
10539POPC   GL220980  -0.141  18.328  15.740
10539POPC   C1A20981  -0.347  18.368  15.817
10539POPC   D2A20982  -0.489  18.483  15.899
10539POPC   C3A20983  -0.630  18.599  15.980
10539POPC   C4A20984  -0.771  18.715  16.062
10539POPC   C1B20985  -0.290  18.309  16.000
10539POPC   C2B20986  -0.431  18.425  16.081
10539POPC   C3B20987  -0.573  18.540  16.163
10539POPC   C4B20988  -0.714  18.656  16.244
10540POPC   NC320989  15.074  17.917  20.070
10540POPC   PO420990  15.149  18.028  20.219
10540POPC   GL120991  15.224  18.139  20.368
10540POPC   GL220992  15.293  18.175  20.306
10540POPC   C1A20993  15.298  18.250  20.517
10540POPC   D2A20994  15.373  18.360  20.665
10540POPC   C3A20995  15.447  18.471  20.814
10540POPC   C4A20996  15.522  18.582  20.963
10540POPC   C1B20997  15.421  18.100  20.567
10540POPC   C2B20998  15.495  18.211  20.716
10540POPC   C3B20999  15.570  18.321  20.864
10540POPC   C4B21000  15.645  18.432  21.013
10541POPC   NC321001  -2.385  11.460  16.288
10541POPC   PO421002  -2.559  11.479  16.385
10541POPC   GL121003  -2.733  11.498  16.482
10541POPC   GL221004  -2.708  11.592  16.508
10541POPC   C1A21005  -2.907  11.517  16.578
10541POPC   D2A21006  -3.081  11.537  16.675
10541POPC   C3A21007  -3.255  11.556  16.771
10541POPC   C4A21008  -3.429  11.575  16.868
10541POPC   C1B21009  -2.822  11.448  16.745
10541POPC   C2B21010  -2.996  11.467  16.842
10541POPC   C3B21011  -3.170  11.486  16.938
10541POPC   C4B21012  -3.344  11.505  17.035
10542POPC   NC321013  15.200  16.448  -1.102
10542POPC   PO421014  15.277  16.540  -1.262
10542POPC   GL121015  15.354  16.632  -1.422
10542POPC   GL221016  15.375  16.543  -1.463
10542POPC   C1A21017  15.431  16.724  -1.582
10542POPC   D2A21018  15.508  16.816  -1.742
10542POPC   C3A21019  15.585  16.908  -1.902
10542POPC   C4A21020  15.662  17.000  -2.062
10542POPC   C1B21021  15.611  16.725  -1.495
10542POPC   C2B21022  15.688  16.817  -1.655
10542POPC   C3B21023  15.765  16.909  -1.815
10542POPC   C4B21024  15.842  17.001  -1.975
10543POPC   NC321025  11.246  22.850   5.070
10543POPC   PO421026  11.276  23.035   5.001
10543POPC   GL121027  11.306  23.220   4.932
10543POPC   GL221028  11.390  23.227   4.986
10543POPC   C1A21029  11.336  23.405   4.863
10543POPC   D2A21030  11.366  23.591   4.793
10543POPC   C3A21031  11.396  23.776   4.724
10543POPC   C4A21032  11.426  23.961   4.655
10543POPC   C1B21033  11.232  23.480   5.016
10543POPC   C2B21034  11.262  23.665   4.947
10543POPC   C3B21035  11.292  23.850   4.878
10543POPC   C4B21036  11.322  24.035   4.809
10544POPC   NC321037  -3.136  10.102   5.304
10544POPC   PO421038  -3.326  10.105   5.241
10544POPC   GL121039  -3.516  10.108   5.178
10544POPC   GL221040  -3.539  10.038   5.246
10544POPC   C1A21041  -3.706  10.111   5.115
10544POPC   D2A21042  -3.895  10.114   5.053
10544POPC   C3A21043  -4.085  10.117   4.990
10544POPC   C4A21044  -4.275  10.120   4.927
10544POPC   C1B21045  -3.664   9.968   4.982
10544POPC   C2B21046  -3.853   9.971   4.919
10544POPC   C3B21047  -4.043   9.974   4.856
10544POPC   C4B21048  -4.233   9.977   4.793
10545POPC   NC321049  -0.373  19.035  12.253
10545POPC   PO421050  -0.525  19.160  12.289
10545POPC   GL121051  -0.677  19.285  12.325
10545POPC   GL221052  -0.622  19.361  12.290
10545POPC   C1A21053  -0.828  19.411  12.362
10545POPC   D2A21054  -0.980  19.536  12.398
10545POPC   C3A21055  -1.131  19.662  12.435
10545POPC   C4A21056  -1.283  19.787  12.471
10545POPC   C1B21057  -0.756  19.445  12.545
10545POPC   C2B21058  -0.907  19.571  12.581
10545POPC   C3B21059  -1.059  19.696  12.618
10545POPC   C4B21060  -1.210  19.822  12.654
10546POPC   NC321061  22.862  10.697  14.697
10546POPC   PO421062  23.050  10.715  14.762
10546POPC   GL121063  23.238  10.733  14.827
10546POPC   GL221064  23.264  10.651  14.776
10546POPC   C1A21065  23.426  10.751  14.892
10546POPC   D2A21066  23.615  10.768  14.958
10546POPC   C3A21067  23.803  10.786  15.023
10546POPC   C4A21068  23.991  10.804  15.088
10546POPC   C1B21069  23.382  10.637  15.051
10546POPC   C2B21070  23.570  10.655  15.116
10546POPC   C3B21071  23.759  10.673  15.182
10546POPC   C4B21072  23.947  10.691  15.247
10547POPC   NC321073  14.098  -3.213  10.562
10547POPC   PO421074  14.164  -3.402  10.572
10547POPC   GL121075  14.230  -3.591  10.582
10547POPC   GL221076  14.305  -3.561  10.641
10547POPC   C1A21077  14.296  -3.779  10.592
10547POPC   D2A21078  14.362  -3.968  10.601
10547POPC   C3A21079  14.428  -4.156  10.611
10547POPC   C4A21080  14.494  -4.345  10.621
10547POPC   C1B21081  14.410  -3.747  10.431
10547POPC   C2B21082  14.476  -3.936  10.440
10547POPC   C3B21083  14.542  -4.125  10.450
10547POPC   C4B21084  14.608  -4.313  10.460
10548POPC   NC321085   3.995   1.475   0.859
10548POPC   PO421086   3.905   1.353   0.728
10548POPC   GL121087   3.815   1.231   0.597
10548POPC   GL221088   3.900   1.179   0.588
10548POPC   C1A21089   3.725   1.109   0.467
10548POPC   D2A21090   3.635   0.988   0.336
10548POPC   C3A21091   3.545   0.866   0.206
10548POPC   C4A21092   3.455   0.744   0.075
10548POPC   C1B21093   3.781   1.229   0.317
10548POPC   C2B21094   3.691   1.107   0.186
10548POPC   C3B21095   3.601   0.985   0.055
10548POPC   C4B21096   3.511   0.864  -0.075
10549POPC   NC321097   6.009  11.367  23.036
10549POPC   PO421098   5.958  11.385  23.229
10549POPC   GL121099   5.907  11.403  23.422
10549POPC   GL221100   5.930  11.307  23.437
10549POPC   C1A21101   5.856  11.421  23.614
10549POPC   D2A21102   5.805  11.440  23.807
10549POPC   C3A21103   5.754  11.458  23.999
10549POPC   C4A21104   5.703  11.476  24.192
10549POPC   C1B21105   5.668  11.369  23.569
10549POPC   C2B21106   5.617  11.387  23.762
10549POPC   C3B21107   5.566  11.405  23.955
10549POPC   C4B21108   5.515  11.424  24.147
10550POPC   NC321109   5.141  19.906   1.516
10550POPC   PO421110   5.077  20.054   1.398
10550POPC   GL121111   5.013  20.202   1.280
10550POPC   GL221112   5.034  20.269   1.352
10550POPC   C1A21113   4.949  20.350   1.162
10550POPC   D2A21114   4.884  20.499   1.044
10550POPC   C3A21115   4.820  20.647   0.926
10550POPC   C4A21116   4.756  20.795   0.808
10550POPC   C1B21117   4.764  20.330   1.237
10550POPC   C2B21118   4.700  20.478   1.119
10550POPC   C3B21119   4.636  20.626   1.001
10550POPC   C4B21120   4.572  20.774   0.883
10551POPC   NC321121  21.625   5.677   3.888
10551POPC   PO421122  21.793   5.614   3.800
10551POPC   GL121123  21.961   5.551   3.712
10551POPC   GL221124  21.908   5.515   3.636
10551POPC   C1A21125  22.130   5.488   3.625
10551POPC   D2A21126  22.298   5.425   3.537
10551POPC   C3A21127  22.467   5.362   3.450
10551POPC   C4A21128  22.635   5.299   3.362
10551POPC   C1B21129  22.113   5.312   3.719
10551POPC   C2B21130  22.281   5.249   3.631
10551POPC   C3B21131  22.450   5.186   3.544
10551POPC   C4B21132  22.618   5.123   3.456
10552POPC   NC321133  -2.443   4.389  12.810
10552POPC   PO421134  -2.622   4.309  12.851
10552POPC   GL121135  -2.801   4.229  12.892
10552POPC   GL221136  -2.811   4.292  12.969
10552POPC   C1A21137  -2.980   4.150  12.933
10552POPC   D2A21138  -3.158   4.070  12.974
10552POPC   C3A21139  -3.337   3.991  13.015
10552POPC   C4A21140  -3.516   3.911  13.056
10552POPC   C1B21141  -2.892   4.016  13.053
10552POPC   C2B21142  -3.071   3.936  13.094
10552POPC   C3B21143  -3.250   3.857  13.135
10552POPC   C4B21144  -3.429   3.777  13.176
10553POPC   NC321145   1.497   2.536  18.045
10553POPC   PO421146   1.376   2.432  18.166
10553POPC   GL121147   1.255   2.328  18.287
10553POPC   GL221148   1.334   2.278  18.323
10553POPC   C1A21149   1.134   2.225  18.408
10553POPC   D2A21150   1.014   2.121  18.530
10553POPC   C3A21151   0.893   2.018  18.651
10553POPC   C4A21152   0.772   1.914  18.772
10553POPC   C1B21153   1.110   2.087  18.266
10553POPC   C2B21154   0.989   1.983  18.387
10553POPC   C3B21155   0.868   1.879  18.508
10553POPC   C4B21156   0.748   1.776  18.629
10554POPC   NC321157  21.696  11.721   2.996
10554POPC   PO421158  21.866  11.743   2.892
10554POPC   GL121159  22.036  11.765   2.788
10554POPC   GL221160  22.007  11.858   2.762
10554POPC   C1A21161  22.205  11.788   2.685
10554POPC   D2A21162  22.375  11.810   2.581
10554POPC   C3A21163  22.544  11.833   2.478
10554POPC   C4A21164  22.714  11.855   2.374
10554POPC   C1B21165  22.115  11.714   2.522
10554POPC   C2B21166  22.285  11.737   2.418
10554POPC   C3B21167  22.455  11.759   2.315
10554POPC   C4B21168  22.624  11.782   2.211
10555POPC   NC321169   6.720  -0.047   0.924
10555POPC   PO421170   6.676  -0.191   0.792
10555POPC   GL121171   6.632  -0.335   0.660
10555POPC   GL221172   6.702  -0.393   0.700
10555POPC   C1A21173   6.587  -0.479   0.529
10555POPC   D2A21174   6.543  -0.623   0.397
10555POPC   C3A21175   6.498  -0.767   0.266
10555POPC   C4A21176   6.454  -0.911   0.134
10555POPC   C1B21177   6.721  -0.404   0.401
10555POPC   C2B21178   6.677  -0.548   0.269
10555POPC   C3B21179   6.632  -0.692   0.138
10555POPC   C4B21180   6.588  -0.836   0.006
10556POPC   NC321181  12.304   3.169  21.789
10556POPC   PO421182  12.338   3.065  21.956
10556POPC   GL121183  12.372   2.961  22.123
10556POPC   GL221184  12.468   2.990  22.122
10556POPC   C1A21185  12.406   2.857  22.291
10556POPC   D2A21186  12.440   2.754  22.458
10556POPC   C3A21187  12.474   2.650  22.626
10556POPC   C4A21188  12.508   2.546  22.793
10556POPC   C1B21189  12.452   2.696  22.182
10556POPC   C2B21190  12.486   2.593  22.349
10556POPC   C3B21191  12.520   2.489  22.516
10556POPC   C4B21192  12.554   2.385  22.684
10557POPC   NC321193   5.894  23.222  11.361
10557POPC   PO421194   5.833  23.411  11.384
10557POPC   GL121195   5.772  23.600  11.407
10557POPC   GL221196   5.827  23.607  11.491
10557POPC   C1A21197   5.712  23.789  11.431
10557POPC   D2A21198   5.651  23.979  11.454
10557POPC   C3A21199   5.591  24.168  11.478
10557POPC   C4A21200   5.530  24.357  11.501
10557POPC   C1B21201   5.555  23.726  11.538
10557POPC   C2B21202   5.495  23.915  11.561
10557POPC   C3B21203   5.434  24.104  11.585
10557POPC   C4B21204   5.373  24.294  11.608
10558POPC   NC321205   6.713  18.082  20.685
10558POPC   PO421206   6.667  18.206  20.835
10558POPC   GL121207   6.621  18.330  20.985
10558POPC   GL221208   6.702  18.299  21.035
10558POPC   C1A21209   6.575  18.454  21.135
10558POPC   D2A21210   6.528  18.577  21.285
10558POPC   C3A21211   6.482  18.701  21.435
10558POPC   C4A21212   6.436  18.825  21.585
10558POPC   C1B21213   6.466  18.309  21.221
10558POPC   C2B21214   6.420  18.433  21.371
10558POPC   C3B21215   6.373  18.557  21.521
10558POPC   C4B21216   6.327  18.681  21.671
10559POPC   NC321217  14.133  -3.149  11.192
10559POPC   PO421218  14.198  -3.337  11.212
10559POPC   GL121219  14.263  -3.525  11.232
10559POPC   GL221220  14.328  -3.495  11.302
10559POPC   C1A21221  14.329  -3.713  11.253
10559POPC   D2A21222  14.394  -3.901  11.273
10559POPC   C3A21223  14.460  -4.089  11.294
10559POPC   C4A21224  14.525  -4.277  11.314
10559POPC   C1B21225  14.466  -3.681  11.111
10559POPC   C2B21226  14.532  -3.869  11.132
10559POPC   C3B21227  14.597  -4.057  11.152
10559POPC   C4B21228  14.662  -4.245  11.172
10560POPC   NC321229  13.328  18.851  -0.203
10560POPC   PO421230  13.373  18.975  -0.353
10560POPC   GL121231  13.418  19.099  -0.503
10560POPC   GL221232  13.469  19.025  -0.549
10560POPC   C1A21233  13.463  19.223  -0.653
10560POPC   D2A21234  13.509  19.347  -0.804
10560POPC   C3A21235  13.554  19.471  -0.954
10560POPC   C4A21236  13.599  19.595  -1.104
10560POPC   C1B21237  13.630  19.278  -0.558
10560POPC   C2B21238  13.675  19.402  -0.708
10560POPC   C3B21239  13.721  19.526  -0.858
10560POPC   C4B21240  13.766  19.650  -1.008
10561POPC   NC321241  17.456  11.575  -1.524
10561POPC   PO421242  17.563  11.594  -1.692
10561POPC   GL121243  17.670  11.613  -1.860
10561POPC   GL221244  17.624  11.700  -1.879
10561POPC   C1A21245  17.777  11.633  -2.028
10561POPC   D2A21246  17.884  11.652  -2.195
10561POPC   C3A21247  17.991  11.672  -2.363
10561POPC   C4A21248  18.098  11.691  -2.531
10561POPC   C1B21249  17.635  11.536  -2.130
10561POPC   C2B21250  17.742  11.556  -2.297
10561POPC   C3B21251  17.849  11.575  -2.465
10561POPC   C4B21252  17.956  11.594  -2.633
10562POPC   NC321253  16.241  15.061  21.083
10562POPC   PO421254  16.347  15.131  21.238
10562POPC   GL121255  16.453  15.201  21.393
10562POPC   GL221256  16.459  15.290  21.348
10562POPC   C1A21257  16.559  15.271  21.547
10562POPC   D2A21258  16.665  15.340  21.702
10562POPC   C3A21259  16.771  15.410  21.856
10562POPC   C4A21260  16.877  15.480  22.011
10562POPC   C1B21261  16.728  15.214  21.457
10562POPC   C2B21262  16.834  15.284  21.611
10562POPC   C3B21263  16.940  15.354  21.766
10562POPC   C4B21264  17.046  15.424  21.921
10563POPC   NC321265  10.863   5.265  22.930
10563POPC   PO421266  10.867   5.200  23.119
10563POPC   GL121267  10.871   5.135  23.308
10563POPC   GL221268  10.960   5.180  23.322
10563POPC   C1A21269  10.876   5.070  23.497
10563POPC   D2A21270  10.880   5.006  23.687
10563POPC   C3A21271  10.885   4.941  23.876
10563POPC   C4A21272  10.889   4.876  24.065
10563POPC   C1B21273  10.970   4.904  23.438
10563POPC   C2B21274  10.974   4.839  23.628
10563POPC   C3B21275  10.979   4.775  23.817
10563POPC   C4B21276  10.983   4.710  24.006
10564POPC   NC321277  -0.872   1.351  11.636
10564POPC   PO421278  -1.026   1.226  11.661
10564POPC   GL121279  -1.180   1.101  11.686
10564POPC   GL221280  -1.136   1.063  11.767
10564POPC   C1A21281  -1.335   0.976  11.711
10564POPC   D2A21282  -1.489   0.852  11.735
10564POPC   C3A21283  -1.644   0.727  11.760
10564POPC   C4A21284  -1.798   0.602  11.785
10564POPC   C1B21285  -1.243   0.840  11.597
10564POPC   C2B21286  -1.397   0.715  11.622
10564POPC   C3B21287  -1.552   0.590  11.646
10564POPC   C4B21288  -1.706   0.466  11.671
10565POPC   NC321289   1.118  11.683  -0.589
10565POPC   PO421290   0.994  11.705  -0.744
10565POPC   GL121291   0.870  11.727  -0.899
10565POPC   GL221292   0.818  11.796  -0.848
10565POPC   C1A21293   0.746  11.749  -1.054
10565POPC   D2A21294   0.622  11.772  -1.210
10565POPC   C3A21295   0.498  11.794  -1.365
10565POPC   C4A21296   0.374  11.816  -1.520
10565POPC   C1B21297   0.628  11.606  -0.980
10565POPC   C2B21298   0.504  11.628  -1.136
10565POPC   C3B21299   0.380  11.651  -1.291
10565POPC   C4B21300   0.256  11.673  -1.446
10566POPC   NC321301   3.237  12.591  -1.901
10566POPC   PO421302   3.137  12.624  -2.071
10566POPC   GL121303   3.037  12.657  -2.241
10566POPC   GL221304   2.973  12.717  -2.192
10566POPC   C1A21305   2.936  12.690  -2.411
10566POPC   D2A21306   2.836  12.724  -2.580
10566POPC   C3A21307   2.735  12.757  -2.750
10566POPC   C4A21308   2.635  12.790  -2.920
10566POPC   C1B21309   2.818  12.534  -2.372
10566POPC   C2B21310   2.718  12.567  -2.541
10566POPC   C3B21311   2.618  12.600  -2.711
10566POPC   C4B21312   2.517  12.633  -2.881
10567POPC   NC321313  -0.347   1.228   6.707
10567POPC   PO421314  -0.497   1.104   6.661
10567POPC   GL121315  -0.647   0.980   6.615
10567POPC   GL221316  -0.661   0.961   6.712
10567POPC   C1A21317  -0.797   0.856   6.568
10567POPC   D2A21318  -0.946   0.732   6.522
10567POPC   C3A21319  -1.096   0.608   6.475
10567POPC   C4A21320  -1.246   0.484   6.429
10567POPC   C1B21321  -0.667   0.704   6.557
10567POPC   C2B21322  -0.817   0.580   6.511
10567POPC   C3B21323  -0.967   0.456   6.464
10567POPC   C4B21324  -1.117   0.332   6.418
10568POPC   NC321325   1.790  15.367  19.720
10568POPC   PO421326   1.674  15.443  19.864
10568POPC   GL121327   1.558  15.519  20.008
10568POPC   GL221328   1.639  15.541  20.062
10568POPC   C1A21329   1.442  15.595  20.152
10568POPC   D2A21330   1.326  15.672  20.296
10568POPC   C3A21331   1.210  15.748  20.440
10568POPC   C4A21332   1.094  15.824  20.584
10568POPC   C1B21333   1.433  15.416  20.240
10568POPC   C2B21334   1.317  15.492  20.384
10568POPC   C3B21335   1.201  15.568  20.528
10568POPC   C4B21336   1.085  15.645  20.672
10569POPC   NC321337  -1.882   7.039   3.166
10569POPC   PO421338  -2.053   7.005   3.067
10569POPC   GL121339  -2.224   6.971   2.968
10569POPC   GL221340  -2.217   6.874   2.991
10569POPC   C1A21341  -2.394   6.937   2.870
10569POPC   D2A21342  -2.565   6.903   2.771
10569POPC   C3A21343  -2.735   6.869   2.673
10569POPC   C4A21344  -2.906   6.835   2.574
10569POPC   C1B21345  -2.291   6.905   2.702
10569POPC   C2B21346  -2.461   6.871   2.603
10569POPC   C3B21347  -2.632   6.837   2.504
10569POPC   C4B21348  -2.803   6.803   2.406
10570POPC   NC321349   1.460  19.254  15.931
10570POPC   PO421350   1.336  19.386  16.016
10570POPC   GL121351   1.212  19.518  16.101
10570POPC   GL221352   1.287  19.550  16.160
10570POPC   C1A21353   1.089  19.651  16.186
10570POPC   D2A21354   0.965  19.783  16.271
10570POPC   C3A21355   0.842  19.916  16.356
10570POPC   C4A21356   0.718  20.048  16.441
10570POPC   C1B21357   1.037  19.515  16.323
10570POPC   C2B21358   0.914  19.647  16.408
10570POPC   C3B21359   0.790  19.779  16.493
10570POPC   C4B21360   0.667  19.912  16.578
10571POPC   NC321361  20.385  18.600  12.350
10571POPC   PO421362  20.534  18.727  12.390
10571POPC   GL121363  20.683  18.854  12.430
10571POPC   GL221364  20.728  18.784  12.484
10571POPC   C1A21365  20.832  18.982  12.469
10571POPC   D2A21366  20.981  19.109  12.509
10571POPC   C3A21367  21.130  19.237  12.548
10571POPC   C4A21368  21.279  19.364  12.588
10571POPC   C1B21369  20.734  19.045  12.632
10571POPC   C2B21370  20.883  19.173  12.671
10571POPC   C3B21371  21.032  19.300  12.711
10571POPC   C4B21372  21.181  19.428  12.751
10572POPC   NC321373  10.644  -3.693   7.604
10572POPC   PO421374  10.645  -3.891   7.577
10572POPC   GL121375  10.646  -4.089   7.550
10572POPC   GL221376  10.746  -4.089   7.550
10572POPC   C1A21377  10.647  -4.287   7.523
10572POPC   D2A21378  10.647  -4.486   7.496
10572POPC   C3A21379  10.648  -4.684   7.469
10572POPC   C4A21380  10.649  -4.882   7.442
10572POPC   C1B21381  10.646  -4.260   7.325
10572POPC   C2B21382  10.646  -4.459   7.298
10572POPC   C3B21383  10.647  -4.657   7.271
10572POPC   C4B21384  10.648  -4.855   7.244
10573POPC   NC321385   3.161  14.456  21.144
10573POPC   PO421386   3.057  14.521  21.302
10573POPC   GL121387   2.953  14.586  21.460
10573POPC   GL221388   3.037  14.590  21.514
10573POPC   C1A21389   2.849  14.651  21.618
10573POPC   D2A21390   2.746  14.716  21.777
10573POPC   C3A21391   2.642  14.781  21.935
10573POPC   C4A21392   2.538  14.846  22.093
10573POPC   C1B21393   2.820  14.462  21.677
10573POPC   C2B21394   2.716  14.527  21.835
10573POPC   C3B21395   2.612  14.592  21.993
10573POPC   C4B21396   2.509  14.657  22.151
10574POPC   NC321397   7.465  23.622   9.085
10574POPC   PO421398   7.437  23.820   9.072
10574POPC   GL121399   7.409  24.018   9.059
10574POPC   GL221400   7.441  24.028   9.153
10574POPC   C1A21401   7.381  24.215   9.046
10574POPC   D2A21402   7.352  24.413   9.032
10574POPC   C3A21403   7.324  24.610   9.019
10574POPC   C4A21404   7.296  24.808   9.006
10574POPC   C1B21405   7.194  24.193   9.113
10574POPC   C2B21406   7.166  24.391   9.100
10574POPC   C3B21407   7.137  24.588   9.087
10574POPC   C4B21408   7.109  24.786   9.074
10575POPC   NC321409  19.374  19.673  12.405
10575POPC   PO421410  19.512  19.810  12.451
10575POPC   GL121411  19.650  19.947  12.497
10575POPC   GL221412  19.712  19.875  12.527
10575POPC   C1A21413  19.788  20.084  12.543
10575POPC   D2A21414  19.927  20.222  12.588
10575POPC   C3A21415  20.065  20.359  12.634
10575POPC   C4A21416  20.203  20.496  12.680
10575POPC   C1B21417  19.714  20.097  12.728
10575POPC   C2B21418  19.852  20.235  12.774
10575POPC   C3B21419  19.991  20.372  12.819
10575POPC   C4B21420  20.129  20.509  12.865
10576POPC   NC321421  -0.835   1.233  11.197
10576POPC   PO421422  -0.988   1.105  11.214
10576POPC   GL121423  -1.141   0.977  11.231
10576POPC   GL221424  -1.116   0.961  11.327
10576POPC   C1A21425  -1.294   0.850  11.249
10576POPC   D2A21426  -1.447   0.722  11.266
10576POPC   C3A21427  -1.600   0.595  11.284
10576POPC   C4A21428  -1.753   0.467  11.301
10576POPC   C1B21429  -1.175   0.700  11.191
10576POPC   C2B21430  -1.328   0.572  11.209
10576POPC   C3B21431  -1.481   0.444  11.226
10576POPC   C4B21432  -1.634   0.317  11.243
10577POPC   NC321433  11.512  20.979   1.646
10577POPC   PO421434  11.527  21.138   1.526
10577POPC   GL121435  11.542  21.297   1.406
10577POPC   GL221436  11.639  21.278   1.392
10577POPC   C1A21437  11.557  21.456   1.286
10577POPC   D2A21438  11.572  21.616   1.166
10577POPC   C3A21439  11.587  21.775   1.046
10577POPC   C4A21440  11.602  21.934   0.926
10577POPC   C1B21441  11.602  21.571   1.444
10577POPC   C2B21442  11.617  21.730   1.324
10577POPC   C3B21443  11.632  21.889   1.204
10577POPC   C4B21444  11.647  22.049   1.084
10578POPC   NC321445  10.407   8.889  23.763
10578POPC   PO421446  10.414   8.872  23.962
10578POPC   GL121447  10.421   8.855  24.161
10578POPC   GL221448  10.437   8.757  24.152
10578POPC   C1A21449  10.428   8.838  24.360
10578POPC   D2A21450  10.435   8.822  24.560
10578POPC   C3A21451  10.442   8.805  24.759
10578POPC   C4A21452  10.449   8.788  24.958
10578POPC   C1B21453  10.231   8.805  24.364
10578POPC   C2B21454  10.238   8.788  24.564
10578POPC   C3B21455  10.245   8.771  24.763
10578POPC   C4B21456  10.252   8.754  24.962
10579POPC   NC321457  19.863  17.252  16.170
10579POPC   PO421458  20.004  17.367  16.253
10579POPC   GL121459  20.145  17.482  16.336
10579POPC   GL221460  20.215  17.435  16.283
10579POPC   C1A21461  20.285  17.598  16.419
10579POPC   D2A21462  20.426  17.713  16.502
10579POPC   C3A21463  20.566  17.829  16.585
10579POPC   C4A21464  20.707  17.944  16.668
10579POPC   C1B21465  20.308  17.464  16.566
10579POPC   C2B21466  20.449  17.580  16.649
10579POPC   C3B21467  20.589  17.695  16.732
10579POPC   C4B21468  20.730  17.810  16.815
10580POPC   NC321469   0.515   3.429   2.061
10580POPC   PO421470   0.389   3.332   1.939
10580POPC   GL121471   0.263   3.235   1.817
10580POPC   GL221472   0.243   3.170   1.890
10580POPC   C1A21473   0.138   3.138   1.695
10580POPC   D2A21474   0.012   3.041   1.574
10580POPC   C3A21475  -0.113   2.944   1.452
10580POPC   C4A21476  -0.239   2.847   1.330
10580POPC   C1B21477   0.288   3.021   1.634
10580POPC   C2B21478   0.162   2.924   1.512
10580POPC   C3B21479   0.037   2.827   1.390
10580POPC   C4B21480  -0.089   2.730   1.269
10581POPC   NC321481  20.482   1.889  13.541
10581POPC   PO421482  20.634   1.770  13.591
10581POPC   GL121483  20.786   1.651  13.641
10581POPC   GL221484  20.804   1.632  13.545
10581POPC   C1A21485  20.939   1.531  13.692
10581POPC   D2A21486  21.091   1.412  13.742
10581POPC   C3A21487  21.244   1.292  13.793
10581POPC   C4A21488  21.396   1.173  13.843
10581POPC   C1B21489  20.814   1.375  13.699
10581POPC   C2B21490  20.966   1.256  13.749
10581POPC   C3B21491  21.119   1.136  13.800
10581POPC   C4B21492  21.271   1.017  13.850
10582POPC   NC321493  18.800  -0.443   7.994
10582POPC   PO421494  18.929  -0.593   7.965
10582POPC   GL121495  19.058  -0.743   7.936
10582POPC   GL221496  19.093  -0.697   7.854
10582POPC   C1A21497  19.188  -0.893   7.907
10582POPC   D2A21498  19.317  -1.042   7.877
10582POPC   C3A21499  19.447  -1.192   7.848
10582POPC   C4A21500  19.576  -1.342   7.819
10582POPC   C1B21501  19.052  -0.988   7.794
10582POPC   C2B21502  19.182  -1.138   7.765
10582POPC   C3B21503  19.311  -1.287   7.736
10582POPC   C4B21504  19.441  -1.437   7.707
10583POPC   NC321505  23.056   5.932   8.633
10583POPC   PO421506  23.247   5.875   8.614
10583POPC   GL121507  23.438   5.818   8.595
10583POPC   GL221508  23.422   5.800   8.498
10583POPC   C1A21509  23.629   5.761   8.575
10583POPC   D2A21510  23.819   5.705   8.556
10583POPC   C3A21511  24.010   5.648   8.536
10583POPC   C4A21512  24.201   5.591   8.517
10583POPC   C1B21513  23.577   5.573   8.619
10583POPC   C2B21514  23.768   5.516   8.599
10583POPC   C3B21515  23.959   5.460   8.580
10583POPC   C4B21516  24.149   5.403   8.561
10584POPC   NC321517   5.783  -2.087   4.492
10584POPC   PO421518   5.729  -2.264   4.415
10584POPC   GL121519   5.675  -2.441   4.338
10584POPC   GL221520   5.748  -2.485   4.390
10584POPC   C1A21521   5.622  -2.618   4.262
10584POPC   D2A21522   5.568  -2.794   4.185
10584POPC   C3A21523   5.515  -2.971   4.109
10584POPC   C4A21524   5.461  -3.148   4.032
10584POPC   C1B21525   5.747  -2.589   4.109
10584POPC   C2B21526   5.694  -2.766   4.032
10584POPC   C3B21527   5.640  -2.943   3.956
10584POPC   C4B21528   5.587  -3.120   3.879
10585POPC   NC321529  13.911  23.108   8.282
10585POPC   PO421530  13.974  23.296   8.257
10585POPC   GL121531  14.037  23.484   8.232
10585POPC   GL221532  14.095  23.455   8.156
10585POPC   C1A21533  14.099  23.672   8.206
10585POPC   D2A21534  14.162  23.861   8.181
10585POPC   C3A21535  14.224  24.049   8.155
10585POPC   C4A21536  14.287  24.237   8.130
10585POPC   C1B21537  14.250  23.640   8.334
10585POPC   C2B21538  14.312  23.828   8.308
10585POPC   C3B21539  14.375  24.016   8.283
10585POPC   C4B21540  14.437  24.204   8.258
10586POPC   NC321541   6.902  -1.936  16.378
10586POPC   PO421542   6.862  -2.108  16.472
10586POPC   GL121543   6.822  -2.280  16.566
10586POPC   GL221544   6.919  -2.305  16.561
10586POPC   C1A21545   6.782  -2.452  16.659
10586POPC   D2A21546   6.741  -2.625  16.753
10586POPC   C3A21547   6.701  -2.797  16.846
10586POPC   C4A21548   6.661  -2.969  16.940
10586POPC   C1B21549   6.751  -2.541  16.483
10586POPC   C2B21550   6.711  -2.713  16.576
10586POPC   C3B21551   6.670  -2.886  16.670
10586POPC   C4B21552   6.630  -3.058  16.763
10587POPC   NC321553   8.192  -3.299   6.375
10587POPC   PO421554   8.167  -3.490   6.323
10587POPC   GL121555   8.142  -3.681   6.271
10587POPC   GL221556   8.236  -3.685   6.238
10587POPC   C1A21557   8.117  -3.873   6.218
10587POPC   D2A21558   8.092  -4.064   6.166
10587POPC   C3A21559   8.067  -4.256   6.113
10587POPC   C4A21560   8.042  -4.447   6.061
10587POPC   C1B21561   8.056  -3.815   6.037
10587POPC   C2B21562   8.031  -4.006   5.984
10587POPC   C3B21563   8.006  -4.198   5.932
10587POPC   C4B21564   7.981  -4.389   5.880
10588POPC   NC321565   1.153   6.501  20.032
10588POPC   PO421566   1.029   6.442  20.178
10588POPC   GL121567   0.905   6.383  20.324
10588POPC   GL221568   0.980   6.391  20.390
10588POPC   C1A21569   0.782   6.325  20.470
10588POPC   D2A21570   0.658   6.266  20.616
10588POPC   C3A21571   0.535   6.208  20.762
10588POPC   C4A21572   0.411   6.149  20.908
10588POPC   C1B21573   0.832   6.134  20.436
10588POPC   C2B21574   0.708   6.076  20.582
10588POPC   C3B21575   0.584   6.017  20.728
10588POPC   C4B21576   0.461   5.958  20.874
10589POPC   NC321577  11.707  -2.122   3.408
10589POPC   PO421578  11.731  -2.294   3.310
10589POPC   GL121579  11.755  -2.466   3.212
10589POPC   GL221580  11.793  -2.508   3.294
10589POPC   C1A21581  11.779  -2.639   3.113
10589POPC   D2A21582  11.802  -2.811   3.015
10589POPC   C3A21583  11.826  -2.984   2.916
10589POPC   C4A21584  11.850  -3.156   2.818
10589POPC   C1B21585  11.962  -2.581   3.057
10589POPC   C2B21586  11.986  -2.754   2.959
10589POPC   C3B21587  12.009  -2.926   2.860
10589POPC   C4B21588  12.033  -3.099   2.762
10590POPC   NC321589  -2.736  15.096  12.700
10590POPC   PO421590  -2.918  15.170  12.738
10590POPC   GL121591  -3.100  15.244  12.776
10590POPC   GL221592  -3.061  15.336  12.785
10590POPC   C1A21593  -3.282  15.318  12.814
10590POPC   D2A21594  -3.463  15.392  12.852
10590POPC   C3A21595  -3.645  15.466  12.890
10590POPC   C4A21596  -3.827  15.540  12.928
10590POPC   C1B21597  -3.253  15.287  13.010
10590POPC   C2B21598  -3.435  15.361  13.048
10590POPC   C3B21599  -3.617  15.435  13.086
10590POPC   C4B21600  -3.799  15.509  13.124
10591POPC   NC321601   0.206   3.626   2.233
10591POPC   PO421602   0.076   3.533   2.113
10591POPC   GL121603  -0.054   3.440   1.993
10591POPC   GL221604  -0.090   3.389   2.072
10591POPC   C1A21605  -0.185   3.347   1.874
10591POPC   D2A21606  -0.315   3.253   1.754
10591POPC   C3A21607  -0.446   3.160   1.635
10591POPC   C4A21608  -0.576   3.067   1.515
10591POPC   C1B21609  -0.051   3.201   1.841
10591POPC   C2B21610  -0.182   3.108   1.722
10591POPC   C3B21611  -0.312   3.015   1.602
10591POPC   C4B21612  -0.442   2.922   1.482
10592POPC   NC321613  13.811   4.221  -2.074
10592POPC   PO421614  13.861   4.141  -2.250
10592POPC   GL121615  13.911   4.061  -2.426
10592POPC   GL221616  13.832   4.104  -2.469
10592POPC   C1A21617  13.962   3.980  -2.602
10592POPC   D2A21618  14.012   3.900  -2.778
10592POPC   C3A21619  14.063   3.819  -2.954
10592POPC   C4A21620  14.113   3.739  -3.130
10592POPC   C1B21621  13.851   3.819  -2.560
10592POPC   C2B21622  13.902   3.738  -2.736
10592POPC   C3B21623  13.952   3.658  -2.912
10592POPC   C4B21624  14.003   3.578  -3.088
10593POPC   NC321625  17.464   4.624  20.142
10593POPC   PO421626  17.578   4.546  20.287
10593POPC   GL121627  17.692   4.468  20.432
10593POPC   GL221628  17.693   4.381  20.384
10593POPC   C1A21629  17.806   4.390  20.577
10593POPC   D2A21630  17.919   4.313  20.721
10593POPC   C3A21631  18.033   4.235  20.866
10593POPC   C4A21632  18.147   4.157  21.011
10593POPC   C1B21633  17.641   4.333  20.675
10593POPC   C2B21634  17.755   4.255  20.820
10593POPC   C3B21635  17.869   4.178  20.965
10593POPC   C4B21636  17.983   4.100  21.110
10594POPC   NC321637  20.419  18.304   6.843
10594POPC   PO421638  20.575  18.420   6.796
10594POPC   GL121639  20.731  18.536   6.749
10594POPC   GL221640  20.781  18.455   6.716
10594POPC   C1A21641  20.887  18.651   6.702
10594POPC   D2A21642  21.044  18.767   6.654
10594POPC   C3A21643  21.200  18.882   6.607
10594POPC   C4A21644  21.356  18.998   6.560
10594POPC   C1B21645  20.963  18.624   6.885
10594POPC   C2B21646  21.119  18.740   6.838
10594POPC   C3B21647  21.275  18.855   6.790
10594POPC   C4B21648  21.431  18.971   6.743
10595POPC   NC321649  13.181  -2.356   4.524
10595POPC   PO421650  13.238  -2.532   4.447
10595POPC   GL121651  13.295  -2.708   4.370
10595POPC   GL221652  13.366  -2.662   4.317
10595POPC   C1A21653  13.351  -2.884   4.293
10595POPC   D2A21654  13.408  -3.059   4.217
10595POPC   C3A21655  13.464  -3.235   4.140
10595POPC   C4A21656  13.521  -3.411   4.063
10595POPC   C1B21657  13.222  -2.859   4.143
10595POPC   C2B21658  13.279  -3.035   4.066
10595POPC   C3B21659  13.335  -3.211   3.989
10595POPC   C4B21660  13.392  -3.387   3.912
10596POPC   NC321661  -2.828   5.006   7.828
10596POPC   PO421662  -3.011   4.932   7.798
10596POPC   GL121663  -3.194   4.858   7.768
10596POPC   GL221664  -3.176   4.786   7.835
10596POPC   C1A21665  -3.377   4.783   7.738
10596POPC   D2A21666  -3.561   4.709   7.709
10596POPC   C3A21667  -3.744   4.634   7.679
10596POPC   C4A21668  -3.927   4.560   7.649
10596POPC   C1B21669  -3.306   4.665   7.593
10596POPC   C2B21670  -3.489   4.591   7.564
10596POPC   C3B21671  -3.672   4.517   7.534
10596POPC   C4B21672  -3.856   4.442   7.504
10597POPC   NC321673  -3.993  11.048   9.664
10597POPC   PO421674  -4.192  11.065   9.656
10597POPC   GL121675  -4.391  11.082   9.648
10597POPC   GL221676  -4.384  11.177   9.680
10597POPC   C1A21677  -4.590  11.099   9.640
10597POPC   D2A21678  -4.790  11.117   9.633
10597POPC   C3A21679  -4.989  11.134   9.625
10597POPC   C4A21680  -5.188  11.151   9.617
10597POPC   C1B21681  -4.603  11.038   9.830
10597POPC   C2B21682  -4.802  11.055   9.822
10597POPC   C3B21683  -5.002  11.072   9.815
10597POPC   C4B21684  -5.201  11.089   9.807
10598POPC   NC321685  18.117  18.139  17.493
10598POPC   PO421686  18.238  18.260  17.597
10598POPC   GL121687  18.359  18.381  17.701
10598POPC   GL221688  18.438  18.342  17.655
10598POPC   C1A21689  18.479  18.503  17.804
10598POPC   D2A21690  18.600  18.624  17.908
10598POPC   C3A21691  18.720  18.746  18.011
10598POPC   C4A21692  18.841  18.867  18.115
10598POPC   C1B21693  18.493  18.365  17.949
10598POPC   C2B21694  18.614  18.487  18.052
10598POPC   C3B21695  18.735  18.608  18.156
10598POPC   C4B21696  18.855  18.730  18.260
10599POPC   NC321697   3.314   2.090  19.244
10599POPC   PO421698   3.213   1.981  19.377
10599POPC   GL121699   3.112   1.872  19.510
10599POPC   GL221700   3.190   1.875  19.573
10599POPC   C1A21701   3.010   1.762  19.644
10599POPC   D2A21702   2.909   1.653  19.777
10599POPC   C3A21703   2.807   1.543  19.911
10599POPC   C4A21704   2.706   1.434  20.044
10599POPC   C1B21705   3.082   1.595  19.561
10599POPC   C2B21706   2.981   1.485  19.695
10599POPC   C3B21707   2.879   1.376  19.828
10599POPC   C4B21708   2.778   1.267  19.961
10600POPC   NC321709   1.371  12.666  -0.615
10600POPC   PO421710   1.250  12.698  -0.771
10600POPC   GL121711   1.129  12.730  -0.927
10600POPC   GL221712   1.058  12.764  -0.865
10600POPC   C1A21713   1.008  12.762  -1.083
10600POPC   D2A21714   0.888  12.795  -1.239
10600POPC   C3A21715   0.767  12.827  -1.395
10600POPC   C4A21716   0.646  12.859  -1.551
10600POPC   C1B21717   0.936  12.577  -1.065
10600POPC   C2B21718   0.815  12.609  -1.221
10600POPC   C3B21719   0.694  12.641  -1.377
10600POPC   C4B21720   0.574  12.673  -1.533
10601POPC   NC321721   3.608  20.071   2.863
10601POPC   PO421722   3.513  20.219   2.767
10601POPC   GL121723   3.418  20.367   2.671
10601POPC   GL221724   3.472  20.434   2.722
10601POPC   C1A21725   3.323  20.514   2.575
10601POPC   D2A21726   3.228  20.662   2.480
10601POPC   C3A21727   3.133  20.809   2.384
10601POPC   C4A21728   3.038  20.957   2.288
10601POPC   C1B21729   3.184  20.518   2.719
10601POPC   C2B21730   3.089  20.665   2.623
10601POPC   C3B21731   2.994  20.813   2.527
10601POPC   C4B21732   2.899  20.961   2.432
10602POPC   NC321733  17.223  -1.617  11.519
10602POPC   PO421734  17.329  -1.785  11.542
10602POPC   GL121735  17.435  -1.953  11.565
10602POPC   GL221736  17.513  -1.910  11.521
10602POPC   C1A21737  17.540  -2.122  11.588
10602POPC   D2A21738  17.646  -2.290  11.611
10602POPC   C3A21739  17.751  -2.459  11.634
10602POPC   C4A21740  17.857  -2.627  11.657
10602POPC   C1B21741  17.476  -2.186  11.410
10602POPC   C2B21742  17.581  -2.355  11.433
10602POPC   C3B21743  17.687  -2.523  11.456
10602POPC   C4B21744  17.793  -2.692  11.479
10603POPC   NC321745  -1.313  17.979  11.684
10603POPC   PO421746  -1.472  18.097  11.713
10603POPC   GL121747  -1.631  18.215  11.742
10603POPC   GL221748  -1.570  18.291  11.766
10603POPC   C1A21749  -1.790  18.333  11.772
10603POPC   D2A21750  -1.949  18.450  11.801
10603POPC   C3A21751  -2.108  18.568  11.831
10603POPC   C4A21752  -2.267  18.686  11.860
10603POPC   C1B21753  -1.795  18.277  11.964
10603POPC   C2B21754  -1.954  18.395  11.993
10603POPC   C3B21755  -2.113  18.513  12.023
10603POPC   C4B21756  -2.272  18.631  12.052
10604POPC   NC321757  -0.274  19.308   8.190
10604POPC   PO421758  -0.413  19.450   8.165
10604POPC   GL121759  -0.552  19.592   8.140
10604POPC   GL221760  -0.515  19.642   8.219
10604POPC   C1A21761  -0.691  19.734   8.115
10604POPC   D2A21762  -0.829  19.875   8.091
10604POPC   C3A21763  -0.968  20.017   8.066
10604POPC   C4A21764  -1.107  20.159   8.041
10604POPC   C1B21765  -0.814  19.634   8.237
10604POPC   C2B21766  -0.953  19.776   8.212
10604POPC   C3B21767  -1.092  19.918   8.187
10604POPC   C4B21768  -1.231  20.059   8.163
10605POPC   NC321769   3.246   0.865   2.006
10605POPC   PO421770   3.152   0.737   1.885
10605POPC   GL121771   3.058   0.609   1.764
10605POPC   GL221772   3.146   0.569   1.738
10605POPC   C1A21773   2.964   0.481   1.643
10605POPC   D2A21774   2.869   0.352   1.521
10605POPC   C3A21775   2.775   0.224   1.400
10605POPC   C4A21776   2.681   0.096   1.279
10605POPC   C1B21777   2.979   0.612   1.492
10605POPC   C2B21778   2.885   0.483   1.371
10605POPC   C3B21779   2.791   0.355   1.250
10605POPC   C4B21780   2.696   0.227   1.129
10606POPC   NC321781  20.504  16.031  16.552
10606POPC   PO421782  20.652  16.124  16.649
10606POPC   GL121783  20.800  16.217  16.746
10606POPC   GL221784  20.825  16.130  16.790
10606POPC   C1A21785  20.948  16.309  16.844
10606POPC   D2A21786  21.097  16.402  16.941
10606POPC   C3A21787  21.245  16.494  17.039
10606POPC   C4A21788  21.393  16.587  17.136
10606POPC   C1B21789  20.824  16.350  16.995
10606POPC   C2B21790  20.972  16.443  17.092
10606POPC   C3B21791  21.120  16.535  17.189
10606POPC   C4B21792  21.268  16.628  17.287
10607POPC   NC321793  15.151  -0.883  16.763
10607POPC   PO421794  15.223  -1.041  16.863
10607POPC   GL121795  15.295  -1.199  16.963
10607POPC   GL221796  15.387  -1.161  16.956
10607POPC   C1A21797  15.367  -1.357  17.062
10607POPC   D2A21798  15.439  -1.514  17.162
10607POPC   C3A21799  15.511  -1.672  17.261
10607POPC   C4A21800  15.583  -1.830  17.361
10607POPC   C1B21801  15.395  -1.453  16.889
10607POPC   C2B21802  15.467  -1.611  16.989
10607POPC   C3B21803  15.539  -1.768  17.088
10607POPC   C4B21804  15.611  -1.926  17.188
10608POPC   NC321805  11.515  -3.601  12.005
10608POPC   PO421806  11.534  -3.798  12.035
10608POPC   GL121807  11.553  -3.995  12.065
10608POPC   GL221808  11.625  -3.999  11.995
10608POPC   C1A21809  11.571  -4.192  12.094
10608POPC   D2A21810  11.590  -4.389  12.124
10608POPC   C3A21811  11.608  -4.586  12.153
10608POPC   C4A21812  11.627  -4.783  12.183
10608POPC   C1B21813  11.434  -4.226  11.953
10608POPC   C2B21814  11.453  -4.423  11.982
10608POPC   C3B21815  11.471  -4.620  12.012
10608POPC   C4B21816  11.490  -4.817  12.041
10609POPC   NC321817   1.954  16.161  19.400
10609POPC   PO421818   1.840  16.247  19.540
10609POPC   GL121819   1.726  16.333  19.680
10609POPC   GL221820   1.807  16.346  19.738
10609POPC   C1A21821   1.612  16.419  19.820
10609POPC   D2A21822   1.498  16.505  19.960
10609POPC   C3A21823   1.384  16.591  20.100
10609POPC   C4A21824   1.270  16.677  20.240
10609POPC   C1B21825   1.580  16.240  19.904
10609POPC   C2B21826   1.466  16.326  20.044
10609POPC   C3B21827   1.352  16.412  20.184
10609POPC   C4B21828   1.238  16.498  20.324
10610POPC   NC321829   4.306  -1.259   3.933
10610POPC   PO421830   4.226  -1.420   3.846
10610POPC   GL121831   4.146  -1.581   3.759
10610POPC   GL221832   4.218  -1.580   3.690
10610POPC   C1A21833   4.066  -1.743   3.672
10610POPC   D2A21834   3.987  -1.904   3.585
10610POPC   C3A21835   3.907  -2.066   3.498
10610POPC   C4A21836   3.827  -2.227   3.411
10610POPC   C1B21837   3.953  -1.625   3.557
10610POPC   C2B21838   3.873  -1.786   3.470
10610POPC   C3B21839   3.794  -1.947   3.383
10610POPC   C4B21840   3.714  -2.109   3.296
10611POPC   NC321841  16.516  18.532   1.312
10611POPC   PO421842  16.617  18.659   1.195
10611POPC   GL121843  16.718  18.786   1.078
10611POPC   GL221844  16.804  18.743   1.106
10611POPC   C1A21845  16.819  18.913   0.962
10611POPC   D2A21846  16.920  19.041   0.845
10611POPC   C3A21847  17.021  19.168   0.729
10611POPC   C4A21848  17.122  19.295   0.612
10611POPC   C1B21849  16.835  19.041   1.115
10611POPC   C2B21850  16.936  19.168   0.998
10611POPC   C3B21851  17.037  19.295   0.882
10611POPC   C4B21852  17.138  19.423   0.765
10612POPC   NC321853   9.107  23.795   9.636
10612POPC   PO421854   9.098  23.995   9.631
10612POPC   GL121855   9.089  24.195   9.626
10612POPC   GL221856   9.183  24.198   9.592
10612POPC   C1A21857   9.080  24.395   9.621
10612POPC   D2A21858   9.072  24.594   9.617
10612POPC   C3A21859   9.063  24.794   9.612
10612POPC   C4A21860   9.054  24.994   9.607
10612POPC   C1B21861   9.149  24.402   9.809
10612POPC   C2B21862   9.140  24.602   9.804
10612POPC   C3B21863   9.131  24.802   9.800
10612POPC   C4B21864   9.122  25.002   9.795
10613POPC   NC321865  12.866  13.121  23.075
10613POPC   PO421866  12.903  13.172  23.265
10613POPC   GL121867  12.940  13.223  23.455
10613POPC   GL221868  13.038  13.215  23.438
10613POPC   C1A21869  12.977  13.274  23.645
10613POPC   D2A21870  13.014  13.326  23.834
10613POPC   C3A21871  13.051  13.377  24.024
10613POPC   C4A21872  13.088  13.428  24.214
10613POPC   C1B21873  12.970  13.082  23.698
10613POPC   C2B21874  13.007  13.133  23.888
10613POPC   C3B21875  13.044  13.184  24.078
10613POPC   C4B21876  13.081  13.235  24.267
10614POPC   NC321877   2.394   8.657  -1.640
10614POPC   PO421878   2.281   8.645  -1.805
10614POPC   GL121879   2.168   8.633  -1.970
10614POPC   GL221880   2.087   8.651  -1.915
10614POPC   C1A21881   2.055   8.621  -2.134
10614POPC   D2A21882   1.943   8.608  -2.299
10614POPC   C3A21883   1.830   8.596  -2.463
10614POPC   C4A21884   1.717   8.584  -2.628
10614POPC   C1B21885   2.032   8.424  -2.104
10614POPC   C2B21886   1.919   8.412  -2.268
10614POPC   C3B21887   1.806   8.400  -2.433
10614POPC   C4B21888   1.693   8.388  -2.597
10615POPC   NC321889   4.259  22.176   6.598
10615POPC   PO421890   4.166  22.347   6.552
10615POPC   GL121891   4.073  22.518   6.506
10615POPC   GL221892   4.157  22.568   6.523
10615POPC   C1A21893   3.979  22.688   6.460
10615POPC   D2A21894   3.886  22.859   6.413
10615POPC   C3A21895   3.792  23.029   6.367
10615POPC   C4A21896   3.699  23.200   6.321
10615POPC   C1B21897   3.926  22.711   6.651
10615POPC   C2B21898   3.832  22.881   6.605
10615POPC   C3B21899   3.739  23.052   6.559
10615POPC   C4B21900   3.645  23.222   6.512
10616POPC   NC321901   7.303  19.101  19.960
10616POPC   PO421902   7.265  19.235  20.103
10616POPC   GL121903   7.227  19.369  20.246
10616POPC   GL221904   7.301  19.332  20.301
10616POPC   C1A21905   7.189  19.503  20.390
10616POPC   D2A21906   7.150  19.638  20.533
10616POPC   C3A21907   7.112  19.772  20.677
10616POPC   C4A21908   7.074  19.906  20.820
10616POPC   C1B21909   7.061  19.376  20.475
10616POPC   C2B21910   7.023  19.510  20.619
10616POPC   C3B21911   6.984  19.644  20.762
10616POPC   C4B21912   6.946  19.778  20.905
10617POPC   NC321913  11.953   9.331  -3.802
10617POPC   PO421914  11.980   9.320  -4.000
10617POPC   GL121915  12.007   9.309  -4.198
10617POPC   GL221916  11.996   9.408  -4.205
10617POPC   C1A21917  12.034   9.298  -4.396
10617POPC   D2A21918  12.060   9.287  -4.593
10617POPC   C3A21919  12.087   9.276  -4.791
10617POPC   C4A21920  12.114   9.265  -4.989
10617POPC   C1B21921  11.837   9.275  -4.421
10617POPC   C2B21922  11.863   9.264  -4.619
10617POPC   C3B21923  11.890   9.253  -4.817
10617POPC   C4B21924  11.917   9.242  -5.014
10618POPC   NC321925  12.453  13.337  -3.243
10618POPC   PO421926  12.489  13.389  -3.433
10618POPC   GL121927  12.525  13.441  -3.623
10618POPC   GL221928  12.447  13.385  -3.653
10618POPC   C1A21929  12.561  13.493  -3.813
10618POPC   D2A21930  12.596  13.545  -4.002
10618POPC   C3A21931  12.632  13.597  -4.192
10618POPC   C4A21932  12.668  13.649  -4.382
10618POPC   C1B21933  12.682  13.335  -3.833
10618POPC   C2B21934  12.717  13.387  -4.023
10618POPC   C3B21935  12.753  13.439  -4.213
10618POPC   C4B21936  12.789  13.491  -4.402
10619POPC   NC321937   3.473  12.890  21.874
10619POPC   PO421938   3.376  12.935  22.043
10619POPC   GL121939   3.279  12.980  22.212
10619POPC   GL221940   3.326  13.068  22.216
10619POPC   C1A21941   3.182  13.024  22.381
10619POPC   D2A21942   3.086  13.069  22.551
10619POPC   C3A21943   2.989  13.113  22.720
10619POPC   C4A21944   2.892  13.158  22.889
10619POPC   C1B21945   3.330  12.941  22.488
10619POPC   C2B21946   3.233  12.986  22.657
10619POPC   C3B21947   3.137  13.031  22.826
10619POPC   C4B21948   3.040  13.075  22.995
10620POPC   NC321949  15.302  16.186  -1.200
10620POPC   PO421950  15.380  16.275  -1.361
10620POPC   GL121951  15.458  16.364  -1.522
10620POPC   GL221952  15.478  16.275  -1.562
10620POPC   C1A21953  15.537  16.453  -1.683
10620POPC   D2A21954  15.615  16.543  -1.844
10620POPC   C3A21955  15.694  16.632  -2.005
10620POPC   C4A21956  15.772  16.721  -2.166
10620POPC   C1B21957  15.717  16.454  -1.595
10620POPC   C2B21958  15.795  16.543  -1.756
10620POPC   C3B21959  15.873  16.632  -1.917
10620POPC   C4B21960  15.952  16.721  -2.078
10621POPC   NC321961  17.088  20.936  14.212
10621POPC   PO421962  17.200  21.086  14.281
10621POPC   GL121963  17.312  21.236  14.350
10621POPC   GL221964  17.333  21.264  14.257
10621POPC   C1A21965  17.424  21.387  14.420
10621POPC   D2A21966  17.536  21.537  14.489
10621POPC   C3A21967  17.648  21.688  14.559
10621POPC   C4A21968  17.760  21.838  14.628
10621POPC   C1B21969  17.584  21.267  14.420
10621POPC   C2B21970  17.696  21.418  14.489
10621POPC   C3B21971  17.808  21.568  14.558
10621POPC   C4B21972  17.920  21.719  14.628
10622POPC   NC321973  -0.836  14.513   2.284
10622POPC   PO421974  -0.993  14.584   2.183
10622POPC   GL121975  -1.150  14.655   2.082
10622POPC   GL221976  -1.108  14.745   2.079
10622POPC   C1A21977  -1.308  14.726   1.981
10622POPC   D2A21978  -1.465  14.797   1.880
10622POPC   C3A21979  -1.623  14.868   1.779
10622POPC   C4A21980  -1.780  14.939   1.678
10622POPC   C1B21981  -1.397  14.774   2.154
10622POPC   C2B21982  -1.554  14.845   2.053
10622POPC   C3B21983  -1.712  14.916   1.952
10622POPC   C4B21984  -1.869  14.987   1.851
10623POPC   NC321985  -0.572  14.110  18.134
10623POPC   PO421986  -0.719  14.170  18.256
10623POPC   GL121987  -0.866  14.230  18.378
10623POPC   GL221988  -0.821  14.184  18.454
10623POPC   C1A21989  -1.013  14.290  18.500
10623POPC   D2A21990  -1.160  14.349  18.621
10623POPC   C3A21991  -1.307  14.409  18.743
10623POPC   C4A21992  -1.454  14.469  18.865
10623POPC   C1B21993  -1.115  14.123  18.459
10623POPC   C2B21994  -1.262  14.182  18.580
10623POPC   C3B21995  -1.409  14.242  18.702
10623POPC   C4B21996  -1.556  14.302  18.824
10624POPC   NC321997  -2.579  13.907  14.764
10624POPC   PO421998  -2.757  13.964  14.835
10624POPC   GL121999  -2.935  14.021  14.906
10624POPC   GL222000  -2.901  14.115  14.916
10624POPC   C1A22001  -3.113  14.078  14.976
10624POPC   D2A22002  -3.292  14.135  15.047
10624POPC   C3A22003  -3.470  14.192  15.117
10624POPC   C4A22004  -3.648  14.249  15.188
10624POPC   C1B22005  -3.053  14.036  15.162
10624POPC   C2B22006  -3.231  14.093  15.233
10624POPC   C3B22007  -3.410  14.150  15.303
10624POPC   C4B22008  -3.588  14.207  15.374
10625POPC   NC322009  13.191  -1.292  17.266
10625POPC   PO422010  13.236  -1.451  17.379
10625POPC   GL122011  13.281  -1.610  17.492
10625POPC   GL222012  13.377  -1.585  17.489
10625POPC   C1A22013  13.325  -1.769  17.605
10625POPC   D2A22014  13.370  -1.927  17.719
10625POPC   C3A22015  13.414  -2.086  17.832
10625POPC   C4A22016  13.459  -2.245  17.945
10625POPC   C1B22017  13.349  -1.879  17.441
10625POPC   C2B22018  13.393  -2.038  17.554
10625POPC   C3B22019  13.438  -2.197  17.667
10625POPC   C4B22020  13.482  -2.356  17.780
10626POPC   NC322021   5.168  -0.628   2.339
10626POPC   PO422022   5.098  -0.775   2.222
10626POPC   GL122023   5.028  -0.922   2.105
10626POPC   GL222024   4.968  -0.952   2.180
10626POPC   C1A22025   4.958  -1.068   1.989
10626POPC   D2A22026   4.888  -1.215   1.872
10626POPC   C3A22027   4.818  -1.361   1.756
10626POPC   C4A22028   4.748  -1.508   1.639
10626POPC   C1B22029   5.102  -1.190   2.055
10626POPC   C2B22030   5.032  -1.337   1.939
10626POPC   C3B22031   4.962  -1.483   1.822
10626POPC   C4B22032   4.892  -1.630   1.705
10627POPC   NC322033   7.854  22.150  16.292
10627POPC   PO422034   7.824  22.326  16.382
10627POPC   GL122035   7.794  22.502  16.472
10627POPC   GL222036   7.885  22.498  16.511
10627POPC   C1A22037   7.763  22.678  16.562
10627POPC   D2A22038   7.733  22.854  16.652
10627POPC   C3A22039   7.702  23.030  16.742
10627POPC   C4A22040   7.672  23.206  16.832
10627POPC   C1B22041   7.690  22.583  16.722
10627POPC   C2B22042   7.659  22.759  16.812
10627POPC   C3B22043   7.629  22.935  16.902
10627POPC   C4B22044   7.599  23.111  16.992
10628POPC   NC322045  -2.294   6.427   4.210
10628POPC   PO422046  -2.472   6.384   4.129
10628POPC   GL122047  -2.650   6.341   4.048
10628POPC   GL222048  -2.696   6.387   4.124
10628POPC   C1A22049  -2.827   6.298   3.966
10628POPC   D2A22050  -3.005   6.255   3.885
10628POPC   C3A22051  -3.182   6.212   3.803
10628POPC   C4A22052  -3.360   6.169   3.722
10628POPC   C1B22053  -2.831   6.125   4.067
10628POPC   C2B22054  -3.009   6.082   3.985
10628POPC   C3B22055  -3.187   6.039   3.904
10628POPC   C4B22056  -3.364   5.996   3.823
10629POPC   NC322057   0.371  11.371   0.004
10629POPC   PO422058   0.237  11.388  -0.144
10629POPC   GL122059   0.103  11.405  -0.292
10629POPC   GL222060   0.070  11.490  -0.252
10629POPC   C1A22061  -0.031  11.421  -0.440
10629POPC   D2A22062  -0.164  11.438  -0.587
10629POPC   C3A22063  -0.298  11.454  -0.735
10629POPC   C4A22064  -0.432  11.471  -0.883
10629POPC   C1B22065  -0.164  11.319  -0.330
10629POPC   C2B22066  -0.298  11.336  -0.478
10629POPC   C3B22067  -0.431  11.353  -0.626
10629POPC   C4B22068  -0.565  11.369  -0.774
10630POPC   NC322069  15.458  12.326  -2.546
10630POPC   PO422070  15.541  12.354  -2.726
10630POPC   GL122071  15.624  12.382  -2.906
10630POPC   GL222072  15.563  12.313  -2.945
10630POPC   C1A22073  15.707  12.411  -3.086
10630POPC   D2A22074  15.789  12.439  -3.265
10630POPC   C3A22075  15.872  12.468  -3.445
10630POPC   C4A22076  15.955  12.496  -3.625
10630POPC   C1B22077  15.843  12.270  -3.045
10630POPC   C2B22078  15.925  12.298  -3.225
10630POPC   C3B22079  16.008  12.327  -3.405
10630POPC   C4B22080  16.091  12.355  -3.585
10631POPC   NC322081  -2.832   5.144  12.423
10631POPC   PO422082  -3.016   5.075  12.458
10631POPC   GL122083  -3.200   5.006  12.493
10631POPC   GL222084  -3.192   5.034  12.589
10631POPC   C1A22085  -3.385   4.937  12.529
10631POPC   D2A22086  -3.569   4.869  12.564
10631POPC   C3A22087  -3.754   4.800  12.600
10631POPC   C4A22088  -3.938   4.731  12.635
10631POPC   C1B22089  -3.309   4.758  12.574
10631POPC   C2B22090  -3.494   4.689  12.610
10631POPC   C3B22091  -3.678   4.620  12.645
10631POPC   C4B22092  -3.862   4.552  12.680
10632POPC   NC322093   1.788   0.834   3.313
10632POPC   PO422094   1.677   0.704   3.209
10632POPC   GL122095   1.566   0.574   3.105
10632POPC   GL222096   1.629   0.500   3.131
10632POPC   C1A22097   1.455   0.443   3.002
10632POPC   D2A22098   1.345   0.313   2.898
10632POPC   C3A22099   1.234   0.182   2.795
10632POPC   C4A22100   1.123   0.052   2.691
10632POPC   C1B22101   1.565   0.480   2.838
10632POPC   C2B22102   1.454   0.350   2.735
10632POPC   C3B22103   1.343   0.219   2.631
10632POPC   C4B22104   1.232   0.089   2.528
10633POPC   NC322105   1.925   9.661  -1.346
10633POPC   PO422106   1.808   9.661  -1.508
10633POPC   GL122107   1.691   9.661  -1.670
10633POPC   GL222108   1.617   9.702  -1.617
10633POPC   C1A22109   1.574   9.662  -1.832
10633POPC   D2A22110   1.457   9.662  -1.995
10633POPC   C3A22111   1.340   9.663  -2.157
10633POPC   C4A22112   1.223   9.663  -2.319
10633POPC   C1B22113   1.508   9.479  -1.785
10633POPC   C2B22114   1.391   9.479  -1.948
10633POPC   C3B22115   1.274   9.480  -2.110
10633POPC   C4B22116   1.157   9.480  -2.272
10634POPC   NC322117  19.123  13.164   0.118
10634POPC   PO422118  19.257  13.207  -0.024
10634POPC   GL122119  19.391  13.250  -0.166
10634POPC   GL222120  19.357  13.174  -0.221
10634POPC   C1A22121  19.526  13.294  -0.307
10634POPC   D2A22122  19.660  13.337  -0.449
10634POPC   C3A22123  19.795  13.381  -0.590
10634POPC   C4A22124  19.929  13.424  -0.732
10634POPC   C1B22125  19.658  13.171  -0.220
10634POPC   C2B22126  19.792  13.215  -0.361
10634POPC   C3B22127  19.926  13.258  -0.503
10634POPC   C4B22128  20.061  13.301  -0.645
10635POPC   NC322129   6.628   5.219  22.444
10635POPC   PO422130   6.590   5.149  22.628
10635POPC   GL122131   6.552   5.079  22.812
10635POPC   GL222132   6.645   5.101  22.839
10635POPC   C1A22133   6.514   5.010  22.995
10635POPC   D2A22134   6.475   4.940  23.179
10635POPC   C3A22135   6.437   4.871  23.362
10635POPC   C4A22136   6.399   4.801  23.546
10635POPC   C1B22137   6.572   4.827  22.938
10635POPC   C2B22138   6.534   4.758  23.122
10635POPC   C3B22139   6.496   4.688  23.305
10635POPC   C4B22140   6.458   4.618  23.489
10636POPC   NC322141  22.020  11.194  16.511
10636POPC   PO422142  22.198  11.210  16.601
10636POPC   GL122143  22.376  11.226  16.691
10636POPC   GL222144  22.416  11.164  16.624
10636POPC   C1A22145  22.553  11.242  16.782
10636POPC   D2A22146  22.731  11.258  16.872
10636POPC   C3A22147  22.908  11.274  16.963
10636POPC   C4A22148  23.086  11.290  17.053
10636POPC   C1B22149  22.508  11.086  16.899
10636POPC   C2B22150  22.685  11.102  16.989
10636POPC   C3B22151  22.863  11.118  17.079
10636POPC   C4B22152  23.041  11.134  17.170
10637POPC   NC322153  10.229  10.629  -3.921
10637POPC   PO422154  10.227  10.636  -4.121
10637POPC   GL122155  10.225  10.643  -4.321
10637POPC   GL222156  10.325  10.640  -4.322
10637POPC   C1A22157  10.223  10.651  -4.521
10637POPC   D2A22158  10.222  10.658  -4.720
10637POPC   C3A22159  10.220  10.666  -4.920
10637POPC   C4A22160  10.218  10.673  -5.120
10637POPC   C1B22161  10.230  10.851  -4.513
10637POPC   C2B22162  10.228  10.858  -4.713
10637POPC   C3B22163  10.226  10.865  -4.913
10637POPC   C4B22164  10.224  10.873  -5.113
10638POPC   NC322165  20.622   3.439   4.108
10638POPC   PO422166  20.775   3.344   4.021
10638POPC   GL122167  20.928   3.249   3.934
10638POPC   GL222168  20.972   3.336   3.916
10638POPC   C1A22169  21.080   3.153   3.846
10638POPC   D2A22170  21.233   3.058   3.759
10638POPC   C3A22171  21.385   2.962   3.671
10638POPC   C4A22172  21.538   2.867   3.584
10638POPC   C1B22173  20.986   3.165   3.670
10638POPC   C2B22174  21.139   3.069   3.583
10638POPC   C3B22175  21.292   2.974   3.495
10638POPC   C4B22176  21.444   2.878   3.408
10639POPC   NC322177  12.721   8.944  -3.639
10639POPC   PO422178  12.765   8.927  -3.833
10639POPC   GL122179  12.809   8.910  -4.027
10639POPC   GL222180  12.832   9.008  -4.031
10639POPC   C1A22181  12.853   8.893  -4.222
10639POPC   D2A22182  12.898   8.877  -4.416
10639POPC   C3A22183  12.942   8.860  -4.611
10639POPC   C4A22184  12.986   8.843  -4.805
10639POPC   C1B22185  12.664   8.937  -4.269
10639POPC   C2B22186  12.708   8.920  -4.463
10639POPC   C3B22187  12.752   8.903  -4.658
10639POPC   C4B22188  12.796   8.886  -4.852
10640POPC   NC322189  23.329  11.378  12.715
10640POPC   PO422190  23.524  11.399  12.752
10640POPC   GL122191  23.719  11.420  12.789
10640POPC   GL222192  23.718  11.509  12.745
10640POPC   C1A22193  23.915  11.440  12.826
10640POPC   D2A22194  24.110  11.461  12.862
10640POPC   C3A22195  24.306  11.481  12.899
10640POPC   C4A22196  24.501  11.502  12.936
10640POPC   C1B22197  23.957  11.354  12.650
10640POPC   C2B22198  24.152  11.375  12.687
10640POPC   C3B22199  24.348  11.396  12.724
10640POPC   C4B22200  24.543  11.416  12.760
10641POPC   NC322201   2.244  19.455   3.390
10641POPC   PO422202   2.136  19.598   3.301
10641POPC   GL122203   2.028  19.741   3.212
10641POPC   GL222204   2.098  19.808   3.234
10641POPC   C1A22205   1.920  19.884   3.123
10641POPC   D2A22206   1.811  20.026   3.034
10641POPC   C3A22207   1.703  20.169   2.945
10641POPC   C4A22208   1.595  20.312   2.856
10641POPC   C1B22209   1.828  19.922   3.297
10641POPC   C2B22210   1.720  20.065   3.208
10641POPC   C3B22211   1.612  20.208   3.119
10641POPC   C4B22212   1.503  20.351   3.030
10642POPC   NC322213  14.628  -0.617  17.488
10642POPC   PO422214  14.695  -0.769  17.600
10642POPC   GL122215  14.762  -0.921  17.712
10642POPC   GL222216  14.845  -0.868  17.733
10642POPC   C1A22217  14.829  -1.073  17.823
10642POPC   D2A22218  14.897  -1.224  17.935
10642POPC   C3A22219  14.964  -1.376  18.046
10642POPC   C4A22220  15.031  -1.528  18.158
10642POPC   C1B22221  14.920  -1.150  17.663
10642POPC   C2B22222  14.988  -1.302  17.774
10642POPC   C3B22223  15.055  -1.454  17.886
10642POPC   C4B22224  15.122  -1.605  17.998
10643POPC   NC322225  -2.923   9.015  15.176
10643POPC   PO422226  -3.106   9.005  15.255
10643POPC   GL122227  -3.289   8.995  15.334
10643POPC   GL222228  -3.270   8.902  15.366
10643POPC   C1A22229  -3.473   8.984  15.413
10643POPC   D2A22230  -3.656   8.974  15.492
10643POPC   C3A22231  -3.840   8.963  15.571
10643POPC   C4A22232  -4.023   8.953  15.650
10643POPC   C1B22233  -3.543   8.910  15.241
10643POPC   C2B22234  -3.726   8.900  15.320
10643POPC   C3B22235  -3.909   8.889  15.399
10643POPC   C4B22236  -4.093   8.879  15.478
10644POPC   NC322237   6.887   6.278  -3.089
10644POPC   PO422238   6.853   6.228  -3.280
10644POPC   GL122239   6.819   6.178  -3.471
10644POPC   GL222240   6.745   6.117  -3.441
10644POPC   C1A22241   6.785   6.128  -3.661
10644POPC   D2A22242   6.750   6.079  -3.852
10644POPC   C3A22243   6.716   6.029  -4.042
10644POPC   C4A22244   6.682   5.979  -4.233
10644POPC   C1B22245   6.915   5.978  -3.645
10644POPC   C2B22246   6.881   5.928  -3.836
10644POPC   C3B22247   6.847   5.878  -4.027
10644POPC   C4B22248   6.813   5.829  -4.217
10645POPC   NC322249   4.446   1.513  19.529
10645POPC   PO422250   4.366   1.388  19.662
10645POPC   GL122251   4.286   1.263  19.795
10645POPC   GL222252   4.340   1.305  19.868
10645POPC   C1A22253   4.205   1.137  19.929
10645POPC   D2A22254   4.125   1.012  20.062
10645POPC   C3A22255   4.044   0.886  20.196
10645POPC   C4A22256   3.964   0.761  20.329
10645POPC   C1B22257   4.353   1.007  19.895
10645POPC   C2B22258   4.272   0.881  20.028
10645POPC   C3B22259   4.192   0.756  20.162
10645POPC   C4B22260   4.112   0.630  20.295
10646POPC   NC322261   3.853   5.244  -1.661
10646POPC   PO422262   3.762   5.172  -1.824
10646POPC   GL122263   3.671   5.100  -1.987
10646POPC   GL222264   3.740   5.028  -1.993
10646POPC   C1A22265   3.581   5.027  -2.150
10646POPC   D2A22266   3.490   4.955  -2.313
10646POPC   C3A22267   3.400   4.882  -2.476
10646POPC   C4A22268   3.309   4.810  -2.639
10646POPC   C1B22269   3.694   5.145  -2.265
10646POPC   C2B22270   3.603   5.073  -2.428
10646POPC   C3B22271   3.512   5.001  -2.591
10646POPC   C4B22272   3.422   4.928  -2.754
10647POPC   NC322273   1.676   5.644  -0.349
10647POPC   PO422274   1.560   5.576  -0.497
10647POPC   GL122275   1.444   5.508  -0.645
10647POPC   GL222276   1.363   5.523  -0.588
10647POPC   C1A22277   1.328   5.440  -0.793
10647POPC   D2A22278   1.211   5.372  -0.940
10647POPC   C3A22279   1.095   5.304  -1.088
10647POPC   C4A22280   0.979   5.236  -1.236
10647POPC   C1B22281   1.344   5.254  -0.720
10647POPC   C2B22282   1.228   5.186  -0.868
10647POPC   C3B22283   1.112   5.118  -1.016
10647POPC   C4B22284   0.996   5.050  -1.164
10648POPC   NC322285  15.880  13.490  21.926
10648POPC   PO422286  15.978  13.545  22.091
10648POPC   GL122287  16.076  13.600  22.256
10648POPC   GL222288  16.080  13.694  22.223
10648POPC   C1A22289  16.174  13.655  22.422
10648POPC   D2A22290  16.272  13.710  22.587
10648POPC   C3A22291  16.370  13.765  22.753
10648POPC   C4A22292  16.468  13.820  22.918
10648POPC   C1B22293  16.348  13.615  22.332
10648POPC   C2B22294  16.446  13.670  22.497
10648POPC   C3B22295  16.544  13.725  22.663
10648POPC   C4B22296  16.642  13.780  22.828
10649POPC   NC322297  -0.897  14.302  17.618
10649POPC   PO422298  -1.051  14.364  17.730
10649POPC   GL122299  -1.205  14.426  17.842
10649POPC   GL222300  -1.174  14.367  17.916
10649POPC   C1A22301  -1.358  14.488  17.954
10649POPC   D2A22302  -1.512  14.551  18.066
10649POPC   C3A22303  -1.665  14.613  18.178
10649POPC   C4A22304  -1.819  14.675  18.290
10649POPC   C1B22305  -1.471  14.340  17.881
10649POPC   C2B22306  -1.625  14.402  17.993
10649POPC   C3B22307  -1.778  14.465  18.105
10649POPC   C4B22308  -1.932  14.527  18.217
10650POPC   NC322309  11.190  13.239  -3.453
10650POPC   PO422310  11.210  13.290  -3.645
10650POPC   GL122311  11.230  13.341  -3.837
10650POPC   GL222312  11.302  13.272  -3.848
10650POPC   C1A22313  11.250  13.391  -4.030
10650POPC   D2A22314  11.269  13.442  -4.222
10650POPC   C3A22315  11.289  13.492  -4.415
10650POPC   C4A22316  11.309  13.543  -4.607
10650POPC   C1B22317  11.386  13.528  -3.980
10650POPC   C2B22318  11.406  13.579  -4.172
10650POPC   C3B22319  11.426  13.629  -4.364
10650POPC   C4B22320  11.446  13.680  -4.557
10651POPC   NC322321  20.322   0.899  10.777
10651POPC   PO422322  20.472   0.767  10.790
10651POPC   GL122323  20.622   0.635  10.803
10651POPC   GL222324  20.687   0.711  10.811
10651POPC   C1A22325  20.772   0.504  10.817
10651POPC   D2A22326  20.922   0.372  10.830
10651POPC   C3A22327  21.072   0.241  10.844
10651POPC   C4A22328  21.222   0.109  10.857
10651POPC   C1B22329  20.792   0.507  10.618
10651POPC   C2B22330  20.942   0.375  10.631
10651POPC   C3B22331  21.092   0.244  10.645
10651POPC   C4B22332  21.242   0.112  10.658
10652POPC   NC322333  19.455  18.864  14.215
10652POPC   PO422334  19.589  18.997  14.280
10652POPC   GL122335  19.723  19.130  14.345
10652POPC   GL222336  19.794  19.059  14.346
10652POPC   C1A22337  19.858  19.263  14.410
10652POPC   D2A22338  19.992  19.397  14.474
10652POPC   C3A22339  20.127  19.530  14.539
10652POPC   C4A22340  20.261  19.663  14.604
10652POPC   C1B22341  19.810  19.220  14.599
10652POPC   C2B22342  19.944  19.353  14.664
10652POPC   C3B22343  20.079  19.486  14.728
10652POPC   C4B22344  20.213  19.619  14.793
10653POPC   NC322345  11.498  10.905  -3.841
10653POPC   PO422346  11.521  10.923  -4.039
10653POPC   GL122347  11.544  10.941  -4.237
10653POPC   GL222348  11.624  10.882  -4.233
10653POPC   C1A22349  11.567  10.958  -4.435
10653POPC   D2A22350  11.589  10.976  -4.633
10653POPC   C3A22351  11.612  10.993  -4.831
10653POPC   C4A22352  11.635  11.011  -5.029
10653POPC   C1B22353  11.683  11.119  -4.407
10653POPC   C2B22354  11.706  11.136  -4.605
10653POPC   C3B22355  11.729  11.154  -4.803
10653POPC   C4B22356  11.751  11.171  -5.001
10654POPC   NC322357  -1.464  15.730   4.550
10654POPC   PO422358  -1.631  15.810   4.474
10654POPC   GL122359  -1.798  15.890   4.398
10654POPC   GL222360  -1.785  15.971   4.455
10654POPC   C1A22361  -1.965  15.970   4.322
10654POPC   D2A22362  -2.131  16.050   4.246
10654POPC   C3A22363  -2.298  16.130   4.170
10654POPC   C4A22364  -2.465  16.210   4.094
10654POPC   C1B22365  -2.072  15.884   4.467
10654POPC   C2B22366  -2.239  15.964   4.391
10654POPC   C3B22367  -2.406  16.044   4.315
10654POPC   C4B22368  -2.572  16.124   4.239
10655POPC   NC322369   6.687  20.029  18.850
10655POPC   PO422370   6.643  20.172  18.983
10655POPC   GL122371   6.599  20.315  19.116
10655POPC   GL222372   6.661  20.378  19.069
10655POPC   C1A22373   6.554  20.458  19.249
10655POPC   D2A22374   6.510  20.600  19.381
10655POPC   C3A22375   6.465  20.743  19.514
10655POPC   C4A22376   6.421  20.886  19.647
10655POPC   C1B22377   6.704  20.395  19.366
10655POPC   C2B22378   6.659  20.538  19.499
10655POPC   C3B22379   6.615  20.681  19.631
10655POPC   C4B22380   6.571  20.824  19.764
10656POPC   NC322381   8.659  18.094  21.109
10656POPC   PO422382   8.639  18.215  21.267
10656POPC   GL122383   8.619  18.336  21.425
10656POPC   GL222384   8.668  18.408  21.376
10656POPC   C1A22385   8.599  18.458  21.582
10656POPC   D2A22386   8.578  18.579  21.740
10656POPC   C3A22387   8.558  18.701  21.897
10656POPC   C4A22388   8.538  18.822  22.055
10656POPC   C1B22389   8.771  18.389  21.657
10656POPC   C2B22390   8.751  18.511  21.814
10656POPC   C3B22391   8.731  18.632  21.972
10656POPC   C4B22392   8.710  18.754  22.130
10657POPC   NC322393  18.547  20.728  11.193
10657POPC   PO422394  18.672  20.883  11.212
10657POPC   GL122395  18.797  21.038  11.231
10657POPC   GL222396  18.853  21.002  11.157
10657POPC   C1A22397  18.922  21.193  11.250
10657POPC   D2A22398  19.046  21.349  11.270
10657POPC   C3A22399  19.171  21.504  11.289
10657POPC   C4A22400  19.296  21.659  11.308
10657POPC   C1B22401  19.030  21.090  11.383
10657POPC   C2B22402  19.155  21.245  11.402
10657POPC   C3B22403  19.280  21.400  11.421
10657POPC   C4B22404  19.404  21.555  11.440
10658POPC   NC322405   9.264  21.724  17.337
10658POPC   PO422406   9.253  21.893  17.444
10658POPC   GL122407   9.242  22.062  17.551
10658POPC   GL222408   9.316  22.101  17.496
10658POPC   C1A22409   9.232  22.230  17.658
10658POPC   D2A22410   9.221  22.399  17.765
10658POPC   C3A22411   9.211  22.567  17.872
10658POPC   C4A22412   9.200  22.736  17.979
10658POPC   C1B22413   9.367  22.158  17.786
10658POPC   C2B22414   9.357  22.326  17.893
10658POPC   C3B22415   9.346  22.495  18.000
10658POPC   C4B22416   9.335  22.663  18.107
10659POPC   NC322417  22.218   3.893  11.490
10659POPC   PO422418  22.397   3.806  11.512
10659POPC   GL122419  22.576   3.719  11.534
10659POPC   GL222420  22.614   3.780  11.465
10659POPC   C1A22421  22.754   3.632  11.556
10659POPC   D2A22422  22.933   3.545  11.579
10659POPC   C3A22423  23.111   3.458  11.601
10659POPC   C4A22424  23.290   3.371  11.623
10659POPC   C1B22425  22.708   3.501  11.413
10659POPC   C2B22426  22.886   3.414  11.435
10659POPC   C3B22427  23.065   3.327  11.457
10659POPC   C4B22428  23.244   3.240  11.480
10660POPC   NC322429  15.073   4.722  -1.791
10660POPC   PO422430  15.152   4.656  -1.963
10660POPC   GL122431  15.231   4.590  -2.135
10660POPC   GL222432  15.283   4.675  -2.143
10660POPC   C1A22433  15.310   4.525  -2.306
10660POPC   D2A22434  15.388   4.459  -2.478
10660POPC   C3A22435  15.467   4.394  -2.649
10660POPC   C4A22436  15.546   4.328  -2.821
10660POPC   C1B22437  15.159   4.608  -2.407
10660POPC   C2B22438  15.238   4.543  -2.579
10660POPC   C3B22439  15.316   4.477  -2.751
10660POPC   C4B22440  15.395   4.412  -2.922
10661POPC   NC322441   8.556  22.795  15.101
10661POPC   PO422442   8.535  22.979  15.176
10661POPC   GL122443   8.514  23.163  15.251
10661POPC   GL222444   8.575  23.199  15.180
10661POPC   C1A22445   8.494  23.347  15.326
10661POPC   D2A22446   8.473  23.532  15.402
10661POPC   C3A22447   8.453  23.716  15.477
10661POPC   C4A22448   8.432  23.900  15.552
10661POPC   C1B22449   8.651  23.316  15.445
10661POPC   C2B22450   8.631  23.501  15.521
10661POPC   C3B22451   8.610  23.685  15.596
10661POPC   C4B22452   8.590  23.869  15.671
10662POPC   NC322453  22.257   3.817  10.699
10662POPC   PO422454  22.435   3.727  10.711
10662POPC   GL122455  22.613   3.637  10.723
10662POPC   GL222456  22.650   3.702  10.655
10662POPC   C1A22457  22.792   3.548  10.734
10662POPC   D2A22458  22.970   3.458  10.746
10662POPC   C3A22459  23.149   3.369  10.757
10662POPC   C4A22460  23.327   3.279  10.769
10662POPC   C1B22461  22.739   3.424  10.587
10662POPC   C2B22462  22.917   3.334  10.598
10662POPC   C3B22463  23.096   3.244  10.610
10662POPC   C4B22464  23.274   3.155  10.621
10663POPC   NC322465  23.081  13.752   8.098
10663POPC   PO422466  23.270  13.813   8.073
10663POPC   GL122467  23.459  13.874   8.048
10663POPC   GL222468  23.446  13.873   7.949
10663POPC   C1A22469  23.648  13.935   8.023
10663POPC   D2A22470  23.836  13.996   7.999
10663POPC   C3A22471  24.025  14.057   7.974
10663POPC   C4A22472  24.214  14.118   7.949
10663POPC   C1B22473  23.708  13.745   8.017
10663POPC   C2B22474  23.897  13.806   7.992
10663POPC   C3B22475  24.086  13.867   7.968
10663POPC   C4B22476  24.275  13.928   7.943
10664POPC   NC322477  17.077   0.013  16.336
10664POPC   PO422478  17.184  -0.128  16.430
10664POPC   GL122479  17.291  -0.269  16.524
10664POPC   GL222480  17.375  -0.218  16.505
10664POPC   C1A22481  17.397  -0.410  16.618
10664POPC   D2A22482  17.504  -0.550  16.711
10664POPC   C3A22483  17.610  -0.691  16.805
10664POPC   C4A22484  17.717  -0.832  16.899
10664POPC   C1B22485  17.418  -0.508  16.445
10664POPC   C2B22486  17.525  -0.649  16.539
10664POPC   C3B22487  17.632  -0.790  16.633
10664POPC   C4B22488  17.738  -0.931  16.726
10665POPC   NC322489   3.914  15.448  21.185
10665POPC   PO422490   3.816  15.524  21.342
10665POPC   GL122491   3.718  15.600  21.499
10665POPC   GL222492   3.774  15.545  21.561
10665POPC   C1A22493   3.620  15.675  21.656
10665POPC   D2A22494   3.522  15.751  21.813
10665POPC   C3A22495   3.424  15.826  21.970
10665POPC   C4A22496   3.326  15.902  22.127
10665POPC   C1B22497   3.487  15.526  21.645
10665POPC   C2B22498   3.389  15.602  21.802
10665POPC   C3B22499   3.291  15.677  21.959
10665POPC   C4B22500   3.193  15.753  22.116
10666POPC   NC322501   6.877   0.217   0.592
10666POPC   PO422502   6.834   0.076   0.457
10666POPC   GL122503   6.791  -0.065   0.322
10666POPC   GL222504   6.847  -0.017   0.254
10666POPC   C1A22505   6.748  -0.206   0.187
10666POPC   D2A22506   6.705  -0.347   0.051
10666POPC   C3A22507   6.662  -0.488  -0.084
10666POPC   C4A22508   6.619  -0.629  -0.219
10666POPC   C1B22509   6.588  -0.101   0.128
10666POPC   C2B22510   6.545  -0.242  -0.007
10666POPC   C3B22511   6.502  -0.383  -0.142
10666POPC   C4B22512   6.459  -0.524  -0.277
10667POPC   NC322513   0.137  16.891  16.990
10667POPC   PO422514  -0.002  16.992  17.092
10667POPC   GL122515  -0.141  17.093  17.194
10667POPC   GL222516  -0.088  17.177  17.184
10667POPC   C1A22517  -0.281  17.194  17.295
10667POPC   D2A22518  -0.420  17.296  17.397
10667POPC   C3A22519  -0.560  17.397  17.498
10667POPC   C4A22520  -0.699  17.498  17.600
10667POPC   C1B22521  -0.186  17.153  17.466
10667POPC   C2B22522  -0.325  17.255  17.568
10667POPC   C3B22523  -0.465  17.356  17.670
10667POPC   C4B22524  -0.604  17.457  17.771
10668POPC   NC322525  -1.423   2.383  12.543
10668POPC   PO422526  -1.588   2.277  12.583
10668POPC   GL122527  -1.753   2.171  12.623
10668POPC   GL222528  -1.711   2.090  12.582
10668POPC   C1A22529  -1.918   2.065  12.663
10668POPC   D2A22530  -2.082   1.959  12.703
10668POPC   C3A22531  -2.247   1.853  12.743
10668POPC   C4A22532  -2.412   1.747  12.783
10668POPC   C1B22533  -1.993   2.115  12.485
10668POPC   C2B22534  -2.158   2.009  12.525
10668POPC   C3B22535  -2.323   1.903  12.565
10668POPC   C4B22536  -2.488   1.797  12.605
10669POPC   NC322537  12.014  23.665   9.588
10669POPC   PO422538  12.042  23.863   9.584
10669POPC   GL122539  12.070  24.061   9.580
10669POPC   GL222540  12.100  24.059   9.676
10669POPC   C1A22541  12.098  24.259   9.576
10669POPC   D2A22542  12.127  24.457   9.572
10669POPC   C3A22543  12.155  24.655   9.568
10669POPC   C4A22544  12.183  24.853   9.564
10669POPC   C1B22545  11.909  24.287   9.635
10669POPC   C2B22546  11.938  24.485   9.631
10669POPC   C3B22547  11.966  24.683   9.627
10669POPC   C4B22548  11.994  24.881   9.623
10670POPC   NC322549  20.409   6.795  18.228
10670POPC   PO422550  20.563   6.748  18.346
10670POPC   GL122551  20.717   6.701  18.464
10670POPC   GL222552  20.734   6.619  18.410
10670POPC   C1A22553  20.871   6.655  18.583
10670POPC   D2A22554  21.026   6.608  18.701
10670POPC   C3A22555  21.180   6.562  18.820
10670POPC   C4A22556  21.334   6.515  18.938
10670POPC   C1B22557  20.749   6.551  18.702
10670POPC   C2B22558  20.903   6.505  18.820
10670POPC   C3B22559  21.057   6.458  18.939
10670POPC   C4B22560  21.211   6.411  19.057
10671POPC   NC322561  14.850   3.391  -1.272
10671POPC   PO422562  14.923   3.297  -1.433
10671POPC   GL122563  14.996   3.203  -1.594
10671POPC   GL222564  14.938   3.260  -1.653
10671POPC   C1A22565  15.068   3.109  -1.755
10671POPC   D2A22566  15.141   3.016  -1.916
10671POPC   C3A22567  15.213   2.922  -2.077
10671POPC   C4A22568  15.286   2.828  -2.238
10671POPC   C1B22569  14.921   2.975  -1.743
10671POPC   C2B22570  14.994   2.881  -1.904
10671POPC   C3B22571  15.066   2.787  -2.065
10671POPC   C4B22572  15.139   2.693  -2.226
10672POPC   NC322573   8.925  -1.434   2.172
10672POPC   PO422574   8.909  -1.600   2.061
10672POPC   GL122575   8.893  -1.766   1.950
10672POPC   GL222576   8.911  -1.822   2.031
10672POPC   C1A22577   8.877  -1.932   1.839
10672POPC   D2A22578   8.862  -2.097   1.729
10672POPC   C3A22579   8.846  -2.263   1.618
10672POPC   C4A22580   8.830  -2.429   1.507
10672POPC   C1B22581   9.073  -1.924   1.800
10672POPC   C2B22582   9.058  -2.090   1.690
10672POPC   C3B22583   9.042  -2.256   1.579
10672POPC   C4B22584   9.026  -2.422   1.468
10673POPC   NC322585  10.073  -0.695   1.103
10673POPC   PO422586  10.073  -0.850   0.977
10673POPC   GL122587  10.073  -1.005   0.851
10673POPC   GL222588  10.105  -0.946   0.778
10673POPC   C1A22589  10.073  -1.161   0.725
10673POPC   D2A22590  10.074  -1.316   0.600
10673POPC   C3A22591  10.074  -1.472   0.474
10673POPC   C4A22592  10.074  -1.627   0.348
10673POPC   C1B22593   9.884  -1.121   0.675
10673POPC   C2B22594   9.884  -1.276   0.550
10673POPC   C3B22595   9.884  -1.431   0.424
10673POPC   C4B22596   9.885  -1.587   0.298
10674POPC   NC322597  18.697   8.053  -0.570
10674POPC   PO422598  18.820   8.025  -0.725
10674POPC   GL122599  18.943   7.997  -0.880
10674POPC   GL222600  18.903   8.076  -0.926
10674POPC   C1A22601  19.066   7.969  -1.035
10674POPC   D2A22602  19.190   7.940  -1.190
10674POPC   C3A22603  19.313   7.912  -1.345
10674POPC   C4A22604  19.436   7.884  -1.500
10674POPC   C1B22605  18.931   7.849  -1.121
10674POPC   C2B22606  19.054   7.821  -1.276
10674POPC   C3B22607  19.177   7.793  -1.431
10674POPC   C4B22608  19.300   7.765  -1.586
10675POPC   NC322609  -0.228  14.709   1.584
10675POPC   PO422610  -0.370  14.781   1.463
10675POPC   GL122611  -0.512  14.853   1.342
10675POPC   GL222612  -0.464  14.940   1.337
10675POPC   C1A22613  -0.655  14.925   1.222
10675POPC   D2A22614  -0.797  14.997   1.101
10675POPC   C3A22615  -0.940  15.069   0.981
10675POPC   C4A22616  -1.082  15.141   0.860
10675POPC   C1B22617  -0.756  14.991   1.381
10675POPC   C2B22618  -0.899  15.063   1.260
10675POPC   C3B22619  -1.041  15.135   1.140
10675POPC   C4B22620  -1.183  15.207   1.019
10676POPC   NC322621  16.067  22.029  13.005
10676POPC   PO422622  16.156  22.202  13.052
10676POPC   GL122623  16.245  22.375  13.099
10676POPC   GL222624  16.333  22.338  13.068
10676POPC   C1A22625  16.334  22.547  13.147
10676POPC   D2A22626  16.424  22.720  13.194
10676POPC   C3A22627  16.513  22.892  13.242
10676POPC   C4A22628  16.602  23.065  13.289
10676POPC   C1B22629  16.372  22.477  13.330
10676POPC   C2B22630  16.461  22.650  13.378
10676POPC   C3B22631  16.550  22.823  13.425
10676POPC   C4B22632  16.639  22.995  13.473
10677POPC   NC322633  10.283  22.210   3.386
10677POPC   PO422634  10.292  22.385   3.290
10677POPC   GL122635  10.301  22.560   3.194
10677POPC   GL222636  10.369  22.522   3.131
10677POPC   C1A22637  10.310  22.735   3.098
10677POPC   D2A22638  10.318  22.911   3.002
10677POPC   C3A22639  10.327  23.086   2.906
10677POPC   C4A22640  10.336  23.261   2.810
10677POPC   C1B22641  10.456  22.795   3.220
10677POPC   C2B22642  10.465  22.970   3.124
10677POPC   C3B22643  10.474  23.145   3.028
10677POPC   C4B22644  10.483  23.321   2.932
10678POPC   NC322645   9.955  23.701   8.073
10678POPC   PO422646   9.956  23.899   8.048
10678POPC   GL122647   9.957  24.097   8.023
10678POPC   GL222648  10.042  24.104   8.076
10678POPC   C1A22649   9.959  24.296   7.998
10678POPC   D2A22650   9.960  24.494   7.972
10678POPC   C3A22651   9.962  24.693   7.947
10678POPC   C4A22652   9.963  24.891   7.922
10678POPC   C1B22653   9.851  24.318   8.165
10678POPC   C2B22654   9.853  24.516   8.140
10678POPC   C3B22655   9.854  24.715   8.114
10678POPC   C4B22656   9.856  24.913   8.089
10679POPC   NC322657   3.726   2.649   0.023
10679POPC   PO422658   3.635   2.539  -0.117
10679POPC   GL122659   3.544   2.429  -0.257
10679POPC   GL222660   3.476   2.400  -0.190
10679POPC   C1A22661   3.453   2.319  -0.397
10679POPC   D2A22662   3.363   2.210  -0.538
10679POPC   C3A22663   3.272   2.100  -0.678
10679POPC   C4A22664   3.181   1.990  -0.818
10679POPC   C1B22665   3.569   2.163  -0.350
10679POPC   C2B22666   3.478   2.053  -0.490
10679POPC   C3B22667   3.387   1.943  -0.630
10679POPC   C4B22668   3.296   1.834  -0.770
10680POPC   NC322669   0.616  19.590  13.748
10680POPC   PO422670   0.481  19.726  13.805
10680POPC   GL122671   0.346  19.862  13.862
10680POPC   GL222672   0.326  19.808  13.944
10680POPC   C1A22673   0.210  19.998  13.919
10680POPC   D2A22674   0.075  20.133  13.975
10680POPC   C3A22675  -0.061  20.269  14.032
10680POPC   C4A22676  -0.196  20.405  14.089
10680POPC   C1B22677   0.068  19.897  13.820
10680POPC   C2B22678  -0.067  20.033  13.877
10680POPC   C3B22679  -0.203  20.169  13.934
10680POPC   C4B22680  -0.338  20.305  13.991
10681POPC   NC322681  15.891  -1.846  13.857
10681POPC   PO422682  15.978  -2.018  13.911
10681POPC   GL122683  16.065  -2.190  13.965
10681POPC   GL222684  16.095  -2.147  14.051
10681POPC   C1A22685  16.152  -2.361  14.020
10681POPC   D2A22686  16.239  -2.533  14.074
10681POPC   C3A22687  16.326  -2.704  14.129
10681POPC   C4A22688  16.413  -2.876  14.183
10681POPC   C1B22689  16.322  -2.303  13.931
10681POPC   C2B22690  16.409  -2.475  13.985
10681POPC   C3B22691  16.496  -2.647  14.040
10681POPC   C4B22692  16.583  -2.818  14.094
10682POPC   NC322693   8.194   2.685  21.568
10682POPC   PO422694   8.171   2.586  21.740
10682POPC   GL122695   8.148   2.487  21.912
10682POPC   GL222696   8.209   2.552  21.958
10682POPC   C1A22697   8.125   2.387  22.084
10682POPC   D2A22698   8.103   2.288  22.256
10682POPC   C3A22699   8.080   2.188  22.428
10682POPC   C4A22700   8.057   2.089  22.600
10682POPC   C1B22701   8.283   2.273  22.039
10682POPC   C2B22702   8.261   2.174  22.211
10682POPC   C3B22703   8.238   2.074  22.383
10682POPC   C4B22704   8.215   1.975  22.555
10683POPC   NC322705  15.289  14.202  21.987
10683POPC   PO422706  15.371  14.267  22.158
10683POPC   GL122707  15.453  14.332  22.329
10683POPC   GL222708  15.461  14.424  22.290
10683POPC   C1A22709  15.534  14.397  22.499
10683POPC   D2A22710  15.616  14.462  22.670
10683POPC   C3A22711  15.697  14.527  22.840
10683POPC   C4A22712  15.779  14.592  23.011
10683POPC   C1B22713  15.716  14.351  22.430
10683POPC   C2B22714  15.798  14.416  22.600
10683POPC   C3B22715  15.879  14.481  22.771
10683POPC   C4B22716  15.961  14.546  22.942
10684POPC   NC322717   3.275  12.576  21.839
10684POPC   PO422718   3.175  12.618  22.007
10684POPC   GL122719   3.075  12.660  22.175
10684POPC   GL222720   3.118  12.750  22.178
10684POPC   C1A22721   2.975  12.701  22.343
10684POPC   D2A22722   2.876  12.743  22.512
10684POPC   C3A22723   2.776  12.784  22.680
10684POPC   C4A22724   2.676  12.826  22.848
10684POPC   C1B22725   3.126  12.626  22.451
10684POPC   C2B22726   3.026  12.667  22.620
10684POPC   C3B22727   2.926  12.709  22.788
10684POPC   C4B22728   2.826  12.750  22.956
10685POPC   NC322729  21.326  17.624   8.907
10685POPC   PO422730  21.493  17.733   8.887
10685POPC   GL122731  21.660  17.842   8.867
10685POPC   GL222732  21.715  17.759   8.877
10685POPC   C1A22733  21.827  17.950   8.848
10685POPC   D2A22734  21.993  18.059   8.828
10685POPC   C3A22735  22.160  18.167   8.809
10685POPC   C4A22736  22.327  18.276   8.789
10685POPC   C1B22737  21.833  17.977   9.046
10685POPC   C2B22738  21.999  18.086   9.026
10685POPC   C3B22739  22.166  18.194   9.007
10685POPC   C4B22740  22.333  18.303   8.987
10686POPC   NC322741  18.474  19.217   4.370
10686POPC   PO422742  18.598  19.348   4.283
10686POPC   GL122743  18.722  19.479   4.196
10686POPC   GL222744  18.774  19.403   4.157
10686POPC   C1A22745  18.845  19.610   4.109
10686POPC   D2A22746  18.969  19.741   4.023
10686POPC   C3A22747  19.092  19.872   3.936
10686POPC   C4A22748  19.216  20.003   3.849
10686POPC   C1B22749  18.962  19.607   4.272
10686POPC   C2B22750  19.086  19.738   4.185
10686POPC   C3B22751  19.209  19.869   4.098
10686POPC   C4B22752  19.333  20.000   4.011
10687POPC   NC322753  -0.086  10.215   0.383
10687POPC   PO422754  -0.230  10.216   0.244
10687POPC   GL122755  -0.374  10.217   0.105
10687POPC   GL222756  -0.416  10.296   0.150
10687POPC   C1A22757  -0.518  10.218  -0.034
10687POPC   D2A22758  -0.661  10.219  -0.173
10687POPC   C3A22759  -0.805  10.220  -0.312
10687POPC   C4A22760  -0.949  10.221  -0.451
10687POPC   C1B22761  -0.627  10.095   0.079
10687POPC   C2B22762  -0.771  10.096  -0.060
10687POPC   C3B22763  -0.915  10.097  -0.199
10687POPC   C4B22764  -1.059  10.098  -0.338
10688POPC   NC322765  21.773   8.922   2.975
10688POPC   PO422766  21.943   8.912   2.871
10688POPC   GL122767  22.113   8.902   2.767
10688POPC   GL222768  22.090   8.809   2.737
10688POPC   C1A22769  22.284   8.891   2.663
10688POPC   D2A22770  22.454   8.881   2.558
10688POPC   C3A22771  22.625   8.870   2.454
10688POPC   C4A22772  22.795   8.860   2.350
10688POPC   C1B22773  22.377   8.816   2.823
10688POPC   C2B22774  22.548   8.806   2.719
10688POPC   C3B22775  22.718   8.795   2.614
10688POPC   C4B22776  22.888   8.785   2.510
10689POPC   NC322777  -3.646   8.392  12.441
10689POPC   PO422778  -3.841   8.366  12.478
10689POPC   GL122779  -4.036   8.340  12.515
10689POPC   GL222780  -4.015   8.312  12.608
10689POPC   C1A22781  -4.231   8.313  12.551
10689POPC   D2A22782  -4.425   8.287  12.588
10689POPC   C3A22783  -4.620   8.260  12.624
10689POPC   C4A22784  -4.815   8.234  12.661
10689POPC   C1B22785  -4.216   8.123  12.493
10689POPC   C2B22786  -4.411   8.096  12.529
10689POPC   C3B22787  -4.605   8.070  12.566
10689POPC   C4B22788  -4.800   8.043  12.602
10690POPC   NC322789  -1.148   4.036   3.777
10690POPC   PO422790  -1.307   3.949   3.693
10690POPC   GL122791  -1.466   3.862   3.609
10690POPC   GL222792  -1.418   3.774   3.609
10690POPC   C1A22793  -1.625   3.775   3.524
10690POPC   D2A22794  -1.784   3.687   3.440
10690POPC   C3A22795  -1.943   3.600   3.355
10690POPC   C4A22796  -2.102   3.513   3.271
10690POPC   C1B22797  -1.551   3.815   3.343
10690POPC   C2B22798  -1.710   3.728   3.258
10690POPC   C3B22799  -1.869   3.641   3.174
10690POPC   C4B22800  -2.028   3.554   3.090
10691POPC   NC322801  19.708   4.980   1.639
10691POPC   PO422802  19.846   4.901   1.517
10691POPC   GL122803  19.984   4.822   1.395
10691POPC   GL222804  20.053   4.884   1.433
10691POPC   C1A22805  20.122   4.744   1.273
10691POPC   D2A22806  20.259   4.665   1.152
10691POPC   C3A22807  20.397   4.587   1.030
10691POPC   C4A22808  20.535   4.508   0.908
10691POPC   C1B22809  20.076   4.880   1.134
10691POPC   C2B22810  20.213   4.801   1.012
10691POPC   C3B22811  20.351   4.722   0.890
10691POPC   C4B22812  20.489   4.644   0.768
10692POPC   NC322813  21.519  17.439   9.922
10692POPC   PO422814  21.688  17.546   9.918
10692POPC   GL122815  21.857  17.653   9.914
10692POPC   GL222816  21.910  17.569   9.923
10692POPC   C1A22817  22.026  17.759   9.910
10692POPC   D2A22818  22.196  17.866   9.905
10692POPC   C3A22819  22.365  17.972   9.901
10692POPC   C4A22820  22.534  18.079   9.897
10692POPC   C1B22821  22.020  17.777  10.109
10692POPC   C2B22822  22.190  17.883  10.105
10692POPC   C3B22823  22.359  17.990  10.100
10692POPC   C4B22824  22.528  18.096  10.096
10693POPC   NC322825   1.543   2.304  17.888
10693POPC   PO422826   1.423   2.197  18.007
10693POPC   GL122827   1.303   2.090  18.126
10693POPC   GL222828   1.382   2.043  18.163
10693POPC   C1A22829   1.183   1.983  18.245
10693POPC   D2A22830   1.062   1.877  18.363
10693POPC   C3A22831   0.942   1.770  18.482
10693POPC   C4A22832   0.822   1.663  18.601
10693POPC   C1B22833   1.166   1.844  18.103
10693POPC   C2B22834   1.046   1.737  18.221
10693POPC   C3B22835   0.926   1.630  18.340
10693POPC   C4B22836   0.806   1.523  18.459
10694POPC   NC322837   6.187  21.084  17.391
10694POPC   PO422838   6.133  21.241  17.503
10694POPC   GL122839   6.079  21.398  17.615
10694POPC   GL222840   6.174  21.412  17.641
10694POPC   C1A22841   6.024  21.554  17.727
10694POPC   D2A22842   5.970  21.711  17.839
10694POPC   C3A22843   5.915  21.867  17.951
10694POPC   C4A22844   5.861  22.024  18.063
10694POPC   C1B22845   6.001  21.433  17.885
10694POPC   C2B22846   5.946  21.590  17.997
10694POPC   C3B22847   5.892  21.747  18.109
10694POPC   C4B22848   5.838  21.903  18.221
10695POPC   NC322849   8.705   0.562  -0.167
10695POPC   PO422850   8.685   0.423  -0.310
10695POPC   GL122851   8.665   0.284  -0.453
10695POPC   GL222852   8.720   0.340  -0.515
10695POPC   C1A22853   8.645   0.145  -0.595
10695POPC   D2A22854   8.625   0.007  -0.738
10695POPC   C3A22855   8.605  -0.132  -0.880
10695POPC   C4A22856   8.585  -0.271  -1.023
10695POPC   C1B22857   8.479   0.236  -0.660
10695POPC   C2B22858   8.459   0.097  -0.802
10695POPC   C3B22859   8.439  -0.042  -0.945
10695POPC   C4B22860   8.419  -0.181  -1.088
10696POPC   NC322861  21.059  18.075   9.234
10696POPC   PO422862  21.224  18.187   9.219
10696POPC   GL122863  21.389  18.299   9.204
10696POPC   GL222864  21.445  18.217   9.200
10696POPC   C1A22865  21.553  18.412   9.189
10696POPC   D2A22866  21.718  18.524   9.173
10696POPC   C3A22867  21.882  18.637   9.158
10696POPC   C4A22868  22.047  18.749   9.143
10696POPC   C1B22869  21.570  18.414   9.388
10696POPC   C2B22870  21.735  18.526   9.373
10696POPC   C3B22871  21.900  18.638   9.357
10696POPC   C4B22872  22.064  18.751   9.342
10697POPC   NC322873   9.733   8.010  -3.751
10697POPC   PO422874   9.727   7.978  -3.948
10697POPC   GL122875   9.721   7.946  -4.145
10697POPC   GL222876   9.820   7.960  -4.150
10697POPC   C1A22877   9.715   7.915  -4.343
10697POPC   D2A22878   9.710   7.883  -4.540
10697POPC   C3A22879   9.704   7.852  -4.738
10697POPC   C4A22880   9.698   7.820  -4.935
10697POPC   C1B22881   9.687   8.110  -4.373
10697POPC   C2B22882   9.681   8.079  -4.571
10697POPC   C3B22883   9.675   8.047  -4.768
10697POPC   C4B22884   9.669   8.016  -4.965
10698POPC   NC322885  -0.109   7.296   0.710
10698POPC   PO422886  -0.255   7.266   0.576
10698POPC   GL122887  -0.401   7.236   0.442
10698POPC   GL222888  -0.453   7.184   0.511
10698POPC   C1A22889  -0.547   7.205   0.309
10698POPC   D2A22890  -0.692   7.175   0.175
10698POPC   C3A22891  -0.838   7.144   0.042
10698POPC   C4A22892  -0.984   7.114  -0.092
10698POPC   C1B22893  -0.457   7.037   0.249
10698POPC   C2B22894  -0.603   7.006   0.116
10698POPC   C3B22895  -0.749   6.976  -0.018
10698POPC   C4B22896  -0.894   6.945  -0.152
10699POPC   NC322897  12.562  23.274   7.266
10699POPC   PO422898  12.603  23.465   7.222
10699POPC   GL122899  12.644  23.656   7.178
10699POPC   GL222900  12.742  23.635   7.180
10699POPC   C1A22901  12.685  23.847   7.133
10699POPC   D2A22902  12.725  24.037   7.089
10699POPC   C3A22903  12.766  24.228   7.044
10699POPC   C4A22904  12.807  24.419   7.000
10699POPC   C1B22905  12.690  23.891   7.328
10699POPC   C2B22906  12.731  24.082   7.284
10699POPC   C3B22907  12.772  24.272   7.239
10699POPC   C4B22908  12.812  24.463   7.195
10700POPC   NC322909   4.526  17.053  20.610
10700POPC   PO422910   4.447  17.157  20.761
10700POPC   GL122911   4.368  17.261  20.912
10700POPC   GL222912   4.415  17.202  20.978
10700POPC   C1A22913   4.289  17.365  21.064
10700POPC   D2A22914   4.210  17.470  21.215
10700POPC   C3A22915   4.131  17.574  21.367
10700POPC   C4A22916   4.052  17.678  21.518
10700POPC   C1B22917   4.131  17.243  21.065
10700POPC   C2B22918   4.052  17.347  21.217
10700POPC   C3B22919   3.973  17.451  21.368
10700POPC   C4B22920   3.894  17.555  21.520
10701POPC   NC322921   5.193  14.416  -2.346
10701POPC   PO422922   5.124  14.482  -2.522
10701POPC   GL122923   5.055  14.548  -2.698
10701POPC   GL222924   4.979  14.593  -2.651
10701POPC   C1A22925   4.986  14.614  -2.873
10701POPC   D2A22926   4.916  14.679  -3.049
10701POPC   C3A22927   4.847  14.745  -3.224
10701POPC   C4A22928   4.778  14.811  -3.400
10701POPC   C1B22929   4.876  14.447  -2.892
10701POPC   C2B22930   4.807  14.513  -3.068
10701POPC   C3B22931   4.737  14.579  -3.243
10701POPC   C4B22932   4.668  14.645  -3.419
10702POPC   NC322933  16.487   3.231  20.041
10702POPC   PO422934  16.586   3.134  20.185
10702POPC   GL122935  16.685   3.037  20.329
10702POPC   GL222936  16.760   3.019  20.266
10702POPC   C1A22937  16.784   2.940  20.473
10702POPC   D2A22938  16.884   2.844  20.618
10702POPC   C3A22939  16.983   2.747  20.762
10702POPC   C4A22940  17.082   2.650  20.906
10702POPC   C1B22941  16.697   2.769  20.419
10702POPC   C2B22942  16.796   2.672  20.563
10702POPC   C3B22943  16.895   2.576  20.707
10702POPC   C4B22944  16.994   2.479  20.851
10703POPC   NC322945  17.995  -1.141   8.339
10703POPC   PO422946  18.110  -1.303   8.316
10703POPC   GL122947  18.225  -1.465   8.293
10703POPC   GL222948  18.185  -1.480   8.202
10703POPC   C1A22949  18.340  -1.627   8.269
10703POPC   D2A22950  18.456  -1.788   8.246
10703POPC   C3A22951  18.571  -1.950   8.222
10703POPC   C4A22952  18.686  -2.112   8.199
10703POPC   C1B22953  18.198  -1.740   8.351
10703POPC   C2B22954  18.313  -1.902   8.328
10703POPC   C3B22955  18.428  -2.064   8.305
10703POPC   C4B22956  18.543  -2.225   8.281
10704POPC   NC322957  10.101   0.852  -0.496
10704POPC   PO422958  10.109   0.721  -0.647
10704POPC   GL122959  10.117   0.590  -0.798
10704POPC   GL222960  10.209   0.564  -0.771
10704POPC   C1A22961  10.124   0.459  -0.949
10704POPC   D2A22962  10.132   0.328  -1.100
10704POPC   C3A22963  10.139   0.197  -1.251
10704POPC   C4A22964  10.147   0.066  -1.402
10704POPC   C1B22965  10.199   0.601  -1.068
10704POPC   C2B22966  10.207   0.470  -1.219
10704POPC   C3B22967  10.215   0.339  -1.370
10704POPC   C4B22968  10.222   0.208  -1.521
10705POPC   NC322969  -2.793   4.508   9.181
10705POPC   PO422970  -2.977   4.430   9.166
10705POPC   GL122971  -3.161   4.352   9.151
10705POPC   GL222972  -3.125   4.262   9.175
10705POPC   C1A22973  -3.345   4.275   9.136
10705POPC   D2A22974  -3.528   4.197   9.120
10705POPC   C3A22975  -3.712   4.120   9.105
10705POPC   C4A22976  -3.896   4.042   9.090
10705POPC   C1B22977  -3.312   4.236   8.942
10705POPC   C2B22978  -3.496   4.159   8.927
10705POPC   C3B22979  -3.680   4.081   8.912
10705POPC   C4B22980  -3.864   4.004   8.896
10706POPC   NC322981  19.399   0.206  12.220
10706POPC   PO422982  19.539   0.067  12.253
10706POPC   GL122983  19.679  -0.072  12.286
10706POPC   GL222984  19.687  -0.087  12.187
10706POPC   C1A22985  19.819  -0.211  12.319
10706POPC   D2A22986  19.958  -0.351  12.351
10706POPC   C3A22987  20.098  -0.490  12.384
10706POPC   C4A22988  20.238  -0.629  12.417
10706POPC   C1B22989  19.676  -0.352  12.328
10706POPC   C2B22990  19.816  -0.491  12.361
10706POPC   C3B22991  19.956  -0.630  12.394
10706POPC   C4B22992  20.096  -0.769  12.426
10707POPC   NC322993  -0.698   2.282   5.335
10707POPC   PO422994  -0.853   2.170   5.278
10707POPC   GL122995  -1.008   2.058   5.221
10707POPC   GL222996  -0.997   2.001   5.303
10707POPC   C1A22997  -1.164   1.945   5.165
10707POPC   D2A22998  -1.319   1.833   5.108
10707POPC   C3A22999  -1.475   1.720   5.052
10707POPC   C4A23000  -1.630   1.608   4.995
10707POPC   C1B23001  -1.040   1.825   5.064
10707POPC   C2B23002  -1.195   1.712   5.008
10707POPC   C3B23003  -1.351   1.600   4.951
10707POPC   C4B23004  -1.506   1.487   4.894
10708POPC   NC323005  18.288  13.805  -0.384
10708POPC   PO423006  18.406  13.861  -0.535
10708POPC   GL123007  18.524  13.917  -0.686
10708POPC   GL223008  18.465  13.869  -0.751
10708POPC   C1A23009  18.643  13.972  -0.838
10708POPC   D2A23010  18.761  14.028  -0.989
10708POPC   C3A23011  18.880  14.083  -1.141
10708POPC   C4A23012  18.998  14.139  -1.292
10708POPC   C1B23013  18.751  13.805  -0.815
10708POPC   C2B23014  18.869  13.861  -0.966
10708POPC   C3B23015  18.988  13.917  -1.117
10708POPC   C4B23016  19.106  13.972  -1.269
10709POPC   NC323017  18.032  16.800  18.770
10709POPC   PO423018  18.151  16.892  18.902
10709POPC   GL123019  18.270  16.984  19.034
10709POPC   GL223020  18.349  16.936  18.995
10709POPC   C1A23021  18.389  17.076  19.166
10709POPC   D2A23022  18.509  17.168  19.297
10709POPC   C3A23023  18.628  17.260  19.429
10709POPC   C4A23024  18.747  17.352  19.561
10709POPC   C1B23025  18.362  16.926  19.295
10709POPC   C2B23026  18.481  17.018  19.427
10709POPC   C3B23027  18.601  17.110  19.559
10709POPC   C4B23028  18.720  17.202  19.690
10710POPC   NC323029   0.361   2.613   2.956
10710POPC   PO423030   0.229   2.506   2.850
10710POPC   GL123031   0.097   2.399   2.744
10710POPC   GL223032   0.154   2.317   2.757
10710POPC   C1A23033  -0.034   2.292   2.639
10710POPC   D2A23034  -0.166   2.184   2.533
10710POPC   C3A23035  -0.297   2.077   2.428
10710POPC   C4A23036  -0.429   1.970   2.322
10710POPC   C1B23037   0.066   2.334   2.471
10710POPC   C2B23038  -0.066   2.227   2.365
10710POPC   C3B23039  -0.198   2.120   2.260
10710POPC   C4B23040  -0.329   2.013   2.154
10711POPC   NC323041  -0.123  11.046  19.448
10711POPC   PO423042  -0.271  11.057  19.582
10711POPC   GL123043  -0.419  11.068  19.716
10711POPC   GL223044  -0.357  11.035  19.787
10711POPC   C1A23045  -0.567  11.079  19.850
10711POPC   D2A23046  -0.716  11.090  19.984
10711POPC   C3A23047  -0.864  11.101  20.118
10711POPC   C4A23048  -1.012  11.112  20.252
10711POPC   C1B23049  -0.619  10.890  19.808
10711POPC   C2B23050  -0.767  10.901  19.942
10711POPC   C3B23051  -0.915  10.912  20.076
10711POPC   C4B23052  -1.064  10.923  20.210
10712POPC   NC323053   7.629  17.551  21.337
10712POPC   PO423054   7.595  17.665  21.498
10712POPC   GL123055   7.561  17.779  21.659
10712POPC   GL223056   7.653  17.819  21.650
10712POPC   C1A23057   7.528  17.894  21.819
10712POPC   D2A23058   7.494  18.008  21.980
10712POPC   C3A23059   7.461  18.123  22.140
10712POPC   C4A23060   7.427  18.237  22.301
10712POPC   C1B23061   7.601  17.750  21.937
10712POPC   C2B23062   7.568  17.864  22.098
10712POPC   C3B23063   7.534  17.979  22.258
10712POPC   C4B23064   7.501  18.093  22.419
10713POPC   NC323065   9.398  20.122  19.363
10713POPC   PO423066   9.386  20.266  19.501
10713POPC   GL123067   9.374  20.410  19.639
10713POPC   GL223068   9.416  20.349  19.706
10713POPC   C1A23069   9.362  20.554  19.778
10713POPC   D2A23070   9.350  20.697  19.916
10713POPC   C3A23071   9.338  20.841  20.055
10713POPC   C4A23072   9.326  20.985  20.193
10713POPC   C1B23073   9.181  20.487  19.832
10713POPC   C2B23074   9.169  20.630  19.970
10713POPC   C3B23075   9.157  20.774  20.108
10713POPC   C4B23076   9.145  20.918  20.247
10714POPC   NC323077  -2.502  16.247   8.863
10714POPC   PO423078  -2.682  16.332   8.846
10714POPC   GL123079  -2.862  16.417   8.829
10714POPC   GL223080  -2.820  16.499   8.790
10714POPC   C1A23081  -3.043  16.502   8.812
10714POPC   D2A23082  -3.223  16.586   8.795
10714POPC   C3A23083  -3.404  16.671   8.778
10714POPC   C4A23084  -3.584  16.756   8.761
10714POPC   C1B23085  -3.024  16.579   8.995
10714POPC   C2B23086  -3.204  16.664   8.978
10714POPC   C3B23087  -3.384  16.749   8.961
10714POPC   C4B23088  -3.565  16.834   8.944
10715POPC   NC323089  -2.498   3.836   9.272
10715POPC   PO423090  -2.678   3.750   9.258
10715POPC   GL123091  -2.858   3.664   9.244
10715POPC   GL223092  -2.899   3.743   9.288
10715POPC   C1A23093  -3.038   3.577   9.231
10715POPC   D2A23094  -3.217   3.491   9.217
10715POPC   C3A23095  -3.397   3.404   9.204
10715POPC   C4A23096  -3.577   3.318   9.190
10715POPC   C1B23097  -3.011   3.493   9.410
10715POPC   C2B23098  -3.191   3.407   9.397
10715POPC   C3B23099  -3.370   3.320   9.383
10715POPC   C4B23100  -3.550   3.234   9.370
10716POPC   NC323101  14.331   1.480  19.879
10716POPC   PO423102  14.390   1.352  20.021
10716POPC   GL123103  14.449   1.224  20.163
10716POPC   GL223104  14.462   1.153  20.094
10716POPC   C1A23105  14.508   1.097  20.305
10716POPC   D2A23106  14.568   0.969  20.448
10716POPC   C3A23107  14.627   0.842  20.590
10716POPC   C4A23108  14.686   0.714  20.732
10716POPC   C1B23109  14.319   1.037  20.331
10716POPC   C2B23110  14.378   0.909  20.473
10716POPC   C3B23111  14.438   0.782  20.615
10716POPC   C4B23112  14.497   0.654  20.757
10717POPC   NC323113   9.369  11.404  -3.844
10717POPC   PO423114   9.360  11.424  -4.043
10717POPC   GL123115   9.351  11.444  -4.242
10717POPC   GL223116   9.436  11.392  -4.251
10717POPC   C1A23117   9.342  11.463  -4.441
10717POPC   D2A23118   9.333  11.483  -4.639
10717POPC   C3A23119   9.324  11.502  -4.838
10717POPC   C4A23120   9.315  11.522  -5.037
10717POPC   C1B23121   9.446  11.634  -4.428
10717POPC   C2B23122   9.437  11.653  -4.627
10717POPC   C3B23123   9.428  11.673  -4.826
10717POPC   C4B23124   9.419  11.693  -5.025
10718POPC   NC323125  13.597  17.575  -1.047
10718POPC   PO423126  13.647  17.681  -1.209
10718POPC   GL123127  13.697  17.787  -1.371
10718POPC   GL223128  13.692  17.704  -1.427
10718POPC   C1A23129  13.748  17.893  -1.533
10718POPC   D2A23130  13.798  18.000  -1.694
10718POPC   C3A23131  13.849  18.106  -1.856
10718POPC   C4A23132  13.899  18.212  -2.018
10718POPC   C1B23133  13.941  17.857  -1.496
10718POPC   C2B23134  13.991  17.963  -1.658
10718POPC   C3B23135  14.042  18.069  -1.820
10718POPC   C4B23136  14.092  18.176  -1.982
10719POPC   NC323137   8.963  16.997  -2.008
10719POPC   PO423138   8.954  17.098  -2.180
10719POPC   GL123139   8.945  17.199  -2.352
10719POPC   GL223140   9.045  17.195  -2.360
10719POPC   C1A23141   8.936  17.300  -2.524
10719POPC   D2A23142   8.927  17.402  -2.697
10719POPC   C3A23143   8.918  17.503  -2.869
10719POPC   C4A23144   8.909  17.604  -3.041
10719POPC   C1B23145   8.950  17.473  -2.424
10719POPC   C2B23146   8.941  17.574  -2.596
10719POPC   C3B23147   8.932  17.675  -2.768
10719POPC   C4B23148   8.923  17.776  -2.940
10720POPC   NC323149  18.749   7.748  20.326
10720POPC   PO423150  18.880   7.709  20.472
10720POPC   GL123151  19.011   7.670  20.618
10720POPC   GL223152  19.049   7.763  20.608
10720POPC   C1A23153  19.143   7.632  20.764
10720POPC   D2A23154  19.274   7.593  20.909
10720POPC   C3A23155  19.406   7.555  21.055
10720POPC   C4A23156  19.537   7.516  21.201
10720POPC   C1B23157  19.273   7.564  20.628
10720POPC   C2B23158  19.405   7.526  20.774
10720POPC   C3B23159  19.536   7.487  20.920
10720POPC   C4B23160  19.668   7.449  21.065
10721POPC   NC323161  14.130  -2.626  13.708
10721POPC   PO423162  14.193  -2.807  13.764
10721POPC   GL123163  14.256  -2.988  13.820
10721POPC   GL223164  14.335  -2.947  13.866
10721POPC   C1A23165  14.319  -3.170  13.876
10721POPC   D2A23166  14.381  -3.351  13.933
10721POPC   C3A23167  14.444  -3.533  13.989
10721POPC   C4A23168  14.507  -3.714  14.045
10721POPC   C1B23169  14.425  -3.185  13.707
10721POPC   C2B23170  14.487  -3.367  13.764
10721POPC   C3B23171  14.550  -3.548  13.820
10721POPC   C4B23172  14.613  -3.730  13.876
10722POPC   NC323173  18.278  20.971  10.785
10722POPC   PO423174  18.395  21.133  10.794
10722POPC   GL123175  18.512  21.295  10.803
10722POPC   GL223176  18.565  21.261  10.726
10722POPC   C1A23177  18.629  21.457  10.812
10722POPC   D2A23178  18.746  21.619  10.820
10722POPC   C3A23179  18.863  21.781  10.829
10722POPC   C4A23180  18.980  21.943  10.838
10722POPC   C1B23181  18.751  21.362  10.938
10722POPC   C2B23182  18.868  21.524  10.947
10722POPC   C3B23183  18.985  21.686  10.956
10722POPC   C4B23184  19.102  21.848  10.965
10723POPC   NC323185   9.134  -1.956  16.945
10723POPC   PO423186   9.122  -2.127  17.048
10723POPC   GL123187   9.110  -2.298  17.151
10723POPC   GL223188   9.174  -2.341  17.087
10723POPC   C1A23189   9.098  -2.469  17.254
10723POPC   D2A23190   9.086  -2.641  17.356
10723POPC   C3A23191   9.074  -2.812  17.459
10723POPC   C4A23192   9.062  -2.983  17.562
10723POPC   C1B23193   8.945  -2.527  17.139
10723POPC   C2B23194   8.933  -2.699  17.242
10723POPC   C3B23195   8.921  -2.870  17.345
10723POPC   C4B23196   8.909  -3.041  17.447
10724POPC   NC323197   5.650  11.381  22.937
10724POPC   PO423198   5.596  11.399  23.129
10724POPC   GL123199   5.542  11.417  23.321
10724POPC   GL223200   5.558  11.319  23.334
10724POPC   C1A23201   5.488  11.435  23.513
10724POPC   D2A23202   5.435  11.453  23.704
10724POPC   C3A23203   5.381  11.471  23.896
10724POPC   C4A23204   5.327  11.489  24.088
10724POPC   C1B23205   5.298  11.398  23.463
10724POPC   C2B23206   5.245  11.416  23.655
10724POPC   C3B23207   5.191  11.434  23.846
10724POPC   C4B23208   5.137  11.452  24.038
10725POPC   NC323209   2.467  20.523   5.087
10725POPC   PO423210   2.360  20.677   5.018
10725POPC   GL123211   2.253  20.831   4.949
10725POPC   GL223212   2.336  20.887   4.945
10725POPC   C1A23213   2.146  20.985   4.880
10725POPC   D2A23214   2.038  21.139   4.810
10725POPC   C3A23215   1.931  21.293   4.741
10725POPC   C4A23216   1.824  21.447   4.672
10725POPC   C1B23217   2.113  21.047   5.067
10725POPC   C2B23218   2.006  21.201   4.998
10725POPC   C3B23219   1.899  21.355   4.929
10725POPC   C4B23220   1.792  21.509   4.859
10726POPC   NC323221  17.640  10.263  -1.498
10726POPC   PO423222  17.748  10.268  -1.666
10726POPC   GL123223  17.856  10.273  -1.834
10726POPC   GL223224  17.778  10.239  -1.886
10726POPC   C1A23225  17.965  10.278  -2.002
10726POPC   D2A23226  18.073  10.284  -2.170
10726POPC   C3A23227  18.182  10.289  -2.338
10726POPC   C4A23228  18.290  10.294  -2.506
10726POPC   C1B23229  18.025  10.091  -1.969
10726POPC   C2B23230  18.134  10.096  -2.137
10726POPC   C3B23231  18.242  10.101  -2.305
10726POPC   C4B23232  18.350  10.106  -2.473
10727POPC   NC323233  13.924  15.674  -2.014
10727POPC   PO423234  13.978  15.757  -2.188
10727POPC   GL123235  14.032  15.840  -2.362
10727POPC   GL223236  14.072  15.753  -2.391
10727POPC   C1A23237  14.086  15.923  -2.536
10727POPC   D2A23238  14.140  16.005  -2.709
10727POPC   C3A23239  14.194  16.088  -2.883
10727POPC   C4A23240  14.248  16.171  -3.057
10727POPC   C1B23241  14.261  15.976  -2.456
10727POPC   C2B23242  14.315  16.059  -2.630
10727POPC   C3B23243  14.369  16.142  -2.803
10727POPC   C4B23244  14.423  16.224  -2.977
10728POPC   NC323245   1.477  20.364   6.536
10728POPC   PO423246   1.360  20.519   6.488
10728POPC   GL123247   1.243  20.674   6.440
10728POPC   GL223248   1.323  20.731   6.429
10728POPC   C1A23249   1.125  20.828   6.391
10728POPC   D2A23250   1.008  20.983   6.343
10728POPC   C3A23251   0.890  21.137   6.294
10728POPC   C4A23252   0.773  21.292   6.246
10728POPC   C1B23253   1.114  20.880   6.584
10728POPC   C2B23254   0.997  21.035   6.536
10728POPC   C3B23255   0.880  21.190   6.487
10728POPC   C4B23256   0.762  21.344   6.439
10729POPC   NC323257  11.158  21.216   1.924
10729POPC   PO423258  11.171  21.377   1.807
10729POPC   GL123259  11.184  21.538   1.690
10729POPC   GL223260  11.230  21.484   1.620
10729POPC   C1A23261  11.197  21.700   1.572
10729POPC   D2A23262  11.210  21.861   1.455
10729POPC   C3A23263  11.223  22.023   1.337
10729POPC   C4A23264  11.236  22.184   1.220
10729POPC   C1B23265  11.374  21.745   1.653
10729POPC   C2B23266  11.387  21.906   1.536
10729POPC   C3B23267  11.400  22.067   1.419
10729POPC   C4B23268  11.413  22.229   1.301
10730POPC   NC323269  13.872  -3.146  11.852
10730POPC   PO423270  13.932  -3.334  11.882
10730POPC   GL123271  13.992  -3.522  11.912
10730POPC   GL223272  14.057  -3.491  11.981
10730POPC   C1A23273  14.052  -3.711  11.943
10730POPC   D2A23274  14.112  -3.899  11.973
10730POPC   C3A23275  14.172  -4.088  12.004
10730POPC   C4A23276  14.232  -4.276  12.034
10730POPC   C1B23277  14.191  -3.689  11.801
10730POPC   C2B23278  14.251  -3.878  11.831
10730POPC   C3B23279  14.311  -4.066  11.861
10730POPC   C4B23280  14.371  -4.255  11.892
10731POPC   NC323281   1.315   0.052  14.571
10731POPC   PO423282   1.191  -0.090  14.637
10731POPC   GL123283   1.067  -0.232  14.703
10731POPC   GL223284   1.137  -0.301  14.687
10731POPC   C1A23285   0.943  -0.374  14.769
10731POPC   D2A23286   0.819  -0.517  14.836
10731POPC   C3A23287   0.695  -0.659  14.902
10731POPC   C4A23288   0.571  -0.801  14.968
10731POPC   C1B23289   0.874  -0.401  14.584
10731POPC   C2B23290   0.750  -0.543  14.650
10731POPC   C3B23291   0.626  -0.685  14.716
10731POPC   C4B23292   0.502  -0.827  14.782
10732POPC   NC323293   1.977   5.661  -0.589
10732POPC   PO423294   1.863   5.593  -0.739
10732POPC   GL123295   1.749   5.525  -0.889
10732POPC   GL223296   1.669   5.527  -0.829
10732POPC   C1A23297   1.635   5.458  -1.039
10732POPC   D2A23298   1.521   5.390  -1.188
10732POPC   C3A23299   1.407   5.323  -1.338
10732POPC   C4A23300   1.293   5.255  -1.488
10732POPC   C1B23301   1.673   5.270  -0.983
10732POPC   C2B23302   1.559   5.202  -1.133
10732POPC   C3B23303   1.445   5.134  -1.283
10732POPC   C4B23304   1.331   5.067  -1.432
10733POPC   NC323305   6.512  -3.399  11.139
10733POPC   PO423306   6.465  -3.593  11.156
10733POPC   GL123307   6.418  -3.787  11.173
10733POPC   GL223308   6.447  -3.785  11.268
10733POPC   C1A23309   6.371  -3.980  11.190
10733POPC   D2A23310   6.324  -4.174  11.206
10733POPC   C3A23311   6.277  -4.367  11.223
10733POPC   C4A23312   6.230  -4.561  11.240
10733POPC   C1B23313   6.556  -4.030  11.133
10733POPC   C2B23314   6.509  -4.224  11.150
10733POPC   C3B23315   6.462  -4.417  11.167
10733POPC   C4B23316   6.415  -4.611  11.184
10734POPC   NC323317  16.086  21.681  13.979
10734POPC   PO423318  16.179  21.846  14.045
10734POPC   GL123319  16.272  22.011  14.111
10734POPC   GL223320  16.319  22.019  14.023
10734POPC   C1A23321  16.364  22.176  14.176
10734POPC   D2A23322  16.457  22.340  14.242
10734POPC   C3A23323  16.549  22.505  14.307
10734POPC   C4A23324  16.642  22.670  14.373
10734POPC   C1B23325  16.514  22.063  14.246
10734POPC   C2B23326  16.607  22.228  14.312
10734POPC   C3B23327  16.699  22.393  14.378
10734POPC   C4B23328  16.792  22.558  14.443
10735POPC   NC323329   6.931  14.046  -3.019
10735POPC   PO423330   6.889  14.106  -3.205
10735POPC   GL123331   6.847  14.166  -3.391
10735POPC   GL223332   6.920  14.234  -3.386
10735POPC   C1A23333   6.805  14.226  -3.577
10735POPC   D2A23334   6.762  14.286  -3.763
10735POPC   C3A23335   6.720  14.346  -3.949
10735POPC   C4A23336   6.678  14.406  -4.135
10735POPC   C1B23337   6.676  14.361  -3.504
10735POPC   C2B23338   6.634  14.421  -3.690
10735POPC   C3B23339   6.591  14.481  -3.876
10735POPC   C4B23340   6.549  14.541  -4.062
10736POPC   NC323341  20.028   9.476  19.326
10736POPC   PO423342  20.176   9.468  19.461
10736POPC   GL123343  20.324   9.460  19.596
10736POPC   GL223344  20.379   9.520  19.538
10736POPC   C1A23345  20.472   9.452  19.730
10736POPC   D2A23346  20.619   9.443  19.865
10736POPC   C3A23347  20.767   9.435  19.999
10736POPC   C4A23348  20.915   9.427  20.134
10736POPC   C1B23349  20.548   9.292  19.637
10736POPC   C2B23350  20.695   9.283  19.772
10736POPC   C3B23351  20.843   9.275  19.906
10736POPC   C4B23352  20.991   9.267  20.041
10737POPC   NC323353  15.092  18.090  -0.072
10737POPC   PO423354  15.170  18.203  -0.218
10737POPC   GL123355  15.248  18.316  -0.364
10737POPC   GL223356  15.329  18.257  -0.366
10737POPC   C1A23357  15.326  18.429  -0.509
10737POPC   D2A23358  15.403  18.541  -0.655
10737POPC   C3A23359  15.481  18.654  -0.800
10737POPC   C4A23360  15.559  18.767  -0.946
10737POPC   C1B23361  15.415  18.544  -0.372
10737POPC   C2B23362  15.492  18.657  -0.518
10737POPC   C3B23363  15.570  18.770  -0.663
10737POPC   C4B23364  15.648  18.883  -0.809
10738POPC   NC323365  13.153  23.072  12.995
10738POPC   PO423366  13.198  23.262  13.039
10738POPC   GL123367  13.243  23.452  13.083
10738POPC   GL223368  13.253  23.472  12.986
10738POPC   C1A23369  13.288  23.642  13.128
10738POPC   D2A23370  13.333  23.831  13.172
10738POPC   C3A23371  13.378  24.021  13.217
10738POPC   C4A23372  13.423  24.211  13.261
10738POPC   C1B23373  13.482  23.593  13.138
10738POPC   C2B23374  13.527  23.783  13.183
10738POPC   C3B23375  13.572  23.973  13.227
10738POPC   C4B23376  13.617  24.163  13.271
10739POPC   NC323377  15.106  -0.044  17.927
10739POPC   PO423378  15.179  -0.187  18.046
10739POPC   GL123379  15.252  -0.330  18.165
10739POPC   GL223380  15.242  -0.397  18.091
10739POPC   C1A23381  15.325  -0.473  18.284
10739POPC   D2A23382  15.398  -0.616  18.404
10739POPC   C3A23383  15.471  -0.759  18.523
10739POPC   C4A23384  15.544  -0.902  18.642
10739POPC   C1B23385  15.140  -0.515  18.347
10739POPC   C2B23386  15.213  -0.658  18.467
10739POPC   C3B23387  15.286  -0.801  18.586
10739POPC   C4B23388  15.359  -0.944  18.705
10740POPC   NC323389  14.833  12.576  22.671
10740POPC   PO423390  14.903  12.615  22.854
10740POPC   GL123391  14.973  12.654  23.037
10740POPC   GL223392  15.014  12.738  23.004
10740POPC   C1A23393  15.043  12.692  23.220
10740POPC   D2A23394  15.114  12.731  23.404
10740POPC   C3A23395  15.184  12.769  23.587
10740POPC   C4A23396  15.254  12.808  23.770
10740POPC   C1B23397  15.212  12.593  23.177
10740POPC   C2B23398  15.282  12.632  23.360
10740POPC   C3B23399  15.352  12.670  23.543
10740POPC   C4B23400  15.422  12.709  23.726
10741POPC   NC323401  10.729  -3.762  11.115
10741POPC   PO423402  10.739  -3.961  11.132
10741POPC   GL123403  10.749  -4.160  11.149
10741POPC   GL223404  10.826  -4.162  11.086
10741POPC   C1A23405  10.758  -4.359  11.166
10741POPC   D2A23406  10.768  -4.558  11.183
10741POPC   C3A23407  10.777  -4.757  11.200
10741POPC   C4A23408  10.787  -4.956  11.217
10741POPC   C1B23409  10.633  -4.378  11.011
10741POPC   C2B23410  10.642  -4.577  11.028
10741POPC   C3B23411  10.652  -4.776  11.045
10741POPC   C4B23412  10.662  -4.975  11.062
10742POPC   NC323413  21.694  12.354  16.815
10742POPC   PO423414  21.867  12.388  16.910
10742POPC   GL123415  22.040  12.422  17.005
10742POPC   GL223416  22.055  12.323  17.012
10742POPC   C1A23417  22.212  12.456  17.100
10742POPC   D2A23418  22.385  12.489  17.195
10742POPC   C3A23419  22.557  12.523  17.290
10742POPC   C4A23420  22.730  12.557  17.385
10742POPC   C1B23421  22.116  12.454  17.275
10742POPC   C2B23422  22.289  12.487  17.370
10742POPC   C3B23423  22.461  12.521  17.465
10742POPC   C4B23424  22.634  12.555  17.560
10743POPC   NC323425  22.368   5.199  13.508
10743POPC   PO423426  22.550   5.133  13.558
10743POPC   GL123427  22.732   5.067  13.608
10743POPC   GL223428  22.773   5.140  13.553
10743POPC   C1A23429  22.914   5.001  13.657
10743POPC   D2A23430  23.097   4.936  13.707
10743POPC   C3A23431  23.279   4.870  13.756
10743POPC   C4A23432  23.461   4.804  13.806
10743POPC   C1B23433  22.915   4.882  13.497
10743POPC   C2B23434  23.097   4.816  13.547
10743POPC   C3B23435  23.279   4.750  13.596
10743POPC   C4B23436  23.461   4.684  13.646
10744POPC   NC323437  -3.480  12.939   7.898
10744POPC   PO423438  -3.672  12.980   7.862
10744POPC   GL123439  -3.864  13.021   7.826
10744POPC   GL223440  -3.875  13.056   7.919
10744POPC   C1A23441  -4.057  13.062   7.789
10744POPC   D2A23442  -4.249  13.103   7.753
10744POPC   C3A23443  -4.442  13.144   7.716
10744POPC   C4A23444  -4.634  13.185   7.680
10744POPC   C1B23445  -4.108  12.879   7.852
10744POPC   C2B23446  -4.300  12.920   7.815
10744POPC   C3B23447  -4.492  12.961   7.779
10744POPC   C4B23448  -4.685  13.002   7.742
10745POPC   NC323449  11.249   1.937  -1.224
10745POPC   PO423450  11.271   1.822  -1.386
10745POPC   GL123451  11.293   1.707  -1.548
10745POPC   GL223452  11.377   1.756  -1.571
10745POPC   C1A23453  11.316   1.593  -1.711
10745POPC   D2A23454  11.338   1.478  -1.873
10745POPC   C3A23455  11.361   1.364  -2.036
10745POPC   C4A23456  11.383   1.249  -2.198
10745POPC   C1B23457  11.210   1.724  -1.818
10745POPC   C2B23458  11.232   1.610  -1.980
10745POPC   C3B23459  11.255   1.495  -2.143
10745POPC   C4B23460  11.277   1.381  -2.305
10746POPC   NC323461  -1.585   2.869  13.069
10746POPC   PO423462  -1.752   2.769  13.117
10746POPC   GL123463  -1.919   2.669  13.165
10746POPC   GL223464  -1.948   2.745  13.222
10746POPC   C1A23465  -2.085   2.569  13.212
10746POPC   D2A23466  -2.252   2.469  13.260
10746POPC   C3A23467  -2.418   2.369  13.307
10746POPC   C4A23468  -2.585   2.269  13.355
10746POPC   C1B23469  -1.991   2.487  13.368
10746POPC   C2B23470  -2.158   2.387  13.416
10746POPC   C3B23471  -2.324   2.287  13.464
10746POPC   C4B23472  -2.491   2.187  13.511
10747POPC   NC323473  23.270   6.511   9.560
10747POPC   PO423474  23.465   6.469   9.553
10747POPC   GL123475  23.660   6.427   9.546
10747POPC   GL223476  23.655   6.418   9.447
10747POPC   C1A23477  23.856   6.385   9.540
10747POPC   D2A23478  24.051   6.344   9.533
10747POPC   C3A23479  24.247   6.302   9.527
10747POPC   C4A23480  24.442   6.260   9.520
10747POPC   C1B23481  23.815   6.191   9.560
10747POPC   C2B23482  24.010   6.149   9.554
10747POPC   C3B23483  24.206   6.107   9.547
10747POPC   C4B23484  24.401   6.065   9.540
10748POPC   NC323485   0.067  11.562  19.589
10748POPC   PO423486  -0.076  11.584  19.727
10748POPC   GL123487  -0.219  11.606  19.865
10748POPC   GL223488  -0.178  11.532  19.919
10748POPC   C1A23489  -0.362  11.628  20.003
10748POPC   D2A23490  -0.505  11.649  20.141
10748POPC   C3A23491  -0.648  11.671  20.279
10748POPC   C4A23492  -0.791  11.693  20.417
10748POPC   C1B23493  -0.475  11.494  19.907
10748POPC   C2B23494  -0.618  11.516  20.045
10748POPC   C3B23495  -0.761  11.537  20.183
10748POPC   C4B23496  -0.904  11.559  20.321
10749POPC   NC323497  -0.619   5.104   2.186
10749POPC   PO423498  -0.765   5.036   2.068
10749POPC   GL123499  -0.911   4.968   1.950
10749POPC   GL223500  -0.942   4.907   2.023
10749POPC   C1A23501  -1.057   4.899   1.832
10749POPC   D2A23502  -1.204   4.831   1.714
10749POPC   C3A23503  -1.350   4.762   1.596
10749POPC   C4A23504  -1.496   4.694   1.478
10749POPC   C1B23505  -0.936   4.755   1.765
10749POPC   C2B23506  -1.082   4.687   1.647
10749POPC   C3B23507  -1.228   4.619   1.529
10749POPC   C4B23508  -1.374   4.550   1.411
10750POPC   NC323509  20.800   1.859  12.384
10750POPC   PO423510  20.955   1.739  12.423
10750POPC   GL123511  21.110   1.619  12.462
10750POPC   GL223512  21.098   1.574  12.374
10750POPC   C1A23513  21.265   1.499  12.501
10750POPC   D2A23514  21.421   1.380  12.541
10750POPC   C3A23515  21.576   1.260  12.580
10750POPC   C4A23516  21.731   1.140  12.619
10750POPC   C1B23517  21.142   1.367  12.586
10750POPC   C2B23518  21.297   1.247  12.625
10750POPC   C3B23519  21.452   1.127  12.664
10750POPC   C4B23520  21.607   1.007  12.704
10751POPC   NC323521   8.145   5.702  -3.095
10751POPC   PO423522   8.127   5.642  -3.285
10751POPC   GL123523   8.109   5.582  -3.475
10751POPC   GL223524   8.185   5.642  -3.501
10751POPC   C1A23525   8.091   5.522  -3.665
10751POPC   D2A23526   8.074   5.462  -3.855
10751POPC   C3A23527   8.056   5.402  -4.045
10751POPC   C4A23528   8.038   5.342  -4.235
10751POPC   C1B23529   7.961   5.670  -3.700
10751POPC   C2B23530   7.944   5.610  -3.890
10751POPC   C3B23531   7.926   5.550  -4.080
10751POPC   C4B23532   7.908   5.490  -4.270
10752POPC   NC323533   4.423  -0.602   2.802
10752POPC   PO423534   4.342  -0.748   2.692
10752POPC   GL123535   4.261  -0.894   2.582
10752POPC   GL223536   4.350  -0.913   2.541
10752POPC   C1A23537   4.180  -1.041   2.472
10752POPC   D2A23538   4.100  -1.187   2.363
10752POPC   C3A23539   4.019  -1.334   2.253
10752POPC   C4A23540   3.938  -1.480   2.143
10752POPC   C1B23541   4.141  -0.910   2.327
10752POPC   C2B23542   4.060  -1.056   2.217
10752POPC   C3B23543   3.980  -1.203   2.107
10752POPC   C4B23544   3.899  -1.349   1.997
10753POPC   NC323545  21.456   6.468   3.122
10753POPC   PO423546  21.623   6.420   3.023
10753POPC   GL123547  21.790   6.372   2.924
10753POPC   GL223548  21.777   6.450   2.864
10753POPC   C1A23549  21.957   6.323   2.825
10753POPC   D2A23550  22.123   6.275   2.726
10753POPC   C3A23551  22.290   6.226   2.627
10753POPC   C4A23552  22.457   6.178   2.528
10753POPC   C1B23553  21.849   6.210   2.699
10753POPC   C2B23554  22.016   6.162   2.600
10753POPC   C3B23555  22.183   6.114   2.501
10753POPC   C4B23556  22.350   6.065   2.402
10754POPC   NC323557  20.681  18.545  11.120
10754POPC   PO423558  20.837  18.668  11.143
10754POPC   GL123559  20.993  18.791  11.166
10754POPC   GL223560  20.952  18.855  11.102
10754POPC   C1A23561  21.149  18.913  11.189
10754POPC   D2A23562  21.306  19.036  11.212
10754POPC   C3A23563  21.462  19.158  11.235
10754POPC   C4A23564  21.618  19.281  11.258
10754POPC   C1B23565  21.243  18.823  11.037
10754POPC   C2B23566  21.399  18.945  11.060
10754POPC   C3B23567  21.555  19.068  11.083
10754POPC   C4B23568  21.712  19.190  11.106
10755POPC   NC323569  14.948  -2.882   9.505
10755POPC   PO423570  15.023  -3.067   9.496
10755POPC   GL123571  15.098  -3.252   9.487
10755POPC   GL223572  15.189  -3.215   9.472
10755POPC   C1A23573  15.173  -3.437   9.478
10755POPC   D2A23574  15.247  -3.623   9.468
10755POPC   C3A23575  15.322  -3.808   9.459
10755POPC   C4A23576  15.397  -3.993   9.450
10755POPC   C1B23577  15.141  -3.440   9.280
10755POPC   C2B23578  15.216  -3.626   9.271
10755POPC   C3B23579  15.291  -3.811   9.262
10755POPC   C4B23580  15.366  -3.996   9.252
10756POPC   NC323581  23.104  11.919  13.356
10756POPC   PO423582  23.295  11.949  13.408
10756POPC   GL123583  23.486  11.979  13.460
10756POPC   GL223584  23.491  12.057  13.397
10756POPC   C1A23585  23.677  12.009  13.512
10756POPC   D2A23586  23.867  12.038  13.564
10756POPC   C3A23587  24.058  12.068  13.616
10756POPC   C4A23588  24.249  12.098  13.668
10756POPC   C1B23589  23.736  11.886  13.365
10756POPC   C2B23590  23.926  11.916  13.417
10756POPC   C3B23591  24.117  11.946  13.469
10756POPC   C4B23592  24.308  11.976  13.521
10757POPC   NC323593   5.345  23.076   8.683
10757POPC   PO423594   5.277  23.263   8.666
10757POPC   GL123595   5.209  23.450   8.649
10757POPC   GL223596   5.199  23.456   8.748
10757POPC   C1A23597   5.140  23.637   8.632
10757POPC   D2A23598   5.072  23.825   8.614
10757POPC   C3A23599   5.003  24.012   8.597
10757POPC   C4A23600   4.935  24.199   8.580
10757POPC   C1B23601   4.953  23.568   8.618
10757POPC   C2B23602   4.885  23.755   8.600
10757POPC   C3B23603   4.816  23.942   8.583
10757POPC   C4B23604   4.748  24.129   8.566
10758POPC   NC323605  11.465  -2.133  16.552
10758POPC   PO423606  11.487  -2.304  16.653
10758POPC   GL123607  11.509  -2.475  16.754
10758POPC   GL223608  11.554  -2.426  16.828
10758POPC   C1A23609  11.531  -2.647  16.854
10758POPC   D2A23610  11.553  -2.818  16.955
10758POPC   C3A23611  11.575  -2.990  17.055
10758POPC   C4A23612  11.597  -3.161  17.156
10758POPC   C1B23613  11.708  -2.676  16.765
10758POPC   C2B23614  11.730  -2.848  16.866
10758POPC   C3B23615  11.752  -3.019  16.967
10758POPC   C4B23616  11.774  -3.190  17.067
10759POPC   NC323617  15.361   9.867  -2.742
10759POPC   PO423618  15.444   9.863  -2.924
10759POPC   GL123619  15.527   9.859  -3.106
10759POPC   GL223620  15.441   9.892  -3.146
10759POPC   C1A23621  15.610   9.855  -3.288
10759POPC   D2A23622  15.692   9.850  -3.470
10759POPC   C3A23623  15.775   9.846  -3.652
10759POPC   C4A23624  15.858   9.842  -3.834
10759POPC   C1B23625  15.547   9.666  -3.312
10759POPC   C2B23626  15.630   9.662  -3.494
10759POPC   C3B23627  15.713   9.658  -3.676
10759POPC   C4B23628  15.796   9.653  -3.858
10760POPC   NC323629   2.944  10.389  22.007
10760POPC   PO423630   2.846  10.405  22.180
10760POPC   GL123631   2.748  10.421  22.353
10760POPC   GL223632   2.787  10.511  22.368
10760POPC   C1A23633   2.649  10.436  22.527
10760POPC   D2A23634   2.551  10.452  22.700
10760POPC   C3A23635   2.452  10.467  22.874
10760POPC   C4A23636   2.354  10.483  23.047
10760POPC   C1B23637   2.804  10.353  22.622
10760POPC   C2B23638   2.706  10.369  22.796
10760POPC   C3B23639   2.607  10.384  22.969
10760POPC   C4B23640   2.509  10.400  23.142
10761POPC   NC323641  13.254   9.032  -3.505
10761POPC   PO423642  13.311   9.016  -3.696
10761POPC   GL123643  13.368   9.000  -3.887
10761POPC   GL223644  13.396   9.096  -3.887
10761POPC   C1A23645  13.426   8.984  -4.078
10761POPC   D2A23646  13.483   8.967  -4.269
10761POPC   C3A23647  13.541   8.951  -4.460
10761POPC   C4A23648  13.598   8.935  -4.651
10761POPC   C1B23649  13.242   9.035  -4.138
10761POPC   C2B23650  13.299   9.019  -4.329
10761POPC   C3B23651  13.357   9.003  -4.520
10761POPC   C4B23652  13.414   8.987  -4.711
10762POPC   NC323653  12.371  -1.497  17.267
10762POPC   PO423654  12.405  -1.655  17.385
10762POPC   GL123655  12.439  -1.813  17.503
10762POPC   GL223656  12.532  -1.780  17.520
10762POPC   C1A23657  12.473  -1.971  17.621
10762POPC   D2A23658  12.507  -2.129  17.738
10762POPC   C3A23659  12.541  -2.287  17.856
10762POPC   C4A23660  12.575  -2.445  17.974
10762POPC   C1B23661  12.539  -2.074  17.463
10762POPC   C2B23662  12.573  -2.232  17.581
10762POPC   C3B23663  12.607  -2.390  17.698
10762POPC   C4B23664  12.641  -2.548  17.816
10763POPC   NC323665   2.399   0.348  16.552
10763POPC   PO423666   2.292   0.208  16.647
10763POPC   GL123667   2.185   0.068  16.742
10763POPC   GL223668   2.228   0.095  16.829
10763POPC   C1A23669   2.079  -0.072  16.838
10763POPC   D2A23670   1.972  -0.211  16.933
10763POPC   C3A23671   1.866  -0.351  17.029
10763POPC   C4A23672   1.759  -0.491  17.124
10763POPC   C1B23673   2.225  -0.204  16.807
10763POPC   C2B23674   2.119  -0.344  16.903
10763POPC   C3B23675   2.012  -0.484  16.998
10763POPC   C4B23676   1.906  -0.624  17.093
10764POPC   NC323677  -3.540   6.962   7.942
10764POPC   PO423678  -3.731   6.908   7.918
10764POPC   GL123679  -3.922   6.854   7.894
10764POPC   GL223680  -3.947   6.905   7.976
10764POPC   C1A23681  -4.113   6.800   7.870
10764POPC   D2A23682  -4.304   6.746   7.846
10764POPC   C3A23683  -4.495   6.692   7.822
10764POPC   C4A23684  -4.686   6.638   7.798
10764POPC   C1B23685  -4.081   6.637   7.981
10764POPC   C2B23686  -4.272   6.583   7.957
10764POPC   C3B23687  -4.463   6.529   7.933
10764POPC   C4B23688  -4.654   6.475   7.909
10765POPC   NC323689  14.968  11.415  -2.871
10765POPC   PO423690  15.046  11.431  -3.055
10765POPC   GL123691  15.124  11.447  -3.239
10765POPC   GL223692  15.062  11.375  -3.271
10765POPC   C1A23693  15.201  11.463  -3.422
10765POPC   D2A23694  15.279  11.479  -3.606
10765POPC   C3A23695  15.356  11.495  -3.789
10765POPC   C4A23696  15.434  11.511  -3.973
10765POPC   C1B23697  15.339  11.325  -3.376
10765POPC   C2B23698  15.416  11.341  -3.560
10765POPC   C3B23699  15.494  11.357  -3.743
10765POPC   C4B23700  15.571  11.373  -3.927
10766POPC   NC323701   9.872  -0.365   0.713
10766POPC   PO423702   9.870  -0.516   0.581
10766POPC   GL123703   9.868  -0.667   0.449
10766POPC   GL223704   9.967  -0.676   0.459
10766POPC   C1A23705   9.866  -0.817   0.318
10766POPC   D2A23706   9.865  -0.968   0.186
10766POPC   C3A23707   9.863  -1.118   0.055
10766POPC   C4A23708   9.861  -1.269  -0.077
10766POPC   C1B23709   9.892  -0.687   0.168
10766POPC   C2B23710   9.890  -0.837   0.037
10766POPC   C3B23711   9.888  -0.988  -0.095
10766POPC   C4B23712   9.887  -1.139  -0.227
10767POPC   NC323713  -1.723   8.403  17.385
10767POPC   PO423714  -1.889   8.387  17.495
10767POPC   GL123715  -2.055   8.371  17.605
10767POPC   GL223716  -2.014   8.429  17.675
10767POPC   C1A23717  -2.222   8.355  17.715
10767POPC   D2A23718  -2.388   8.339  17.824
10767POPC   C3A23719  -2.555   8.323  17.934
10767POPC   C4A23720  -2.721   8.307  18.044
10767POPC   C1B23721  -2.147   8.192  17.804
10767POPC   C2B23722  -2.314   8.176  17.914
10767POPC   C3B23723  -2.480   8.160  18.024
10767POPC   C4B23724  -2.646   8.144  18.133
10768POPC   NC323725   8.062   1.633  20.877
10768POPC   PO423726   8.040   1.515  21.037
10768POPC   GL123727   8.018   1.397  21.197
10768POPC   GL223728   8.117   1.396  21.210
10768POPC   C1A23729   7.995   1.280  21.357
10768POPC   D2A23730   7.973   1.162  21.518
10768POPC   C3A23731   7.950   1.045  21.678
10768POPC   C4A23732   7.928   0.927  21.838
10768POPC   C1B23733   8.009   1.118  21.241
10768POPC   C2B23734   7.987   1.000  21.401
10768POPC   C3B23735   7.964   0.883  21.561
10768POPC   C4B23736   7.942   0.765  21.721
10769POPC   NC323737  14.467  20.446   2.071
10769POPC   PO423738  14.540  20.597   1.963
10769POPC   GL123739  14.613  20.748   1.855
10769POPC   GL223740  14.568  20.712   1.773
10769POPC   C1A23741  14.686  20.900   1.747
10769POPC   D2A23742  14.760  21.051   1.638
10769POPC   C3A23743  14.833  21.203   1.530
10769POPC   C4A23744  14.906  21.354   1.422
10769POPC   C1B23745  14.849  20.791   1.704
10769POPC   C2B23746  14.922  20.942   1.596
10769POPC   C3B23747  14.995  21.094   1.488
10769POPC   C4B23748  15.068  21.245   1.380
10770POPC   NC323749  23.579   8.767   9.561
10770POPC   PO423750  23.778   8.753   9.556
10770POPC   GL123751  23.977   8.739   9.551
10770POPC   GL223752  23.982   8.819   9.492
10770POPC   C1A23753  24.177   8.725   9.547
10770POPC   D2A23754  24.376   8.710   9.542
10770POPC   C3A23755  24.576   8.696   9.538
10770POPC   C4A23756  24.775   8.682   9.533
10770POPC   C1B23757  24.165   8.605   9.387
10770POPC   C2B23758  24.364   8.591   9.382
10770POPC   C3B23759  24.563   8.577   9.378
10770POPC   C4B23760  24.763   8.563   9.373
10771POPC   NC323761  21.572   5.330  15.717
10771POPC   PO423762  21.742   5.272  15.804
10771POPC   GL123763  21.912   5.214  15.891
10771POPC   GL223764  21.940   5.309  15.901
10771POPC   C1A23765  22.082   5.156  15.979
10771POPC   D2A23766  22.253   5.097  16.066
10771POPC   C3A23767  22.423   5.039  16.154
10771POPC   C4A23768  22.593   4.981  16.241
10771POPC   C1B23769  22.171   5.147  15.800
10771POPC   C2B23770  22.341   5.088  15.887
10771POPC   C3B23771  22.512   5.030  15.975
10771POPC   C4B23772  22.682   4.972  16.062
10772POPC   NC323773  15.459   5.535  -1.905
10772POPC   PO423774  15.541   5.477  -2.078
10772POPC   GL123775  15.623   5.419  -2.251
10772POPC   GL223776  15.699   5.484  -2.237
10772POPC   C1A23777  15.705   5.362  -2.424
10772POPC   D2A23778  15.788   5.304  -2.597
10772POPC   C3A23779  15.870   5.247  -2.770
10772POPC   C4A23780  15.952   5.189  -2.943
10772POPC   C1B23781  15.603   5.504  -2.520
10772POPC   C2B23782  15.685   5.446  -2.693
10772POPC   C3B23783  15.767   5.389  -2.866
10772POPC   C4B23784  15.849   5.331  -3.039
10773POPC   NC323785  11.271  19.561  19.819
10773POPC   PO423786  11.296  19.701  19.960
10773POPC   GL123787  11.321  19.841  20.101
10773POPC   GL223788  11.418  19.819  20.105
10773POPC   C1A23789  11.346  19.981  20.242
10773POPC   D2A23790  11.370  20.120  20.382
10773POPC   C3A23791  11.395  20.260  20.523
10773POPC   C4A23792  11.420  20.400  20.664
10773POPC   C1B23793  11.310  19.844  20.383
10773POPC   C2B23794  11.335  19.984  20.524
10773POPC   C3B23795  11.359  20.124  20.665
10773POPC   C4B23796  11.384  20.264  20.806
10774POPC   NC323797  23.617   9.582  10.405
10774POPC   PO423798  23.817   9.577  10.411
10774POPC   GL123799  24.017   9.572  10.417
10774POPC   GL223800  24.021   9.636  10.340
10774POPC   C1A23801  24.217   9.567  10.422
10774POPC   D2A23802  24.416   9.562  10.428
10774POPC   C3A23803  24.616   9.557  10.433
10774POPC   C4A23804  24.816   9.552  10.439
10774POPC   C1B23805  24.216   9.414  10.294
10774POPC   C2B23806  24.416   9.409  10.299
10774POPC   C3B23807  24.616   9.404  10.305
10774POPC   C4B23808  24.816   9.399  10.310
10775POPC   NC323809  -2.014   3.722  13.233
10775POPC   PO423810  -2.187   3.633  13.281
10775POPC   GL123811  -2.360   3.544  13.329
10775POPC   GL223812  -2.371   3.608  13.405
10775POPC   C1A23813  -2.532   3.455  13.377
10775POPC   D2A23814  -2.705   3.366  13.425
10775POPC   C3A23815  -2.877   3.277  13.473
10775POPC   C4A23816  -3.050   3.188  13.521
10775POPC   C1B23817  -2.434   3.329  13.497
10775POPC   C2B23818  -2.606   3.240  13.545
10775POPC   C3B23819  -2.779   3.151  13.593
10775POPC   C4B23820  -2.951   3.062  13.641
10776POPC   NC323821  -3.479   6.347   9.583
10776POPC   PO423822  -3.671   6.290   9.576
10776POPC   GL123823  -3.863   6.233   9.569
10776POPC   GL223824  -3.839   6.147   9.615
10776POPC   C1A23825  -4.054   6.176   9.563
10776POPC   D2A23826  -4.246   6.119   9.556
10776POPC   C3A23827  -4.437   6.062   9.550
10776POPC   C4A23828  -4.629   6.005   9.543
10776POPC   C1B23829  -4.022   6.090   9.385
10776POPC   C2B23830  -4.214   6.033   9.379
10776POPC   C3B23831  -4.406   5.976   9.372
10776POPC   C4B23832  -4.597   5.919   9.365
10777POPC   NC323833  12.251   0.763  19.850
10777POPC   PO423834  12.281   0.625  19.992
10777POPC   GL123835  12.311   0.487  20.134
10777POPC   GL223836  12.409   0.488  20.113
10777POPC   C1A23837  12.342   0.349  20.276
10777POPC   D2A23838  12.372   0.212  20.417
10777POPC   C3A23839  12.403   0.074  20.559
10777POPC   C4A23840  12.433  -0.064  20.701
10777POPC   C1B23841  12.315   0.204  20.141
10777POPC   C2B23842  12.345   0.067  20.282
10777POPC   C3B23843  12.375  -0.071  20.424
10777POPC   C4B23844  12.406  -0.209  20.566
10778POPC   NC323845  22.878  13.830   7.023
10778POPC   PO423846  23.064  13.892   6.986
10778POPC   GL123847  23.250  13.954   6.949
10778POPC   GL223848  23.226  13.970   6.853
10778POPC   C1A23849  23.437  14.017   6.912
10778POPC   D2A23850  23.623  14.079   6.874
10778POPC   C3A23851  23.810  14.142   6.837
10778POPC   C4A23852  23.996  14.204   6.800
10778POPC   C1B23853  23.491  13.829   6.868
10778POPC   C2B23854  23.677  13.892   6.830
10778POPC   C3B23855  23.864  13.954   6.793
10778POPC   C4B23856  24.050  14.017   6.756
10779POPC   NC323857  22.387   4.083   9.438
10779POPC   PO423858  22.566   3.994   9.426
10779POPC   GL123859  22.745   3.905   9.414
10779POPC   GL223860  22.776   3.976   9.351
10779POPC   C1A23861  22.924   3.816   9.402
10779POPC   D2A23862  23.102   3.728   9.389
10779POPC   C3A23863  23.281   3.639   9.377
10779POPC   C4A23864  23.460   3.550   9.365
10779POPC   C1B23865  22.859   3.708   9.247
10779POPC   C2B23866  23.038   3.619   9.235
10779POPC   C3B23867  23.217   3.530   9.222
10779POPC   C4B23868  23.395   3.441   9.210
10780POPC   NC323869  -1.310   7.185  17.701
10780POPC   PO423870  -1.468   7.150  17.819
10780POPC   GL123871  -1.626   7.115  17.937
10780POPC   GL223872  -1.582   7.166  18.011
10780POPC   C1A23873  -1.784   7.080  18.055
10780POPC   D2A23874  -1.941   7.046  18.172
10780POPC   C3A23875  -2.099   7.011  18.290
10780POPC   C4A23876  -2.257   6.976  18.408
10780POPC   C1B23877  -1.698   6.911  18.119
10780POPC   C2B23878  -1.856   6.876  18.237
10780POPC   C3B23879  -2.014   6.842  18.354
10780POPC   C4B23880  -2.172   6.807  18.472
10781POPC   NC323881   0.551  20.199   9.394
10781POPC   PO423882   0.422  20.351   9.382
10781POPC   GL123883   0.293  20.503   9.370
10781POPC   GL223884   0.350  20.556   9.433
10781POPC   C1A23885   0.164  20.655   9.358
10781POPC   D2A23886   0.034  20.808   9.345
10781POPC   C3A23887  -0.095  20.960   9.333
10781POPC   C4A23888  -0.224  21.112   9.321
10781POPC   C1B23889   0.061  20.581   9.512
10781POPC   C2B23890  -0.068  20.733   9.500
10781POPC   C3B23891  -0.197  20.885   9.488
10781POPC   C4B23892  -0.326  21.037   9.476
10782POPC   NC323893  11.348  23.509  12.405
10782POPC   PO423894  11.370  23.704  12.442
10782POPC   GL123895  11.392  23.899  12.479
10782POPC   GL223896  11.471  23.902  12.419
10782POPC   C1A23897  11.413  24.095  12.516
10782POPC   D2A23898  11.435  24.290  12.553
10782POPC   C3A23899  11.456  24.486  12.590
10782POPC   C4A23900  11.478  24.681  12.627
10782POPC   C1B23901  11.532  24.052  12.671
10782POPC   C2B23902  11.554  24.248  12.708
10782POPC   C3B23903  11.575  24.443  12.745
10782POPC   C4B23904  11.597  24.638  12.782
10783POPC   NC323905  12.228  20.419   1.059
10783POPC   PO423906  12.252  20.569   0.929
10783POPC   GL123907  12.276  20.719   0.799
10783POPC   GL223908  12.326  20.658   0.738
10783POPC   C1A23909  12.300  20.870   0.670
10783POPC   D2A23910  12.325  21.020   0.540
10783POPC   C3A23911  12.349  21.171   0.411
10783POPC   C4A23912  12.373  21.321   0.281
10783POPC   C1B23913  12.473  20.919   0.759
10783POPC   C2B23914  12.497  21.069   0.629
10783POPC   C3B23915  12.521  21.220   0.500
10783POPC   C4B23916  12.545  21.370   0.370
10784POPC   NC323917   9.472  23.791  10.719
10784POPC   PO423918   9.469  23.991  10.729
10784POPC   GL123919   9.466  24.191  10.739
10784POPC   GL223920   9.558  24.194  10.702
10784POPC   C1A23921   9.462  24.391  10.749
10784POPC   D2A23922   9.459  24.590  10.759
10784POPC   C3A23923   9.455  24.790  10.769
10784POPC   C4A23924   9.452  24.990  10.779
10784POPC   C1B23925   9.536  24.383  10.935
10784POPC   C2B23926   9.533  24.582  10.945
10784POPC   C3B23927   9.530  24.782  10.955
10784POPC   C4B23928   9.526  24.982  10.965
10785POPC   NC323929   0.087  18.755   5.485
10785POPC   PO423930  -0.047  18.887   5.418
10785POPC   GL123931  -0.181  19.019   5.351
10785POPC   GL223932  -0.225  19.020   5.441
10785POPC   C1A23933  -0.316  19.151   5.284
10785POPC   D2A23934  -0.450  19.284   5.218
10785POPC   C3A23935  -0.585  19.416   5.151
10785POPC   C4A23936  -0.719  19.548   5.084
10785POPC   C1B23937  -0.435  19.001   5.228
10785POPC   C2B23938  -0.570  19.133   5.162
10785POPC   C3B23939  -0.704  19.266   5.095
10785POPC   C4B23940  -0.839  19.398   5.028
10786POPC   NC323941  -2.504   4.049  11.685
10786POPC   PO423942  -2.684   3.966  11.712
10786POPC   GL123943  -2.864   3.883  11.739
10786POPC   GL223944  -2.890   3.959  11.798
10786POPC   C1A23945  -3.044   3.800  11.766
10786POPC   D2A23946  -3.223   3.716  11.792
10786POPC   C3A23947  -3.403   3.633  11.819
10786POPC   C4A23948  -3.583   3.550  11.846
10786POPC   C1B23949  -2.974   3.701  11.925
10786POPC   C2B23950  -3.154   3.617  11.952
10786POPC   C3B23951  -3.334   3.534  11.978
10786POPC   C4B23952  -3.513   3.451  12.005
10787POPC   NC323953  22.666  14.585   7.416
10787POPC   PO423954  22.848  14.661   7.384
10787POPC   GL123955  23.030  14.737   7.352
10787POPC   GL223956  23.020  14.720   7.254
10787POPC   C1A23957  23.212  14.814   7.320
10787POPC   D2A23958  23.394  14.890   7.288
10787POPC   C3A23959  23.576  14.967   7.256
10787POPC   C4A23960  23.758  15.043   7.224
10787POPC   C1B23961  23.292  14.632   7.344
10787POPC   C2B23962  23.474  14.709   7.312
10787POPC   C3B23963  23.656  14.785   7.280
10787POPC   C4B23964  23.838  14.861   7.248
10788POPC   NC323965  19.720  16.756   2.951
10788POPC   PO423966  19.858  16.860   2.851
10788POPC   GL123967  19.996  16.964   2.751
10788POPC   GL223968  19.949  16.944   2.665
10788POPC   C1A23969  20.134  17.069   2.650
10788POPC   D2A23970  20.272  17.173   2.550
10788POPC   C3A23971  20.410  17.278   2.449
10788POPC   C4A23972  20.548  17.382   2.349
10788POPC   C1B23973  20.244  16.903   2.628
10788POPC   C2B23974  20.382  17.007   2.528
10788POPC   C3B23975  20.520  17.112   2.428
10788POPC   C4B23976  20.658  17.216   2.327
10789POPC   NC323977   4.192  16.486  20.790
10789POPC   PO423978   4.103  16.579  20.943
10789POPC   GL123979   4.014  16.672  21.096
10789POPC   GL223980   4.061  16.611  21.160
10789POPC   C1A23981   3.925  16.765  21.249
10789POPC   D2A23982   3.837  16.857  21.403
10789POPC   C3A23983   3.748  16.950  21.556
10789POPC   C4A23984   3.659  17.043  21.709
10789POPC   C1B23985   3.773  16.636  21.239
10789POPC   C2B23986   3.684  16.729  21.392
10789POPC   C3B23987   3.595  16.821  21.545
10789POPC   C4B23988   3.506  16.914  21.699
10790POPC   NC323989  -1.312   3.479   4.866
10790POPC   PO423990  -1.476   3.381   4.805
10790POPC   GL123991  -1.640   3.283   4.744
10790POPC   GL223992  -1.600   3.197   4.775
10790POPC   C1A23993  -1.804   3.186   4.683
10790POPC   D2A23994  -1.967   3.088   4.623
10790POPC   C3A23995  -2.131   2.991   4.562
10790POPC   C4A23996  -2.295   2.893   4.501
10790POPC   C1B23997  -1.721   3.159   4.503
10790POPC   C2B23998  -1.885   3.061   4.443
10790POPC   C3B23999  -2.048   2.964   4.382
10790POPC   C4B24000  -2.212   2.866   4.321
10791POPC   NC324001  20.843   1.762   8.130
10791POPC   PO424002  21.004   1.646   8.103
10791POPC   GL124003  21.165   1.530   8.076
10791POPC   GL224004  21.172   1.562   7.982
10791POPC   C1A24005  21.325   1.414   8.050
10791POPC   D2A24006  21.486   1.297   8.023
10791POPC   C3A24007  21.646   1.181   7.997
10791POPC   C4A24008  21.807   1.065   7.970
10791POPC   C1B24009  21.207   1.264   7.990
10791POPC   C2B24010  21.368   1.148   7.963
10791POPC   C3B24011  21.528   1.032   7.936
10791POPC   C4B24012  21.689   0.915   7.910
10792POPC   NC324013  13.934  21.858   4.156
10792POPC   PO424014  13.988  22.034   4.079
10792POPC   GL124015  14.042  22.210   4.002
10792POPC   GL224016  14.137  22.179   3.998
10792POPC   C1A24017  14.097  22.386   3.925
10792POPC   D2A24018  14.151  22.563   3.847
10792POPC   C3A24019  14.206  22.739   3.770
10792POPC   C4A24020  14.260  22.915   3.693
10792POPC   C1B24021  14.127  22.458   4.109
10792POPC   C2B24022  14.181  22.634   4.032
10792POPC   C3B24023  14.236  22.810   3.955
10792POPC   C4B24024  14.290  22.986   3.877
10793POPC   NC324025   4.759  10.671  -2.938
10793POPC   PO424026   4.684  10.682  -3.123
10793POPC   GL124027   4.609  10.693  -3.308
10793POPC   GL224028   4.635  10.789  -3.313
10793POPC   C1A24029   4.534  10.703  -3.493
10793POPC   D2A24030   4.458  10.714  -3.678
10793POPC   C3A24031   4.383  10.724  -3.863
10793POPC   C4A24032   4.308  10.735  -4.048
10793POPC   C1B24033   4.356  10.755  -3.418
10793POPC   C2B24034   4.280  10.765  -3.603
10793POPC   C3B24035   4.205  10.776  -3.788
10793POPC   C4B24036   4.130  10.787  -3.973
10794POPC   NC324037  17.188   3.067   0.444
10794POPC   PO424038  17.303   2.972   0.311
10794POPC   GL124039  17.418   2.877   0.178
10794POPC   GL224040  17.351   2.896   0.106
10794POPC   C1A24041  17.533   2.782   0.044
10794POPC   D2A24042  17.647   2.686  -0.089
10794POPC   C3A24043  17.762   2.591  -0.223
10794POPC   C4A24044  17.877   2.496  -0.356
10794POPC   C1B24045  17.438   2.610   0.085
10794POPC   C2B24046  17.553   2.515  -0.048
10794POPC   C3B24047  17.668   2.420  -0.182
10794POPC   C4B24048  17.783   2.325  -0.315
10795POPC   NC324049  10.980   9.587  -3.903
10795POPC   PO424050  10.990   9.579  -4.103
10795POPC   GL124051  11.000   9.571  -4.303
10795POPC   GL224052  11.019   9.669  -4.306
10795POPC   C1A24053  11.010   9.563  -4.502
10795POPC   D2A24054  11.019   9.554  -4.702
10795POPC   C3A24055  11.029   9.546  -4.901
10795POPC   C4A24056  11.039   9.538  -5.101
10795POPC   C1B24057  10.814   9.601  -4.513
10795POPC   C2B24058  10.823   9.593  -4.713
10795POPC   C3B24059  10.833   9.585  -4.913
10795POPC   C4B24060  10.843   9.576  -5.112
10796POPC   NC324061  20.845  10.177  18.378
10796POPC   PO424062  21.003  10.176  18.501
10796POPC   GL124063  21.161  10.175  18.624
10796POPC   GL224064  21.208  10.239  18.563
10796POPC   C1A24065  21.319  10.174  18.747
10796POPC   D2A24066  21.477  10.174  18.869
10796POPC   C3A24067  21.635  10.173  18.992
10796POPC   C4A24068  21.793  10.172  19.115
10796POPC   C1B24069  21.397  10.021  18.645
10796POPC   C2B24070  21.555  10.020  18.768
10796POPC   C3B24071  21.713  10.019  18.891
10796POPC   C4B24072  21.871  10.018  19.013
10797POPC   NC324073  18.585  17.897   2.757
10797POPC   PO424074  18.709  18.017   2.656
10797POPC   GL124075  18.833  18.137   2.555
10797POPC   GL224076  18.802  18.097   2.469
10797POPC   C1A24077  18.957  18.258   2.454
10797POPC   D2A24078  19.080  18.378   2.354
10797POPC   C3A24079  19.204  18.499   2.253
10797POPC   C4A24080  19.328  18.619   2.152
10797POPC   C1B24081  19.101  18.120   2.468
10797POPC   C2B24082  19.225  18.241   2.367
10797POPC   C3B24083  19.349  18.361   2.266
10797POPC   C4B24084  19.473  18.482   2.165
10798POPC   NC324085  18.474  14.211  19.745
10798POPC   PO424086  18.597  14.270  19.892
10798POPC   GL124087  18.720  14.329  20.039
10798POPC   GL224088  18.798  14.312  19.980
10798POPC   C1A24089  18.842  14.388  20.185
10798POPC   D2A24090  18.965  14.448  20.332
10798POPC   C3A24091  19.087  14.507  20.478
10798POPC   C4A24092  19.210  14.566  20.625
10798POPC   C1B24093  18.852  14.200  20.253
10798POPC   C2B24094  18.975  14.260  20.399
10798POPC   C3B24095  19.097  14.319  20.546
10798POPC   C4B24096  19.220  14.378  20.693
10799POPC   NC324097   8.983   4.317  -2.644
10799POPC   PO424098   8.975   4.240  -2.828
10799POPC   GL124099   8.967   4.163  -3.012
10799POPC   GL224100   9.066   4.151  -3.012
10799POPC   C1A24101   8.959   4.086  -3.197
10799POPC   D2A24102   8.951   4.010  -3.381
10799POPC   C3A24103   8.943   3.933  -3.566
10799POPC   C4A24104   8.935   3.856  -3.750
10799POPC   C1B24105   8.983   4.269  -3.274
10799POPC   C2B24106   8.975   4.193  -3.458
10799POPC   C3B24107   8.967   4.116  -3.643
10799POPC   C4B24108   8.959   4.039  -3.827
10800POPC   NC324109   0.515  19.764   7.121
10800POPC   PO424110   0.389  19.914   7.080
10800POPC   GL124111   0.263  20.064   7.039
10800POPC   GL224112   0.338  20.116   6.999
10800POPC   C1A24113   0.137  20.213   6.997
10800POPC   D2A24114   0.011  20.363   6.956
10800POPC   C3A24115  -0.115  20.512   6.914
10800POPC   C4A24116  -0.241  20.662   6.873
10800POPC   C1B24117   0.175  20.294   7.176
10800POPC   C2B24118   0.049  20.444   7.135
10800POPC   C3B24119  -0.077  20.594   7.093
10800POPC   C4B24120  -0.203  20.743   7.052
10801POPC   NC324121   0.193   4.638  18.233
10801POPC   PO424122   0.060   4.562  18.362
10801POPC   GL124123  -0.073   4.486  18.491
10801POPC   GL224124  -0.002   4.426  18.529
10801POPC   C1A24125  -0.206   4.410  18.620
10801POPC   D2A24126  -0.338   4.333  18.748
10801POPC   C3A24127  -0.471   4.257  18.877
10801POPC   C4A24128  -0.604   4.181  19.006
10801POPC   C1B24129  -0.253   4.268  18.487
10801POPC   C2B24130  -0.386   4.192  18.616
10801POPC   C3B24131  -0.519   4.115  18.744
10801POPC   C4B24132  -0.651   4.039  18.873
10802POPC   NC324133  -2.609   5.426  13.824
10802POPC   PO424134  -2.790   5.359  13.875
10802POPC   GL124135  -2.971   5.292  13.926
10802POPC   GL224136  -2.968   5.347  14.009
10802POPC   C1A24137  -3.152   5.224  13.977
10802POPC   D2A24138  -3.334   5.157  14.028
10802POPC   C3A24139  -3.515   5.089  14.079
10802POPC   C4A24140  -3.696   5.022  14.130
10802POPC   C1B24141  -3.068   5.072  14.076
10802POPC   C2B24142  -3.249   5.005  14.127
10802POPC   C3B24143  -3.431   4.937  14.178
10802POPC   C4B24144  -3.612   4.870  14.229
10803POPC   NC324145   4.960   2.759  20.772
10803POPC   PO424146   4.886   2.658  20.928
10803POPC   GL124147   4.812   2.557  21.084
10803POPC   GL224148   4.831   2.635  21.144
10803POPC   C1A24149   4.738   2.456  21.240
10803POPC   D2A24150   4.665   2.355  21.396
10803POPC   C3A24151   4.591   2.254  21.552
10803POPC   C4A24152   4.517   2.153  21.708
10803POPC   C1B24153   4.920   2.382  21.278
10803POPC   C2B24154   4.846   2.281  21.434
10803POPC   C3B24155   4.773   2.180  21.590
10803POPC   C4B24156   4.699   2.079  21.746
10804POPC   NC324157  21.795   3.250  12.109
10804POPC   PO424158  21.967   3.153  12.141
10804POPC   GL124159  22.139   3.056  12.173
10804POPC   GL224160  22.113   2.987  12.105
10804POPC   C1A24161  22.311   2.959  12.205
10804POPC   D2A24162  22.483   2.862  12.236
10804POPC   C3A24163  22.655   2.765  12.268
10804POPC   C4A24164  22.827   2.668  12.300
10804POPC   C1B24165  22.223   2.850  12.348
10804POPC   C2B24166  22.395   2.753  12.380
10804POPC   C3B24167  22.567   2.656  12.411
10804POPC   C4B24168  22.739   2.559  12.443
10805POPC   NC324169   5.852  19.332   0.517
10805POPC   PO424170   5.801  19.474   0.386
10805POPC   GL124171   5.750  19.616   0.255
10805POPC   GL224172   5.785  19.686   0.317
10805POPC   C1A24173   5.699  19.758   0.124
10805POPC   D2A24174   5.648  19.900  -0.008
10805POPC   C3A24175   5.597  20.042  -0.139
10805POPC   C4A24176   5.546  20.184  -0.270
10805POPC   C1B24177   5.519  19.772   0.209
10805POPC   C2B24178   5.468  19.914   0.077
10805POPC   C3B24179   5.417  20.056  -0.054
10805POPC   C4B24180   5.366  20.198  -0.185
10806POPC   NC324181   5.096  -0.991   2.878
10806POPC   PO424182   5.028  -1.147   2.773
10806POPC   GL124183   4.960  -1.303   2.668
10806POPC   GL224184   5.037  -1.294   2.605
10806POPC   C1A24185   4.891  -1.459   2.563
10806POPC   D2A24186   4.823  -1.614   2.458
10806POPC   C3A24187   4.754  -1.770   2.353
10806POPC   C4A24188   4.686  -1.926   2.248
10806POPC   C1B24189   4.785  -1.334   2.448
10806POPC   C2B24190   4.716  -1.490   2.343
10806POPC   C3B24191   4.648  -1.646   2.238
10806POPC   C4B24192   4.579  -1.802   2.133
10807POPC   NC324193   0.405   2.781  17.048
10807POPC   PO424194   0.270   2.679  17.155
10807POPC   GL124195   0.135   2.577  17.262
10807POPC   GL224196   0.202   2.504  17.277
10807POPC   C1A24197   0.001   2.474  17.368
10807POPC   D2A24198  -0.134   2.372  17.475
10807POPC   C3A24199  -0.268   2.269  17.581
10807POPC   C4A24200  -0.403   2.167  17.688
10807POPC   C1B24201  -0.061   2.383  17.202
10807POPC   C2B24202  -0.196   2.280  17.308
10807POPC   C3B24203  -0.330   2.178  17.415
10807POPC   C4B24204  -0.465   2.075  17.521
10808POPC   NC324205  -2.984  14.619  12.375
10808POPC   PO424206  -3.169  14.688  12.409
10808POPC   GL124207  -3.354  14.757  12.443
10808POPC   GL224208  -3.317  14.849  12.455
10808POPC   C1A24209  -3.539  14.825  12.476
10808POPC   D2A24210  -3.723  14.894  12.510
10808POPC   C3A24211  -3.908  14.962  12.543
10808POPC   C4A24212  -4.093  15.031  12.577
10808POPC   C1B24213  -3.516  14.790  12.672
10808POPC   C2B24214  -3.701  14.858  12.705
10808POPC   C3B24215  -3.886  14.927  12.739
10808POPC   C4B24216  -4.071  14.995  12.773
10809POPC   NC324217   2.479  11.301  -1.628
10809POPC   PO424218   2.369  11.320  -1.794
10809POPC   GL124219   2.259  11.339  -1.960
10809POPC   GL224220   2.192  11.392  -1.909
10809POPC   C1A24221   2.150  11.359  -2.126
10809POPC   D2A24222   2.040  11.378  -2.293
10809POPC   C3A24223   1.931  11.398  -2.459
10809POPC   C4A24224   1.821  11.417  -2.625
10809POPC   C1B24225   2.052  11.190  -2.081
10809POPC   C2B24226   1.942  11.210  -2.248
10809POPC   C3B24227   1.833  11.229  -2.414
10809POPC   C4B24228   1.723  11.249  -2.580
10810POPC   NC324229  22.524   4.738  11.975
10810POPC   PO424230  22.707   4.664  12.005
10810POPC   GL124231  22.890   4.590  12.035
10810POPC   GL224232  22.919   4.625  11.946
10810POPC   C1A24233  23.073   4.516  12.066
10810POPC   D2A24234  23.257   4.441  12.096
10810POPC   C3A24235  23.440   4.367  12.127
10810POPC   C4A24236  23.623   4.293  12.157
10810POPC   C1B24237  23.018   4.344  11.980
10810POPC   C2B24238  23.201   4.269  12.011
10810POPC   C3B24239  23.384   4.195  12.041
10810POPC   C4B24240  23.567   4.121  12.071
10811POPC   NC324241  14.668   0.029  18.252
10811POPC   PO424242  14.732  -0.114  18.377
10811POPC   GL124243  14.796  -0.257  18.502
10811POPC   GL224244  14.851  -0.189  18.551
10811POPC   C1A24245  14.860  -0.400  18.626
10811POPC   D2A24246  14.923  -0.542  18.751
10811POPC   C3A24247  14.987  -0.685  18.875
10811POPC   C4A24248  15.051  -0.828  19.000
10811POPC   C1B24249  15.014  -0.436  18.505
10811POPC   C2B24250  15.078  -0.579  18.629
10811POPC   C3B24251  15.142  -0.722  18.754
10811POPC   C4B24252  15.206  -0.865  18.879
10812POPC   NC324253   5.914  21.382  16.792
10812POPC   PO424254   5.856  21.546  16.890
10812POPC   GL124255   5.798  21.710  16.988
10812POPC   GL224256   5.893  21.733  17.007
10812POPC   C1A24257   5.740  21.874  17.087
10812POPC   D2A24258   5.681  22.039  17.185
10812POPC   C3A24259   5.623  22.203  17.284
10812POPC   C4A24260   5.565  22.367  17.382
10812POPC   C1B24261   5.732  21.770  17.257
10812POPC   C2B24262   5.674  21.934  17.355
10812POPC   C3B24263   5.616  22.098  17.454
10812POPC   C4B24264   5.558  22.262  17.552
10813POPC   NC324265  12.803   4.617  -2.510
10813POPC   PO424266  12.844   4.542  -2.691
10813POPC   GL124267  12.885   4.467  -2.872
10813POPC   GL224268  12.981   4.488  -2.859
10813POPC   C1A24269  12.925   4.392  -3.053
10813POPC   D2A24270  12.966   4.316  -3.233
10813POPC   C3A24271  13.006   4.241  -3.414
10813POPC   C4A24272  13.047   4.166  -3.595
10813POPC   C1B24273  12.896   4.572  -3.134
10813POPC   C2B24274  12.937   4.497  -3.315
10813POPC   C3B24275  12.977   4.421  -3.496
10813POPC   C4B24276  13.018   4.346  -3.677
10814POPC   NC324277  17.400  -1.088   6.403
10814POPC   PO424278  17.504  -1.251   6.350
10814POPC   GL124279  17.608  -1.414   6.297
10814POPC   GL224280  17.610  -1.382   6.203
10814POPC   C1A24281  17.711  -1.577   6.245
10814POPC   D2A24282  17.815  -1.739   6.192
10814POPC   C3A24283  17.918  -1.902   6.140
10814POPC   C4A24284  18.022  -2.065   6.087
10814POPC   C1B24285  17.540  -1.674   6.208
10814POPC   C2B24286  17.644  -1.837   6.156
10814POPC   C3B24287  17.747  -1.999   6.103
10814POPC   C4B24288  17.851  -2.162   6.051
10815POPC   NC324289   5.851  14.138  22.576
10815POPC   PO424290   5.794  14.183  22.763
10815POPC   GL124291   5.737  14.228  22.950
10815POPC   GL224292   5.799  14.306  22.950
10815POPC   C1A24293   5.681  14.273  23.136
10815POPC   D2A24294   5.624  14.317  23.323
10815POPC   C3A24295   5.568  14.362  23.509
10815POPC   C4A24296   5.511  14.407  23.696
10815POPC   C1B24297   5.827  14.157  23.208
10815POPC   C2B24298   5.771  14.202  23.395
10815POPC   C3B24299   5.714  14.247  23.582
10815POPC   C4B24300   5.657  14.291  23.768
10816POPC   NC324301  11.681  16.078  22.192
10816POPC   PO424302  11.712  16.159  22.372
10816POPC   GL124303  11.743  16.240  22.552
10816POPC   GL224304  11.839  16.214  22.548
10816POPC   C1A24305  11.773  16.322  22.732
10816POPC   D2A24306  11.804  16.403  22.913
10816POPC   C3A24307  11.834  16.485  23.093
10816POPC   C4A24308  11.865  16.566  23.273
10816POPC   C1B24309  11.730  16.147  22.819
10816POPC   C2B24310  11.761  16.228  22.999
10816POPC   C3B24311  11.791  16.309  23.179
10816POPC   C4B24312  11.822  16.391  23.359
10817POPC   NC324313  10.256  -1.422   2.082
10817POPC   PO424314  10.259  -1.587   1.969
10817POPC   GL124315  10.262  -1.752   1.856
10817POPC   GL224316  10.272  -1.696   1.774
10817POPC   C1A24317  10.266  -1.917   1.743
10817POPC   D2A24318  10.269  -2.082   1.630
10817POPC   C3A24319  10.273  -2.247   1.517
10817POPC   C4A24320  10.276  -2.412   1.404
10817POPC   C1B24321  10.067  -1.909   1.726
10817POPC   C2B24322  10.070  -2.074   1.613
10817POPC   C3B24323  10.073  -2.239   1.500
10817POPC   C4B24324  10.077  -2.404   1.387
10818POPC   NC324325   7.814   6.276  -3.230
10818POPC   PO424326   7.791   6.224  -3.422
10818POPC   GL124327   7.768   6.172  -3.614
10818POPC   GL224328   7.710   6.095  -3.586
10818POPC   C1A24329   7.745   6.119  -3.805
10818POPC   D2A24330   7.722   6.067  -3.997
10818POPC   C3A24331   7.699   6.014  -4.188
10818POPC   C4A24332   7.676   5.962  -4.380
10818POPC   C1B24333   7.906   6.001  -3.792
10818POPC   C2B24334   7.883   5.949  -3.984
10818POPC   C3B24335   7.860   5.896  -4.176
10818POPC   C4B24336   7.837   5.844  -4.367
10819POPC   NC324337  12.232  18.824  -0.468
10819POPC   PO424338  12.257  18.949  -0.622
10819POPC   GL124339  12.282  19.074  -0.776
10819POPC   GL224340  12.360  19.116  -0.729
10819POPC   C1A24341  12.308  19.199  -0.930
10819POPC   D2A24342  12.333  19.324  -1.084
10819POPC   C3A24343  12.359  19.449  -1.238
10819POPC   C4A24344  12.384  19.574  -1.392
10819POPC   C1B24345  12.183  19.330  -0.844
10819POPC   C2B24346  12.209  19.455  -0.998
10819POPC   C3B24347  12.234  19.580  -1.152
10819POPC   C4B24348  12.260  19.705  -1.306
10820POPC   NC324349   7.698  21.836   3.130
10820POPC   PO424350   7.666  22.002   3.023
10820POPC   GL124351   7.634  22.168   2.916
10820POPC   GL224352   7.701  22.217   2.973
10820POPC   C1A24353   7.602  22.334   2.810
10820POPC   D2A24354   7.569  22.501   2.703
10820POPC   C3A24355   7.537  22.667   2.597
10820POPC   C4A24356   7.505  22.833   2.490
10820POPC   C1B24357   7.456  22.387   2.936
10820POPC   C2B24358   7.424  22.554   2.830
10820POPC   C3B24359   7.392  22.720   2.723
10820POPC   C4B24360   7.360  22.886   2.617
10821POPC   NC324361  -1.518   3.553  14.468
10821POPC   PO424362  -1.683   3.459  14.530
10821POPC   GL124363  -1.848   3.365  14.592
10821POPC   GL224364  -1.847   3.418  14.677
10821POPC   C1A24365  -2.014   3.271  14.654
10821POPC   D2A24366  -2.179   3.177  14.716
10821POPC   C3A24367  -2.345   3.083  14.778
10821POPC   C4A24368  -2.510   2.989  14.840
10821POPC   C1B24369  -1.901   3.130  14.740
10821POPC   C2B24370  -2.067   3.036  14.802
10821POPC   C3B24371  -2.232   2.942  14.864
10821POPC   C4B24372  -2.397   2.848  14.926
10822POPC   NC324373  -2.574   4.296  11.945
10822POPC   PO424374  -2.755   4.216  11.975
10822POPC   GL124375  -2.936   4.136  12.005
10822POPC   GL224376  -2.923   4.144  12.104
10822POPC   C1A24377  -3.117   4.056  12.036
10822POPC   D2A24378  -3.297   3.977  12.066
10822POPC   C3A24379  -3.478   3.897  12.097
10822POPC   C4A24380  -3.659   3.817  12.127
10822POPC   C1B24381  -3.035   3.874  12.040
10822POPC   C2B24382  -3.216   3.794  12.071
10822POPC   C3B24383  -3.397   3.714  12.101
10822POPC   C4B24384  -3.578   3.634  12.131
10823POPC   NC324385   1.389   6.160  -0.345
10823POPC   PO424386   1.270   6.100  -0.494
10823POPC   GL124387   1.151   6.040  -0.643
10823POPC   GL224388   1.083   6.008  -0.576
10823POPC   C1A24389   1.032   5.980  -0.792
10823POPC   D2A24390   0.913   5.920  -0.941
10823POPC   C3A24391   0.794   5.860  -1.090
10823POPC   C4A24392   0.675   5.800  -1.239
10823POPC   C1B24393   1.119   5.800  -0.789
10823POPC   C2B24394   1.000   5.740  -0.938
10823POPC   C3B24395   0.881   5.680  -1.087
10823POPC   C4B24396   0.762   5.620  -1.236
10824POPC   NC324397  -3.063   5.093  10.363
10824POPC   PO424398  -3.250   5.023  10.370
10824POPC   GL124399  -3.437   4.953  10.377
10824POPC   GL224400  -3.402   4.861  10.392
10824POPC   C1A24401  -3.624   4.883  10.383
10824POPC   D2A24402  -3.812   4.813  10.390
10824POPC   C3A24403  -3.999   4.743  10.396
10824POPC   C4A24404  -4.186   4.673  10.403
10824POPC   C1B24405  -3.620   4.851  10.186
10824POPC   C2B24406  -3.807   4.781  10.192
10824POPC   C3B24407  -3.994   4.711  10.199
10824POPC   C4B24408  -4.181   4.641  10.206
10825POPC   NC324409   1.690   1.053  16.709
10825POPC   PO424410   1.572   0.925  16.807
10825POPC   GL124411   1.454   0.797  16.905
10825POPC   GL224412   1.527   0.781  16.972
10825POPC   C1A24413   1.337   0.668  17.003
10825POPC   D2A24414   1.219   0.540  17.102
10825POPC   C3A24415   1.102   0.411  17.200
10825POPC   C4A24416   0.984   0.283  17.298
10825POPC   C1B24417   1.407   0.518  16.892
10825POPC   C2B24418   1.290   0.390  16.990
10825POPC   C3B24419   1.172   0.261  17.088
10825POPC   C4B24420   1.054   0.133  17.186
10826POPC   NC324421   7.674  11.859  23.369
10826POPC   PO424422   7.636  11.882  23.564
10826POPC   GL124423   7.598  11.905  23.759
10826POPC   GL224424   7.671  11.841  23.781
10826POPC   C1A24425   7.560  11.928  23.954
10826POPC   D2A24426   7.522  11.950  24.149
10826POPC   C3A24427   7.484  11.973  24.344
10826POPC   C4A24428   7.446  11.996  24.539
10826POPC   C1B24429   7.430  11.776  23.946
10826POPC   C2B24430   7.392  11.799  24.141
10826POPC   C3B24431   7.354  11.822  24.336
10826POPC   C4B24432   7.316  11.844  24.531
10827POPC   NC324433  16.813  12.932  -1.705
10827POPC   PO424434  16.917  12.972  -1.871
10827POPC   GL124435  17.021  13.012  -2.037
10827POPC   GL224436  16.940  13.054  -2.078
10827POPC   C1A24437  17.125  13.052  -2.203
10827POPC   D2A24438  17.228  13.092  -2.370
10827POPC   C3A24439  17.332  13.132  -2.536
10827POPC   C4A24440  17.436  13.172  -2.702
10827POPC   C1B24441  17.070  12.875  -2.280
10827POPC   C2B24442  17.174  12.915  -2.446
10827POPC   C3B24443  17.278  12.955  -2.612
10827POPC   C4B24444  17.382  12.995  -2.779
10828POPC   NC324445  23.308   8.730   7.084
10828POPC   PO424446  23.503   8.713   7.045
10828POPC   GL124447  23.698   8.696   7.006
10828POPC   GL224448  23.685   8.742   6.919
10828POPC   C1A24449  23.894   8.679   6.968
10828POPC   D2A24450  24.089   8.661   6.929
10828POPC   C3A24451  24.285   8.644   6.891
10828POPC   C4A24452  24.480   8.627   6.852
10828POPC   C1B24453  23.861   8.502   6.880
10828POPC   C2B24454  24.056   8.485   6.841
10828POPC   C3B24455  24.252   8.468   6.802
10828POPC   C4B24456  24.447   8.451   6.764
10829POPC   NC324457  10.899  23.764   9.149
10829POPC   PO424458  10.912  23.963   9.139
10829POPC   GL124459  10.925  24.162   9.129
10829POPC   GL224460  11.022  24.157   9.150
10829POPC   C1A24461  10.937  24.362   9.120
10829POPC   D2A24462  10.950  24.561   9.110
10829POPC   C3A24463  10.962  24.761   9.101
10829POPC   C4A24464  10.975  24.960   9.091
10829POPC   C1B24465  10.897  24.374   9.315
10829POPC   C2B24466  10.910  24.573   9.306
10829POPC   C3B24467  10.922  24.773   9.296
10829POPC   C4B24468  10.935  24.972   9.287
10830POPC   NC324469   3.650  22.032   7.445
10830POPC   PO424470   3.551  22.202   7.410
10830POPC   GL124471   3.452  22.372   7.375
10830POPC   GL224472   3.529  22.425   7.411
10830POPC   C1A24473   3.353  22.542   7.339
10830POPC   D2A24474   3.253  22.712   7.304
10830POPC   C3A24475   3.154  22.882   7.268
10830POPC   C4A24476   3.055  23.052   7.233
10830POPC   C1B24477   3.272  22.533   7.522
10830POPC   C2B24478   3.173  22.703   7.487
10830POPC   C3B24479   3.074  22.873   7.451
10830POPC   C4B24480   2.975  23.043   7.416
10831POPC   NC324481  13.375  18.058  -0.785
10831POPC   PO424482  13.421  18.170  -0.944
10831POPC   GL124483  13.467  18.282  -1.103
10831POPC   GL224484  13.450  18.203  -1.163
10831POPC   C1A24485  13.514  18.393  -1.263
10831POPC   D2A24486  13.560  18.505  -1.422
10831POPC   C3A24487  13.607  18.616  -1.582
10831POPC   C4A24488  13.653  18.728  -1.741
10831POPC   C1B24489  13.705  18.338  -1.246
10831POPC   C2B24490  13.752  18.449  -1.405
10831POPC   C3B24491  13.798  18.561  -1.565
10831POPC   C4B24492  13.844  18.673  -1.724
10832POPC   NC324493   3.816  17.215  20.086
10832POPC   PO424494   3.724  17.317  20.231
10832POPC   GL124495   3.632  17.419  20.376
10832POPC   GL224496   3.684  17.368  20.445
10832POPC   C1A24497   3.541  17.521  20.522
10832POPC   D2A24498   3.449  17.624  20.667
10832POPC   C3A24499   3.358  17.726  20.813
10832POPC   C4A24500   3.266  17.828  20.958
10832POPC   C1B24501   3.396  17.383  20.528
10832POPC   C2B24502   3.305  17.485  20.673
10832POPC   C3B24503   3.213  17.588  20.819
10832POPC   C4B24504   3.122  17.690  20.964
10833POPC   NC324505  18.007   2.766   1.431
10833POPC   PO424506  18.129   2.667   1.307
10833POPC   GL124507  18.251   2.568   1.183
10833POPC   GL224508  18.177   2.559   1.117
10833POPC   C1A24509  18.373   2.468   1.060
10833POPC   D2A24510  18.495   2.369   0.936
10833POPC   C3A24511  18.617   2.269   0.813
10833POPC   C4A24512  18.739   2.170   0.689
10833POPC   C1B24513  18.318   2.295   1.144
10833POPC   C2B24514  18.440   2.196   1.021
10833POPC   C3B24515  18.562   2.097   0.897
10833POPC   C4B24516  18.684   1.997   0.774
10834POPC   NC324517  -3.395  12.601  13.160
10834POPC   PO424518  -3.586  12.638  13.207
10834POPC   GL124519  -3.777  12.675  13.254
10834POPC   GL224520  -3.750  12.696  13.347
10834POPC   C1A24521  -3.968  12.712  13.300
10834POPC   D2A24522  -4.159  12.748  13.347
10834POPC   C3A24523  -4.350  12.785  13.393
10834POPC   C4A24524  -4.541  12.822  13.440
10834POPC   C1B24525  -3.992  12.520  13.352
10834POPC   C2B24526  -4.183  12.557  13.398
10834POPC   C3B24527  -4.374  12.593  13.445
10834POPC   C4B24528  -4.565  12.630  13.491
10835POPC   NC324529   8.029  -3.314  13.484
10835POPC   PO424530   8.000  -3.506  13.534
10835POPC   GL124531   7.971  -3.698  13.584
10835POPC   GL224532   8.065  -3.703  13.618
10835POPC   C1A24533   7.942  -3.889  13.634
10835POPC   D2A24534   7.913  -4.081  13.683
10835POPC   C3A24535   7.884  -4.272  13.733
10835POPC   C4A24536   7.855  -4.464  13.783
10835POPC   C1B24537   8.005  -3.946  13.453
10835POPC   C2B24538   7.976  -4.137  13.502
10835POPC   C3B24539   7.947  -4.329  13.552
10835POPC   C4B24540   7.918  -4.521  13.602
10836POPC   NC324541   7.839  12.688  -3.530
10836POPC   PO424542   7.812  12.726  -3.724
10836POPC   GL124543   7.785  12.764  -3.918
10836POPC   GL224544   7.878  12.734  -3.937
10836POPC   C1A24545   7.758  12.802  -4.113
10836POPC   D2A24546   7.730  12.840  -4.307
10836POPC   C3A24547   7.703  12.878  -4.502
10836POPC   C4A24548   7.676  12.916  -4.696
10836POPC   C1B24549   7.824  12.989  -4.086
10836POPC   C2B24550   7.796  13.027  -4.280
10836POPC   C3B24551   7.769  13.065  -4.474
10836POPC   C4B24552   7.742  13.103  -4.669
10837POPC   NC324553   5.979  22.717  13.739
10837POPC   PO424554   5.923  22.900  13.797
10837POPC   GL124555   5.867  23.083  13.855
10837POPC   GL224556   5.945  23.122  13.806
10837POPC   C1A24557   5.810  23.266  13.912
10837POPC   D2A24558   5.754  23.449  13.970
10837POPC   C3A24559   5.697  23.632  14.027
10837POPC   C4A24560   5.641  23.815  14.085
10837POPC   C1B24561   5.922  23.249  14.077
10837POPC   C2B24562   5.866  23.432  14.135
10837POPC   C3B24563   5.809  23.615  14.192
10837POPC   C4B24564   5.753  23.798  14.250
10838POPC   NC324565  11.656  21.156  17.873
10838POPC   PO424566  11.687  21.316  17.990
10838POPC   GL124567  11.718  21.476  18.107
10838POPC   GL224568  11.816  21.460  18.101
10838POPC   C1A24569  11.749  21.635  18.223
10838POPC   D2A24570  11.779  21.795  18.340
10838POPC   C3A24571  11.810  21.954  18.456
10838POPC   C4A24572  11.841  22.114  18.573
10838POPC   C1B24573  11.739  21.519  18.385
10838POPC   C2B24574  11.770  21.678  18.502
10838POPC   C3B24575  11.801  21.838  18.619
10838POPC   C4B24576  11.832  21.997  18.735
10839POPC   NC324577   1.298   9.195  20.813
10839POPC   PO424578   1.169   9.183  20.965
10839POPC   GL124579   1.040   9.171  21.117
10839POPC   GL224580   1.116   9.174  21.182
10839POPC   C1A24581   0.911   9.158  21.270
10839POPC   D2A24582   0.782   9.146  21.422
10839POPC   C3A24583   0.653   9.133  21.575
10839POPC   C4A24584   0.524   9.121  21.727
10839POPC   C1B24585   0.925   8.959  21.265
10839POPC   C2B24586   0.796   8.946  21.418
10839POPC   C3B24587   0.667   8.934  21.570
10839POPC   C4B24588   0.538   8.922  21.722
10840POPC   NC324589   4.031  21.869   6.006
10840POPC   PO424590   3.937  22.036   5.949
10840POPC   GL124591   3.843  22.203   5.892
10840POPC   GL224592   3.930  22.251   5.889
10840POPC   C1A24593   3.748  22.370   5.835
10840POPC   D2A24594   3.654  22.537   5.779
10840POPC   C3A24595   3.559  22.704   5.722
10840POPC   C4A24596   3.465  22.871   5.665
10840POPC   C1B24597   3.726  22.423   6.027
10840POPC   C2B24598   3.632  22.590   5.970
10840POPC   C3B24599   3.537  22.757   5.913
10840POPC   C4B24600   3.443  22.924   5.857
10841POPC   NC324601  21.021   4.946  16.433
10841POPC   PO424602  21.182   4.883  16.534
10841POPC   GL124603  21.343   4.820  16.635
10841POPC   GL224604  21.369   4.915  16.652
10841POPC   C1A24605  21.503   4.757  16.737
10841POPC   D2A24606  21.664   4.695  16.838
10841POPC   C3A24607  21.824   4.632  16.940
10841POPC   C4A24608  21.985   4.569  17.041
10841POPC   C1B24609  21.610   4.757  16.568
10841POPC   C2B24610  21.771   4.695  16.669
10841POPC   C3B24611  21.931   4.632  16.771
10841POPC   C4B24612  22.092   4.569  16.872
10842POPC   NC324613   0.608  18.647  15.547
10842POPC   PO424614   0.474  18.771  15.628
10842POPC   GL124615   0.340  18.895  15.709
10842POPC   GL224616   0.412  18.937  15.764
10842POPC   C1A24617   0.206  19.019  15.790
10842POPC   D2A24618   0.071  19.144  15.871
10842POPC   C3A24619  -0.063  19.268  15.952
10842POPC   C4A24620  -0.197  19.392  16.033
10842POPC   C1B24621   0.171  18.887  15.936
10842POPC   C2B24622   0.037  19.011  16.017
10842POPC   C3B24623  -0.097  19.135  16.098
10842POPC   C4B24624  -0.232  19.260  16.179
10843POPC   NC324625  -1.840   7.806  17.096
10843POPC   PO424626  -2.008   7.783  17.203
10843POPC   GL124627  -2.176   7.760  17.310
10843POPC   GL224628  -2.175   7.857  17.331
10843POPC   C1A24629  -2.343   7.736  17.416
10843POPC   D2A24630  -2.511   7.713  17.523
10843POPC   C3A24631  -2.678   7.689  17.629
10843POPC   C4A24632  -2.846   7.666  17.736
10843POPC   C1B24633  -2.234   7.700  17.580
10843POPC   C2B24634  -2.402   7.676  17.686
10843POPC   C3B24635  -2.569   7.653  17.793
10843POPC   C4B24636  -2.737   7.630  17.900
10844POPC   NC324637  17.644  13.292  -1.041
10844POPC   PO424638  17.756  13.342  -1.199
10844POPC   GL124639  17.868  13.392  -1.357
10844POPC   GL224640  17.789  13.380  -1.417
10844POPC   C1A24641  17.980  13.442  -1.515
10844POPC   D2A24642  18.092  13.491  -1.673
10844POPC   C3A24643  18.204  13.541  -1.831
10844POPC   C4A24644  18.316  13.591  -1.989
10844POPC   C1B24645  18.029  13.249  -1.541
10844POPC   C2B24646  18.141  13.299  -1.699
10844POPC   C3B24647  18.253  13.349  -1.857
10844POPC   C4B24648  18.365  13.399  -2.015
10845POPC   NC324649  18.569   2.046   2.682
10845POPC   PO424650  18.695   1.935   2.574
10845POPC   GL124651  18.821   1.824   2.466
10845POPC   GL224652  18.755   1.822   2.390
10845POPC   C1A24653  18.947   1.713   2.358
10845POPC   D2A24654  19.074   1.601   2.249
10845POPC   C3A24655  19.200   1.490   2.141
10845POPC   C4A24656  19.326   1.379   2.033
10845POPC   C1B24657  18.865   1.546   2.433
10845POPC   C2B24658  18.991   1.435   2.324
10845POPC   C3B24659  19.118   1.324   2.216
10845POPC   C4B24660  19.244   1.213   2.108
10846POPC   NC324661  16.627  10.150  -2.106
10846POPC   PO424662  16.724  10.152  -2.281
10846POPC   GL124663  16.821  10.154  -2.456
10846POPC   GL224664  16.742  10.199  -2.499
10846POPC   C1A24665  16.918  10.157  -2.631
10846POPC   D2A24666  17.014  10.159  -2.806
10846POPC   C3A24667  17.111  10.162  -2.981
10846POPC   C4A24668  17.208  10.164  -3.156
10846POPC   C1B24669  16.841   9.978  -2.676
10846POPC   C2B24670  16.938   9.980  -2.851
10846POPC   C3B24671  17.034   9.982  -3.026
10846POPC   C4B24672  17.131   9.985  -3.201
10847POPC   NC324673  10.636   8.367  23.700
10847POPC   PO424674  10.646   8.343  23.898
10847POPC   GL124675  10.656   8.319  24.096
10847POPC   GL224676  10.658   8.220  24.084
10847POPC   C1A24677  10.666   8.295  24.294
10847POPC   D2A24678  10.677   8.270  24.493
10847POPC   C3A24679  10.687   8.246  24.691
10847POPC   C4A24680  10.697   8.222  24.889
10847POPC   C1B24681  10.467   8.289  24.304
10847POPC   C2B24682  10.477   8.265  24.502
10847POPC   C3B24683  10.487   8.240  24.700
10847POPC   C4B24684  10.497   8.216  24.899
10848POPC   NC324685  16.522  14.531  -1.341
10848POPC   PO424686  16.622  14.598  -1.500
10848POPC   GL124687  16.722  14.665  -1.659
10848POPC   GL224688  16.716  14.575  -1.702
10848POPC   C1A24689  16.823  14.733  -1.819
10848POPC   D2A24690  16.923  14.800  -1.978
10848POPC   C3A24691  17.024  14.868  -2.138
10848POPC   C4A24692  17.124  14.935  -2.297
10848POPC   C1B24693  16.995  14.681  -1.732
10848POPC   C2B24694  17.096  14.748  -1.892
10848POPC   C3B24695  17.196  14.815  -2.051
10848POPC   C4B24696  17.297  14.883  -2.210
10849POPC   NC324697  16.329   2.154  19.341
10849POPC   PO424698  16.425   2.041  19.475
10849POPC   GL124699  16.521   1.928  19.609
10849POPC   GL224700  16.591   1.907  19.542
10849POPC   C1A24701  16.617   1.815  19.744
10849POPC   D2A24702  16.713   1.703  19.878
10849POPC   C3A24703  16.809   1.590  20.013
10849POPC   C4A24704  16.905   1.477  20.147
10849POPC   C1B24705  16.512   1.656  19.684
10849POPC   C2B24706  16.608   1.543  19.819
10849POPC   C3B24707  16.704   1.430  19.953
10849POPC   C4B24708  16.800   1.317  20.088
10850POPC   NC324709  21.804  16.140  13.336
10850POPC   PO424710  21.975  16.233  13.382
10850POPC   GL124711  22.146  16.326  13.428
10850POPC   GL224712  22.120  16.403  13.370
10850POPC   C1A24713  22.318  16.418  13.473
10850POPC   D2A24714  22.489  16.511  13.519
10850POPC   C3A24715  22.661  16.603  13.564
10850POPC   C4A24716  22.832  16.696  13.610
10850POPC   C1B24717  22.406  16.331  13.316
10850POPC   C2B24718  22.578  16.424  13.362
10850POPC   C3B24719  22.749  16.516  13.408
10850POPC   C4B24720  22.921  16.609  13.453
10851POPC   NC324721  19.983  11.746   0.702
10851POPC   PO424722  20.134  11.768   0.573
10851POPC   GL124723  20.285  11.790   0.444
10851POPC   GL224724  20.250  11.713   0.390
10851POPC   C1A24725  20.436  11.812   0.315
10851POPC   D2A24726  20.588  11.834   0.186
10851POPC   C3A24727  20.739  11.856   0.057
10851POPC   C4A24728  20.890  11.878  -0.072
10851POPC   C1B24729  20.547  11.686   0.423
10851POPC   C2B24730  20.698  11.708   0.294
10851POPC   C3B24731  20.850  11.730   0.165
10851POPC   C4B24732  21.001  11.752   0.036
10852POPC   NC324733  -4.008   9.025   9.853
10852POPC   PO424734  -4.207   9.009   9.856
10852POPC   GL124735  -4.406   8.993   9.859
10852POPC   GL224736  -4.411   9.064   9.930
10852POPC   C1A24737  -4.606   8.978   9.862
10852POPC   D2A24738  -4.805   8.962   9.864
10852POPC   C3A24739  -5.005   8.947   9.867
10852POPC   C4A24740  -5.204   8.931   9.870
10852POPC   C1B24741  -4.593   8.836  10.002
10852POPC   C2B24742  -4.792   8.820  10.005
10852POPC   C3B24743  -4.992   8.805  10.008
10852POPC   C4B24744  -5.191   8.789  10.011
10853POPC   NC324745   0.769   6.040   0.232
10853POPC   PO424746   0.640   5.980   0.091
10853POPC   GL124747   0.511   5.920  -0.050
10853POPC   GL224748   0.470   5.856   0.015
10853POPC   C1A24749   0.382   5.861  -0.191
10853POPC   D2A24750   0.254   5.801  -0.332
10853POPC   C3A24751   0.125   5.742  -0.473
10853POPC   C4A24752  -0.004   5.682  -0.614
10853POPC   C1B24753   0.512   5.720  -0.249
10853POPC   C2B24754   0.383   5.660  -0.390
10853POPC   C3B24755   0.254   5.600  -0.531
10853POPC   C4B24756   0.125   5.541  -0.672
10854POPC   NC324757  18.021   6.726  -0.762
10854POPC   PO424758  18.137   6.678  -0.918
10854POPC   GL124759  18.253   6.630  -1.074
10854POPC   GL224760  18.308   6.711  -1.058
10854POPC   C1A24761  18.369   6.581  -1.230
10854POPC   D2A24762  18.484   6.533  -1.385
10854POPC   C3A24763  18.600   6.484  -1.541
10854POPC   C4A24764  18.716   6.436  -1.697
10854POPC   C1B24765  18.249   6.686  -1.351
10854POPC   C2B24766  18.365   6.638  -1.507
10854POPC   C3B24767  18.481   6.589  -1.663
10854POPC   C4B24768  18.596   6.541  -1.818
10855POPC   NC324769   5.631  -0.957   2.511
10855POPC   PO424770   5.571  -1.113   2.401
10855POPC   GL124771   5.511  -1.269   2.291
10855POPC   GL224772   5.583  -1.250   2.225
10855POPC   C1A24773   5.452  -1.425   2.181
10855POPC   D2A24774   5.392  -1.581   2.072
10855POPC   C3A24775   5.333  -1.737   1.962
10855POPC   C4A24776   5.273  -1.893   1.852
10855POPC   C1B24777   5.326  -1.306   2.081
10855POPC   C2B24778   5.267  -1.462   1.971
10855POPC   C3B24779   5.207  -1.618   1.861
10855POPC   C4B24780   5.148  -1.774   1.751
10856POPC   NC324781   6.064   1.661  -0.469
10856POPC   PO424782   6.007   1.539  -0.617
10856POPC   GL124783   5.950   1.417  -0.765
10856POPC   GL224784   5.931   1.345  -0.699
10856POPC   C1A24785   5.894   1.296  -0.913
10856POPC   D2A24786   5.837   1.174  -1.062
10856POPC   C3A24787   5.781   1.053  -1.210
10856POPC   C4A24788   5.724   0.931  -1.358
10856POPC   C1B24789   6.082   1.229  -0.930
10856POPC   C2B24790   6.025   1.108  -1.079
10856POPC   C3B24791   5.968   0.986  -1.227
10856POPC   C4B24792   5.912   0.864  -1.375
10857POPC   NC324793  21.840  16.548  12.220
10857POPC   PO424794  22.013  16.643  12.253
10857POPC   GL124795  22.186  16.738  12.286
10857POPC   GL224796  22.178  16.784  12.198
10857POPC   C1A24797  22.359  16.833  12.319
10857POPC   D2A24798  22.531  16.929  12.353
10857POPC   C3A24799  22.704  17.024  12.386
10857POPC   C4A24800  22.877  17.119  12.419
10857POPC   C1B24801  22.458  16.683  12.233
10857POPC   C2B24802  22.631  16.778  12.266
10857POPC   C3B24803  22.804  16.873  12.299
10857POPC   C4B24804  22.976  16.969  12.333
10858POPC   NC324805  21.678   8.715  16.969
10858POPC   PO424806  21.847   8.691  17.073
10858POPC   GL124807  22.016   8.667  17.177
10858POPC   GL224808  22.061   8.631  17.096
10858POPC   C1A24809  22.185   8.644  17.281
10858POPC   D2A24810  22.355   8.620  17.385
10858POPC   C3A24811  22.524   8.597  17.489
10858POPC   C4A24812  22.693   8.573  17.593
10858POPC   C1B24813  22.128   8.459  17.332
10858POPC   C2B24814  22.297   8.436  17.436
10858POPC   C3B24815  22.467   8.412  17.540
10858POPC   C4B24816  22.636   8.388  17.644
10859POPC   NC324817  21.439   5.483  16.061
10859POPC   PO424818  21.606   5.426  16.155
10859POPC   GL124819  21.773   5.369  16.249
10859POPC   GL224820  21.791   5.464  16.274
10859POPC   C1A24821  21.941   5.313  16.343
10859POPC   D2A24822  22.108   5.256  16.436
10859POPC   C3A24823  22.276   5.200  16.530
10859POPC   C4A24824  22.443   5.143  16.624
10859POPC   C1B24825  22.044   5.339  16.173
10859POPC   C2B24826  22.212   5.282  16.267
10859POPC   C3B24827  22.379   5.226  16.361
10859POPC   C4B24828  22.547   5.169  16.455
10860POPC   NC324829   3.462  17.469   0.096
10860POPC   PO424830   3.368  17.572  -0.047
10860POPC   GL124831   3.274  17.675  -0.190
10860POPC   GL224832   3.362  17.707  -0.225
10860POPC   C1A24833   3.179  17.779  -0.333
10860POPC   D2A24834   3.085  17.882  -0.475
10860POPC   C3A24835   2.990  17.986  -0.618
10860POPC   C4A24836   2.896  18.089  -0.761
10860POPC   C1B24837   3.170  17.938  -0.211
10860POPC   C2B24838   3.075  18.041  -0.354
10860POPC   C3B24839   2.981  18.144  -0.497
10860POPC   C4B24840   2.886  18.248  -0.640
10861POPC   NC324841  21.914   8.294  16.467
10861POPC   PO424842  22.086   8.266  16.566
10861POPC   GL124843  22.258   8.238  16.665
10861POPC   GL224844  22.284   8.332  16.646
10861POPC   C1A24845  22.429   8.210  16.764
10861POPC   D2A24846  22.601   8.182  16.863
10861POPC   C3A24847  22.772   8.154  16.962
10861POPC   C4A24848  22.944   8.126  17.061
10861POPC   C1B24849  22.517   8.151  16.594
10861POPC   C2B24850  22.689   8.123  16.693
10861POPC   C3B24851  22.861   8.095  16.792
10861POPC   C4B24852  23.032   8.067  16.891
10862POPC   NC324853  -2.343   4.335  13.124
10862POPC   PO424854  -2.520   4.254  13.169
10862POPC   GL124855  -2.697   4.173  13.214
10862POPC   GL224856  -2.704   4.233  13.294
10862POPC   C1A24857  -2.874   4.091  13.259
10862POPC   D2A24858  -3.051   4.010  13.305
10862POPC   C3A24859  -3.228   3.928  13.350
10862POPC   C4A24860  -3.405   3.847  13.395
10862POPC   C1B24861  -2.782   3.954  13.372
10862POPC   C2B24862  -2.959   3.872  13.417
10862POPC   C3B24863  -3.136   3.791  13.463
10862POPC   C4B24864  -3.313   3.710  13.508
10863POPC   NC324865  18.915  14.013   0.226
10863POPC   PO424866  19.045  14.070   0.085
10863POPC   GL124867  19.175  14.127  -0.056
10863POPC   GL224868  19.150  14.047  -0.111
10863POPC   C1A24869  19.304  14.183  -0.198
10863POPC   D2A24870  19.434  14.240  -0.339
10863POPC   C3A24871  19.563  14.296  -0.481
10863POPC   C4A24872  19.693  14.353  -0.622
10863POPC   C1B24873  19.448  14.077  -0.109
10863POPC   C2B24874  19.578  14.133  -0.250
10863POPC   C3B24875  19.707  14.190  -0.392
10863POPC   C4B24876  19.837  14.246  -0.533
10864POPC   NC324877  13.442  23.348  10.921
10864POPC   PO424878  13.495  23.540  10.935
10864POPC   GL124879  13.548  23.732  10.949
10864POPC   GL224880  13.587  23.715  11.039
10864POPC   C1A24881  13.601  23.925  10.963
10864POPC   D2A24882  13.653  24.117  10.976
10864POPC   C3A24883  13.706  24.310  10.990
10864POPC   C4A24884  13.759  24.502  11.004
10864POPC   C1B24885  13.425  23.967  11.048
10864POPC   C2B24886  13.478  24.159  11.062
10864POPC   C3B24887  13.530  24.352  11.076
10864POPC   C4B24888  13.583  24.544  11.089
10865POPC   NC324889   3.623   3.584  -0.583
10865POPC   PO424890   3.529   3.486  -0.730
10865POPC   GL124891   3.435   3.388  -0.877
10865POPC   GL224892   3.372   3.349  -0.810
10865POPC   C1A24893   3.341   3.290  -1.024
10865POPC   D2A24894   3.247   3.192  -1.170
10865POPC   C3A24895   3.153   3.094  -1.317
10865POPC   C4A24896   3.059   2.996  -1.464
10865POPC   C1B24897   3.464   3.134  -0.999
10865POPC   C2B24898   3.370   3.036  -1.145
10865POPC   C3B24899   3.276   2.938  -1.292
10865POPC   C4B24900   3.182   2.840  -1.439
10866POPC   NC324901  10.221  14.807  22.860
10866POPC   PO424902  10.232  14.875  23.048
10866POPC   GL124903  10.243  14.943  23.236
10866POPC   GL224904  10.252  14.849  23.269
10866POPC   C1A24905  10.253  15.011  23.424
10866POPC   D2A24906  10.264  15.079  23.611
10866POPC   C3A24907  10.274  15.147  23.799
10866POPC   C4A24908  10.285  15.215  23.987
10866POPC   C1B24909  10.054  14.997  23.440
10866POPC   C2B24910  10.065  15.065  23.628
10866POPC   C3B24911  10.076  15.133  23.816
10866POPC   C4B24912  10.086  15.201  24.003
10867POPC   NC324913  21.671   4.324   5.290
10867POPC   PO424914  21.841   4.241   5.225
10867POPC   GL124915  22.011   4.158   5.160
10867POPC   GL224916  22.051   4.249   5.148
10867POPC   C1A24917  22.181   4.075   5.095
10867POPC   D2A24918  22.351   3.992   5.031
10867POPC   C3A24919  22.521   3.909   4.966
10867POPC   C4A24920  22.691   3.826   4.901
10867POPC   C1B24921  22.112   4.081   4.908
10867POPC   C2B24922  22.282   3.998   4.843
10867POPC   C3B24923  22.452   3.915   4.778
10867POPC   C4B24924  22.622   3.832   4.713
10868POPC   NC324925  12.492  -3.651   9.220
10868POPC   PO424926  12.529  -3.847   9.212
10868POPC   GL124927  12.566  -4.043   9.204
10868POPC   GL224928  12.607  -4.040   9.295
10868POPC   C1A24929  12.603  -4.240   9.195
10868POPC   D2A24930  12.639  -4.436   9.187
10868POPC   C3A24931  12.676  -4.633   9.178
10868POPC   C4A24932  12.713  -4.829   9.170
10868POPC   C1B24933  12.781  -4.203   9.112
10868POPC   C2B24934  12.818  -4.399   9.104
10868POPC   C3B24935  12.854  -4.596   9.096
10868POPC   C4B24936  12.891  -4.792   9.087
10869POPC   NC324937  -2.807   8.335  15.319
10869POPC   PO424938  -2.990   8.317  15.399
10869POPC   GL124939  -3.173   8.299  15.479
10869POPC   GL224940  -3.145   8.214  15.523
10869POPC   C1A24941  -3.355   8.281  15.558
10869POPC   D2A24942  -3.538   8.264  15.638
10869POPC   C3A24943  -3.720   8.246  15.717
10869POPC   C4A24944  -3.903   8.228  15.797
10869POPC   C1B24945  -3.415   8.179  15.397
10869POPC   C2B24946  -3.598   8.161  15.477
10869POPC   C3B24947  -3.781   8.143  15.556
10869POPC   C4B24948  -3.963   8.126  15.636
10870POPC   NC324949  -3.292  13.690  12.391
10870POPC   PO424950  -3.481  13.746  12.426
10870POPC   GL124951  -3.670  13.802  12.461
10870POPC   GL224952  -3.637  13.893  12.489
10870POPC   C1A24953  -3.858  13.859  12.496
10870POPC   D2A24954  -4.047  13.915  12.530
10870POPC   C3A24955  -4.235  13.972  12.565
10870POPC   C4A24956  -4.424  14.028  12.600
10870POPC   C1B24957  -3.842  13.795  12.684
10870POPC   C2B24958  -4.031  13.851  12.719
10870POPC   C3B24959  -4.220  13.908  12.754
10870POPC   C4B24960  -4.408  13.964  12.789
10871POPC   NC324961  15.727   1.452  19.125
10871POPC   PO424962  15.814   1.328  19.256
10871POPC   GL124963  15.901   1.204  19.387
10871POPC   GL224964  15.943   1.282  19.433
10871POPC   C1A24965  15.987   1.080  19.518
10871POPC   D2A24966  16.074   0.956  19.648
10871POPC   C3A24967  16.160   0.832  19.779
10871POPC   C4A24968  16.247   0.708  19.910
10871POPC   C1B24969  16.146   1.064  19.397
10871POPC   C2B24970  16.233   0.940  19.528
10871POPC   C3B24971  16.319   0.816  19.659
10871POPC   C4B24972  16.406   0.692  19.790
10872POPC   NC324973  10.665  -1.781   2.658
10872POPC   PO424974  10.675  -1.951   2.552
10872POPC   GL124975  10.685  -2.121   2.446
10872POPC   GL224976  10.698  -2.172   2.531
10872POPC   C1A24977  10.695  -2.290   2.341
10872POPC   D2A24978  10.705  -2.460   2.235
10872POPC   C3A24979  10.715  -2.629   2.130
10872POPC   C4A24980  10.725  -2.799   2.024
10872POPC   C1B24981  10.893  -2.268   2.323
10872POPC   C2B24982  10.903  -2.437   2.218
10872POPC   C3B24983  10.913  -2.607   2.112
10872POPC   C4B24984  10.923  -2.776   2.007
10873POPC   NC324985  15.442  21.122  15.914
10873POPC   PO424986  15.525  21.282  16.001
10873POPC   GL124987  15.608  21.442  16.088
10873POPC   GL224988  15.627  21.481  15.998
10873POPC   C1A24989  15.691  21.602  16.174
10873POPC   D2A24990  15.775  21.761  16.261
10873POPC   C3A24991  15.858  21.921  16.347
10873POPC   C4A24992  15.941  22.081  16.434
10873POPC   C1B24993  15.869  21.510  16.172
10873POPC   C2B24994  15.952  21.670  16.258
10873POPC   C3B24995  16.036  21.830  16.345
10873POPC   C4B24996  16.119  21.990  16.432
10874POPC   NC324997  -0.283   5.583   1.529
10874POPC   PO424998  -0.426   5.521   1.404
10874POPC   GL124999  -0.569   5.459   1.279
10874POPC   GL225000  -0.616   5.414   1.356
10874POPC   C1A25001  -0.713   5.397   1.155
10874POPC   D2A25002  -0.856   5.334   1.030
10874POPC   C3A25003  -1.000   5.272   0.906
10874POPC   C4A25004  -1.143   5.210   0.781
10874POPC   C1B25005  -0.609   5.229   1.119
10874POPC   C2B25006  -0.753   5.167   0.995
10874POPC   C3B25007  -0.896   5.105   0.870
10874POPC   C4B25008  -1.039   5.043   0.745
10875POPC   NC325009   5.879  20.468   1.873
10875POPC   PO425010   5.825  20.622   1.757
10875POPC   GL125011   5.771  20.776   1.641
10875POPC   GL225012   5.803  20.840   1.711
10875POPC   C1A25013   5.717  20.930   1.525
10875POPC   D2A25014   5.664  21.083   1.409
10875POPC   C3A25015   5.610  21.237   1.293
10875POPC   C4A25016   5.556  21.391   1.177
10875POPC   C1B25017   5.535  20.928   1.608
10875POPC   C2B25018   5.481  21.082   1.492
10875POPC   C3B25019   5.428  21.236   1.376
10875POPC   C4B25020   5.374  21.390   1.260
10876POPC   NC325021   7.100   5.120  -2.771
10876POPC   PO425022   7.069   5.054  -2.957
10876POPC   GL125023   7.038   4.988  -3.143
10876POPC   GL225024   7.080   4.900  -3.119
10876POPC   C1A25025   7.007   4.921  -3.329
10876POPC   D2A25026   6.976   4.855  -3.516
10876POPC   C3A25027   6.945   4.788  -3.702
10876POPC   C4A25028   6.914   4.722  -3.888
10876POPC   C1B25029   7.186   4.992  -3.384
10876POPC   C2B25030   7.155   4.926  -3.571
10876POPC   C3B25031   7.124   4.859  -3.757
10876POPC   C4B25032   7.093   4.793  -3.943
10877POPC   NC325033   3.796  22.338   8.733
10877POPC   PO425034   3.697  22.510   8.712
10877POPC   GL125035   3.598  22.682   8.691
10877POPC   GL225036   3.678  22.723   8.647
10877POPC   C1A25037   3.499  22.855   8.670
10877POPC   D2A25038   3.400  23.027   8.649
10877POPC   C3A25039   3.301  23.200   8.628
10877POPC   C4A25040   3.202  23.372   8.607
10877POPC   C1B25041   3.566  22.915   8.849
10877POPC   C2B25042   3.467  23.087   8.828
10877POPC   C3B25043   3.368  23.260   8.807
10877POPC   C4B25044   3.269  23.432   8.786
10878POPC   NC325045  14.437  -2.995   8.530
10878POPC   PO425046  14.507  -3.181   8.507
10878POPC   GL125047  14.577  -3.367   8.484
10878POPC   GL225048  14.669  -3.331   8.474
10878POPC   C1A25049  14.646  -3.553   8.461
10878POPC   D2A25050  14.716  -3.739   8.438
10878POPC   C3A25051  14.785  -3.925   8.415
10878POPC   C4A25052  14.855  -4.111   8.392
10878POPC   C1B25053  14.620  -3.538   8.263
10878POPC   C2B25054  14.690  -3.724   8.240
10878POPC   C3B25055  14.759  -3.910   8.217
10878POPC   C4B25056  14.829  -4.096   8.194
10879POPC   NC325057  21.813  16.939  10.735
10879POPC   PO425058  21.985  17.040  10.745
10879POPC   GL125059  22.157  17.141  10.755
10879POPC   GL225060  22.204  17.058  10.785
10879POPC   C1A25061  22.330  17.242  10.764
10879POPC   D2A25062  22.502  17.342  10.774
10879POPC   C3A25063  22.675  17.443  10.783
10879POPC   C4A25064  22.847  17.544  10.793
10879POPC   C1B25065  22.291  17.289  10.955
10879POPC   C2B25066  22.464  17.390  10.964
10879POPC   C3B25067  22.636  17.491  10.974
10879POPC   C4B25068  22.809  17.592  10.983
10880POPC   NC325069  11.836  20.066  19.180
10880POPC   PO425070  11.865  20.214  19.312
10880POPC   GL125071  11.894  20.362  19.444
10880POPC   GL225072  11.987  20.329  19.460
10880POPC   C1A25073  11.923  20.509  19.576
10880POPC   D2A25074  11.951  20.657  19.707
10880POPC   C3A25075  11.980  20.804  19.839
10880POPC   C4A25076  12.009  20.952  19.971
10880POPC   C1B25077  11.856  20.391  19.722
10880POPC   C2B25078  11.884  20.539  19.854
10880POPC   C3B25079  11.913  20.686  19.986
10880POPC   C4B25080  11.942  20.834  20.118
10881POPC   NC325081  14.474  22.227   5.570
10881POPC   PO425082  14.535  22.406   5.506
10881POPC   GL125083  14.596  22.585   5.442
10881POPC   GL225084  14.609  22.548   5.350
10881POPC   C1A25085  14.657  22.764   5.377
10881POPC   D2A25086  14.719  22.944   5.313
10881POPC   C3A25087  14.780  23.123   5.248
10881POPC   C4A25088  14.841  23.302   5.184
10881POPC   C1B25089  14.846  22.716   5.423
10881POPC   C2B25090  14.907  22.896   5.359
10881POPC   C3B25091  14.968  23.075   5.294
10881POPC   C4B25092  15.030  23.254   5.230
10882POPC   NC325093  15.781  20.846   3.720
10882POPC   PO425094  15.866  21.001   3.627
10882POPC   GL125095  15.951  21.156   3.534
10882POPC   GL225096  16.020  21.162   3.606
10882POPC   C1A25097  16.036  21.311   3.440
10882POPC   D2A25098  16.121  21.467   3.347
10882POPC   C3A25099  16.206  21.622   3.253
10882POPC   C4A25100  16.291  21.777   3.160
10882POPC   C1B25101  15.918  21.437   3.542
10882POPC   C2B25102  16.003  21.592   3.449
10882POPC   C3B25103  16.088  21.748   3.355
10882POPC   C4B25104  16.173  21.903   3.262
10883POPC   NC325105  23.425  12.249  11.292
10883POPC   PO425106  23.622  12.276  11.312
10883POPC   GL125107  23.819  12.303  11.332
10883POPC   GL225108  23.823  12.344  11.241
10883POPC   C1A25109  24.016  12.330  11.353
10883POPC   D2A25110  24.213  12.358  11.373
10883POPC   C3A25111  24.410  12.385  11.394
10883POPC   C4A25112  24.607  12.412  11.414
10883POPC   C1B25113  24.049  12.150  11.274
10883POPC   C2B25114  24.246  12.177  11.295
10883POPC   C3B25115  24.443  12.204  11.315
10883POPC   C4B25116  24.640  12.231  11.335
10884POPC   NC325117  14.317  -3.104  10.981
10884POPC   PO425118  14.386  -3.291  10.998
10884POPC   GL125119  14.455  -3.478  11.015
10884POPC   GL225120  14.528  -3.446  11.075
10884POPC   C1A25121  14.523  -3.665  11.031
10884POPC   D2A25122  14.592  -3.853  11.048
10884POPC   C3A25123  14.660  -4.040  11.064
10884POPC   C4A25124  14.729  -4.227  11.081
10884POPC   C1B25125  14.641  -3.636  10.872
10884POPC   C2B25126  14.709  -3.824  10.889
10884POPC   C3B25127  14.778  -4.011  10.905
10884POPC   C4B25128  14.847  -4.198  10.922
10885POPC   NC325129   5.792  16.505  21.528
10885POPC   PO425130   5.733  16.605  21.691
10885POPC   GL125131   5.674  16.705  21.854
10885POPC   GL225132   5.730  16.645  21.911
10885POPC   C1A25133   5.616  16.805  22.017
10885POPC   D2A25134   5.557  16.906  22.180
10885POPC   C3A25135   5.499  17.006  22.343
10885POPC   C4A25136   5.440  17.106  22.506
10885POPC   C1B25137   5.460  16.682  22.037
10885POPC   C2B25138   5.401  16.782  22.200
10885POPC   C3B25139   5.342  16.882  22.363
10885POPC   C4B25140   5.284  16.983  22.526
10886POPC   NC325141  -2.079  15.618  14.254
10886POPC   PO425142  -2.250  15.702  14.316
10886POPC   GL125143  -2.421  15.786  14.378
10886POPC   GL225144  -2.389  15.875  14.347
10886POPC   C1A25145  -2.592  15.869  14.440
10886POPC   D2A25146  -2.763  15.953  14.501
10886POPC   C3A25147  -2.934  16.036  14.563
10886POPC   C4A25148  -3.105  16.120  14.625
10886POPC   C1B25149  -2.511  15.902  14.619
10886POPC   C2B25150  -2.682  15.986  14.681
10886POPC   C3B25151  -2.853  16.070  14.743
10886POPC   C4B25152  -3.024  16.153  14.805
10887POPC   NC325153  -2.264  13.527   4.369
10887POPC   PO425154  -2.441  13.582   4.294
10887POPC   GL125155  -2.618  13.637   4.219
10887POPC   GL225156  -2.647  13.668   4.310
10887POPC   C1A25157  -2.795  13.692   4.144
10887POPC   D2A25158  -2.972  13.748   4.070
10887POPC   C3A25159  -3.149  13.803   3.995
10887POPC   C4A25160  -3.326  13.858   3.920
10887POPC   C1B25161  -2.868  13.510   4.183
10887POPC   C2B25162  -3.045  13.566   4.108
10887POPC   C3B25163  -3.222  13.621   4.034
10887POPC   C4B25164  -3.399  13.676   3.959
10888POPC   NC325165  -2.398   6.449  15.521
10888POPC   PO425166  -2.578   6.401  15.594
10888POPC   GL125167  -2.758   6.353  15.667
10888POPC   GL225168  -2.718   6.341  15.758
10888POPC   C1A25169  -2.938   6.305  15.740
10888POPC   D2A25170  -3.117   6.256  15.813
10888POPC   C3A25171  -3.297   6.208  15.886
10888POPC   C4A25172  -3.477   6.160  15.959
10888POPC   C1B25173  -2.903   6.112  15.699
10888POPC   C2B25174  -3.082   6.064  15.772
10888POPC   C3B25175  -3.262   6.016  15.845
10888POPC   C4B25176  -3.442   5.967  15.918
10889POPC   NC325177   0.831  18.776  15.712
10889POPC   PO425178   0.700  18.902  15.795
10889POPC   GL125179   0.569  19.028  15.878
10889POPC   GL225180   0.643  19.071  15.930
10889POPC   C1A25181   0.437  19.154  15.961
10889POPC   D2A25182   0.306  19.279  16.044
10889POPC   C3A25183   0.174  19.405  16.127
10889POPC   C4A25184   0.043  19.531  16.210
10889POPC   C1B25185   0.408  19.024  16.111
10889POPC   C2B25186   0.277  19.150  16.194
10889POPC   C3B25187   0.145  19.276  16.277
10889POPC   C4B25188   0.014  19.402  16.360
10890POPC   NC325189   8.017  -3.692  10.696
10890POPC   PO425190   7.993  -3.890  10.705
10890POPC   GL125191   7.969  -4.088  10.714
10890POPC   GL225192   8.067  -4.101  10.697
10890POPC   C1A25193   7.945  -4.287  10.724
10890POPC   D2A25194   7.921  -4.485  10.733
10890POPC   C3A25195   7.897  -4.684  10.743
10890POPC   C4A25196   7.873  -4.882  10.752
10890POPC   C1B25197   7.910  -4.292  10.527
10890POPC   C2B25198   7.886  -4.490  10.536
10890POPC   C3B25199   7.862  -4.689  10.546
10890POPC   C4B25200   7.838  -4.887  10.555
10891POPC   NC325201  23.217   7.097  12.212
10891POPC   PO425202  23.410   7.056  12.243
10891POPC   GL125203  23.603   7.015  12.274
10891POPC   GL225204  23.610   6.976  12.182
10891POPC   C1A25205  23.797   6.974  12.304
10891POPC   D2A25206  23.990   6.932  12.335
10891POPC   C3A25207  24.184   6.891  12.365
10891POPC   C4A25208  24.377   6.850  12.396
10891POPC   C1B25209  23.747   6.794  12.377
10891POPC   C2B25210  23.940   6.753  12.408
10891POPC   C3B25211  24.134   6.712  12.438
10891POPC   C4B25212  24.327   6.671  12.469
10892POPC   NC325213  14.770   6.132  -2.384
10892POPC   PO425214  14.844   6.082  -2.563
10892POPC   GL125215  14.918   6.032  -2.742
10892POPC   GL225216  14.847   6.087  -2.787
10892POPC   C1A25217  14.991   5.983  -2.921
10892POPC   D2A25218  15.065   5.933  -3.101
10892POPC   C3A25219  15.138   5.884  -3.280
10892POPC   C4A25220  15.212   5.834  -3.459
10892POPC   C1B25221  14.871   5.823  -2.927
10892POPC   C2B25222  14.945   5.773  -3.106
10892POPC   C3B25223  15.018   5.724  -3.285
10892POPC   C4B25224  15.092   5.674  -3.464
10893POPC   NC325225  17.579  19.870   4.147
10893POPC   PO425226  17.694  20.005   4.054
10893POPC   GL125227  17.809  20.140   3.961
10893POPC   GL225228  17.848  20.067   3.904
10893POPC   C1A25229  17.925  20.274   3.869
10893POPC   D2A25230  18.040  20.409   3.776
10893POPC   C3A25231  18.156  20.543   3.684
10893POPC   C4A25232  18.271  20.678   3.591
10893POPC   C1B25233  18.069  20.244   4.004
10893POPC   C2B25234  18.184  20.378   3.912
10893POPC   C3B25235  18.300  20.513   3.819
10893POPC   C4B25236  18.415  20.648   3.726
10894POPC   NC325237  21.070   2.270  12.529
10894POPC   PO425238  21.229   2.155  12.569
10894POPC   GL125239  21.388   2.040  12.609
10894POPC   GL225240  21.353   1.970  12.547
10894POPC   C1A25241  21.547   1.925  12.649
10894POPC   D2A25242  21.705   1.811  12.690
10894POPC   C3A25243  21.864   1.696  12.730
10894POPC   C4A25244  22.023   1.581  12.770
10894POPC   C1B25245  21.447   1.840  12.800
10894POPC   C2B25246  21.606   1.725  12.840
10894POPC   C3B25247  21.764   1.610  12.881
10894POPC   C4B25248  21.923   1.496  12.921
10895POPC   NC325249   0.918   7.861  -0.414
10895POPC   PO425250   0.787   7.837  -0.563
10895POPC   GL125251   0.656   7.813  -0.712
10895POPC   GL225252   0.629   7.724  -0.674
10895POPC   C1A25253   0.525   7.788  -0.861
10895POPC   D2A25254   0.395   7.764  -1.011
10895POPC   C3A25255   0.264   7.739  -1.160
10895POPC   C4A25256   0.133   7.715  -1.309
10895POPC   C1B25257   0.667   7.698  -0.971
10895POPC   C2B25258   0.536   7.674  -1.120
10895POPC   C3B25259   0.405   7.650  -1.269
10895POPC   C4B25260   0.274   7.625  -1.418
10896POPC   NC325261  19.123  11.262  -0.283
10896POPC   PO425262  19.259  11.279  -0.429
10896POPC   GL125263  19.395  11.296  -0.575
10896POPC   GL225264  19.388  11.198  -0.593
10896POPC   C1A25265  19.531  11.314  -0.720
10896POPC   D2A25266  19.667  11.331  -0.866
10896POPC   C3A25267  19.803  11.349  -1.011
10896POPC   C4A25268  19.939  11.366  -1.157
10896POPC   C1B25269  19.677  11.279  -0.588
10896POPC   C2B25270  19.813  11.297  -0.733
10896POPC   C3B25271  19.949  11.314  -0.879
10896POPC   C4B25272  20.085  11.332  -1.025
10897POPC   NC325273  19.903  19.411  11.384
10897POPC   PO425274  20.050  19.543  11.417
10897POPC   GL125275  20.197  19.675  11.450
10897POPC   GL225276  20.164  19.730  11.373
10897POPC   C1A25277  20.343  19.807  11.482
10897POPC   D2A25278  20.490  19.939  11.515
10897POPC   C3A25279  20.636  20.071  11.547
10897POPC   C4A25280  20.783  20.203  11.580
10897POPC   C1B25281  20.463  19.705  11.359
10897POPC   C2B25282  20.609  19.837  11.391
10897POPC   C3B25283  20.756  19.969  11.424
10897POPC   C4B25284  20.902  20.101  11.456
10898POPC   NC325285   8.324   8.520  -3.732
10898POPC   PO425286   8.304   8.496  -3.930
10898POPC   GL125287   8.284   8.472  -4.128
10898POPC   GL225288   8.231   8.389  -4.112
10898POPC   C1A25289   8.263   8.449  -4.325
10898POPC   D2A25290   8.243   8.425  -4.523
10898POPC   C3A25291   8.222   8.402  -4.720
10898POPC   C4A25292   8.202   8.378  -4.918
10898POPC   C1B25293   8.432   8.342  -4.330
10898POPC   C2B25294   8.412   8.318  -4.527
10898POPC   C3B25295   8.391   8.295  -4.725
10898POPC   C4B25296   8.371   8.271  -4.923
10899POPC   NC325297  -0.013  17.734   4.036
10899POPC   PO425298  -0.155  17.846   3.951
10899POPC   GL125299  -0.297  17.958   3.866
10899POPC   GL225300  -0.339  17.973   3.955
10899POPC   C1A25301  -0.439  18.071   3.781
10899POPC   D2A25302  -0.580  18.183   3.695
10899POPC   C3A25303  -0.722  18.296   3.610
10899POPC   C4A25304  -0.864  18.408   3.525
10899POPC   C1B25305  -0.551  17.908   3.753
10899POPC   C2B25306  -0.693  18.020   3.668
10899POPC   C3B25307  -0.835  18.133   3.583
10899POPC   C4B25308  -0.977  18.245   3.498
10900POPC   NC325309  16.504  15.859  -0.704
10900POPC   PO425310  16.602  15.943  -0.856
10900POPC   GL125311  16.700  16.027  -1.008
10900POPC   GL225312  16.671  15.953  -1.068
10900POPC   C1A25313  16.799  16.112  -1.160
10900POPC   D2A25314  16.897  16.196  -1.313
10900POPC   C3A25315  16.996  16.281  -1.465
10900POPC   C4A25316  17.094  16.365  -1.617
10900POPC   C1B25317  16.963  16.009  -1.111
10900POPC   C2B25318  17.061  16.093  -1.264
10900POPC   C3B25319  17.160  16.177  -1.416
10900POPC   C4B25320  17.258  16.262  -1.568
10901POPC   NC325321  13.970  -2.691   6.239
10901POPC   PO425322  14.036  -2.872   6.185
10901POPC   GL125323  14.102  -3.053   6.131
10901POPC   GL225324  14.195  -3.026   6.155
10901POPC   C1A25325  14.168  -3.234   6.077
10901POPC   D2A25326  14.233  -3.415   6.024
10901POPC   C3A25327  14.299  -3.596   5.970
10901POPC   C4A25328  14.365  -3.777   5.916
10901POPC   C1B25329  14.196  -3.168   5.891
10901POPC   C2B25330  14.262  -3.349   5.837
10901POPC   C3B25331  14.327  -3.530   5.783
10901POPC   C4B25332  14.393  -3.711   5.729
10902POPC   NC325333  10.741  -3.801   8.827
10902POPC   PO425334  10.745  -4.001   8.818
10902POPC   GL125335  10.749  -4.201   8.809
10902POPC   GL225336  10.824  -4.196   8.742
10902POPC   C1A25337  10.754  -4.401   8.799
10902POPC   D2A25338  10.758  -4.600   8.790
10902POPC   C3A25339  10.763  -4.800   8.780
10902POPC   C4A25340  10.767  -5.000   8.771
10902POPC   C1B25341  10.621  -4.396   8.650
10902POPC   C2B25342  10.626  -4.596   8.640
10902POPC   C3B25343  10.630  -4.796   8.631
10902POPC   C4B25344  10.634  -4.996   8.621
10903POPC   NC325345  15.963  21.148   4.434
10903POPC   PO425346  16.047  21.309   4.351
10903POPC   GL125347  16.131  21.470   4.268
10903POPC   GL225348  16.206  21.466   4.334
10903POPC   C1A25349  16.215  21.632   4.185
10903POPC   D2A25350  16.299  21.793   4.101
10903POPC   C3A25351  16.383  21.955   4.018
10903POPC   C4A25352  16.467  22.116   3.935
10903POPC   C1B25353  16.112  21.750   4.309
10903POPC   C2B25354  16.196  21.911   4.226
10903POPC   C3B25355  16.280  22.072   4.142
10903POPC   C4B25356  16.364  22.234   4.059
10904POPC   NC325357   5.827  -0.732   2.104
10904POPC   PO425358   5.768  -0.882   1.986
10904POPC   GL125359   5.709  -1.032   1.868
10904POPC   GL225360   5.770  -0.999   1.796
10904POPC   C1A25361   5.650  -1.183   1.750
10904POPC   D2A25362   5.591  -1.333   1.633
10904POPC   C3A25363   5.532  -1.484   1.515
10904POPC   C4A25364   5.473  -1.634   1.397
10904POPC   C1B25365   5.502  -1.069   1.679
10904POPC   C2B25366   5.443  -1.219   1.561
10904POPC   C3B25367   5.384  -1.370   1.443
10904POPC   C4B25368   5.325  -1.520   1.325
10905POPC   NC325369  15.093   3.220  20.866
10905POPC   PO425370  15.171   3.121  21.021
10905POPC   GL125371  15.249   3.022  21.176
10905POPC   GL225372  15.296   2.960  21.113
10905POPC   C1A25373  15.327   2.923  21.331
10905POPC   D2A25374  15.406   2.824  21.486
10905POPC   C3A25375  15.484   2.725  21.641
10905POPC   C4A25376  15.562   2.626  21.796
10905POPC   C1B25377  15.169   2.801  21.333
10905POPC   C2B25378  15.247   2.702  21.488
10905POPC   C3B25379  15.325   2.603  21.643
10905POPC   C4B25380  15.403   2.504  21.798
10906POPC   NC325381  21.400   2.325  10.746
10906POPC   PO425382  21.567   2.216  10.755
10906POPC   GL125383  21.734   2.107  10.764
10906POPC   GL225384  21.789   2.191  10.772
10906POPC   C1A25385  21.902   1.998  10.774
10906POPC   D2A25386  22.069   1.888  10.783
10906POPC   C3A25387  22.237   1.779  10.793
10906POPC   C4A25388  22.404   1.670  10.802
10906POPC   C1B25389  21.918   2.005  10.575
10906POPC   C2B25390  22.085   1.896  10.584
10906POPC   C3B25391  22.253   1.787  10.593
10906POPC   C4B25392  22.420   1.678  10.603
10907POPC   NC325393  11.951  -0.142   0.719
10907POPC   PO425394  11.985  -0.287   0.586
10907POPC   GL125395  12.019  -0.432   0.453
10907POPC   GL225396  12.067  -0.367   0.394
10907POPC   C1A25397  12.053  -0.577   0.320
10907POPC   D2A25398  12.088  -0.723   0.186
10907POPC   C3A25399  12.122  -0.868   0.053
10907POPC   C4A25400  12.156  -1.013  -0.080
10907POPC   C1B25401  11.881  -0.534   0.228
10907POPC   C2B25402  11.915  -0.679   0.095
10907POPC   C3B25403  11.949  -0.824  -0.039
10907POPC   C4B25404  11.984  -0.969  -0.172
10908POPC   NC325405   9.661   7.460  -3.645
10908POPC   PO425406   9.655   7.418  -3.841
10908POPC   GL125407   9.649   7.376  -4.037
10908POPC   GL225408   9.744   7.407  -4.046
10908POPC   C1A25409   9.643   7.335  -4.232
10908POPC   D2A25410   9.638   7.293  -4.428
10908POPC   C3A25411   9.632   7.252  -4.623
10908POPC   C4A25412   9.626   7.210  -4.819
10908POPC   C1B25413   9.579   7.520  -4.270
10908POPC   C2B25414   9.573   7.479  -4.465
10908POPC   C3B25415   9.567   7.437  -4.661
10908POPC   C4B25416   9.561   7.396  -4.857
10909POPC   NC325417  22.049  16.181   8.100
10909POPC   PO425418  22.226  16.270   8.072
10909POPC   GL125419  22.403  16.359   8.044
10909POPC   GL225420  22.410  16.318   7.954
10909POPC   C1A25421  22.580  16.449   8.016
10909POPC   D2A25422  22.756  16.538   7.989
10909POPC   C3A25423  22.933  16.628   7.961
10909POPC   C4A25424  23.110  16.717   7.933
10909POPC   C1B25425  22.672  16.291   8.096
10909POPC   C2B25426  22.849  16.380   8.069
10909POPC   C3B25427  23.026  16.469   8.041
10909POPC   C4B25428  23.203  16.559   8.013
10910POPC   NC325429  15.539  16.508  20.760
10910POPC   PO425430  15.622  16.601  20.917
10910POPC   GL125431  15.705  16.694  21.074
10910POPC   GL225432  15.706  16.779  21.022
10910POPC   C1A25433  15.787  16.787  21.231
10910POPC   D2A25434  15.870  16.879  21.387
10910POPC   C3A25435  15.952  16.972  21.544
10910POPC   C4A25436  16.035  17.065  21.701
10910POPC   C1B25437  15.969  16.742  21.161
10910POPC   C2B25438  16.052  16.834  21.318
10910POPC   C3B25439  16.135  16.927  21.475
10910POPC   C4B25440  16.217  17.020  21.632
10911POPC   NC325441  13.355  23.359   9.028
10911POPC   PO425442  13.410  23.551   9.013
10911POPC   GL125443  13.465  23.743   8.998
10911POPC   GL225444  13.515  23.722   8.914
10911POPC   C1A25445  13.519  23.935   8.983
10911POPC   D2A25446  13.574  24.126   8.967
10911POPC   C3A25447  13.628  24.318   8.952
10911POPC   C4A25448  13.683  24.510   8.937
10911POPC   C1B25449  13.684  23.896   9.090
10911POPC   C2B25450  13.738  24.088   9.075
10911POPC   C3B25451  13.793  24.280   9.060
10911POPC   C4B25452  13.847  24.472   9.044
10912POPC   NC325453   9.351   7.143  23.474
10912POPC   PO425454   9.340   7.098  23.668
10912POPC   GL125455   9.329   7.053  23.862
10912POPC   GL225456   9.428   7.039  23.865
10912POPC   C1A25457   9.318   7.007  24.057
10912POPC   D2A25458   9.307   6.962  24.251
10912POPC   C3A25459   9.296   6.916  24.446
10912POPC   C4A25460   9.285   6.871  24.640
10912POPC   C1B25461   9.292   6.814  24.010
10912POPC   C2B25462   9.281   6.769  24.205
10912POPC   C3B25463   9.270   6.724  24.399
10912POPC   C4B25464   9.259   6.678  24.594
10913POPC   NC325465   6.744  18.166  -0.856
10913POPC   PO425466   6.704  18.288  -1.009
10913POPC   GL125467   6.664  18.410  -1.162
10913POPC   GL225468   6.748  18.381  -1.208
10913POPC   C1A25469   6.623  18.533  -1.315
10913POPC   D2A25470   6.583  18.655  -1.468
10913POPC   C3A25471   6.542  18.778  -1.621
10913POPC   C4A25472   6.502  18.900  -1.774
10913POPC   C1B25473   6.724  18.680  -1.224
10913POPC   C2B25474   6.683  18.802  -1.377
10913POPC   C3B25475   6.643  18.925  -1.530
10913POPC   C4B25476   6.602  19.047  -1.683
10914POPC   NC325477  20.373   9.378   0.997
10914POPC   PO425478  20.529   9.375   0.872
10914POPC   GL125479  20.685   9.372   0.747
10914POPC   GL225480  20.655   9.459   0.708
10914POPC   C1A25481  20.841   9.370   0.621
10914POPC   D2A25482  20.996   9.367   0.496
10914POPC   C3A25483  21.152   9.365   0.370
10914POPC   C4A25484  21.308   9.362   0.245
10914POPC   C1B25485  20.730   9.272   0.486
10914POPC   C2B25486  20.886   9.269   0.361
10914POPC   C3B25487  21.042   9.266   0.235
10914POPC   C4B25488  21.198   9.264   0.110
10915POPC   NC325489  -2.957  15.300   9.517
10915POPC   PO425490  -3.142  15.375   9.511
10915POPC   GL125491  -3.327  15.450   9.505
10915POPC   GL225492  -3.290  15.542   9.508
10915POPC   C1A25493  -3.513  15.525   9.499
10915POPC   D2A25494  -3.698  15.599   9.494
10915POPC   C3A25495  -3.884  15.674   9.488
10915POPC   C4A25496  -4.069  15.749   9.482
10915POPC   C1B25497  -3.520  15.522   9.699
10915POPC   C2B25498  -3.706  15.596   9.693
10915POPC   C3B25499  -3.891  15.671   9.688
10915POPC   C4B25500  -4.076  15.746   9.682
10916POPC   NC325501  18.536   0.312   5.060
10916POPC   PO425502  18.661   0.172   4.991
10916POPC   GL125503  18.786   0.032   4.922
10916POPC   GL225504  18.732   0.025   4.838
10916POPC   C1A25505  18.911  -0.108   4.853
10916POPC   D2A25506  19.036  -0.249   4.785
10916POPC   C3A25507  19.161  -0.389   4.716
10916POPC   C4A25508  19.286  -0.529   4.647
10916POPC   C1B25509  18.798  -0.250   4.938
10916POPC   C2B25510  18.923  -0.391   4.869
10916POPC   C3B25511  19.048  -0.531   4.800
10916POPC   C4B25512  19.173  -0.671   4.731
10917POPC   NC325513  21.495  17.185  12.074
10917POPC   PO425514  21.662  17.290  12.106
10917POPC   GL125515  21.829  17.395  12.138
10917POPC   GL225516  21.854  17.384  12.041
10917POPC   C1A25517  21.997  17.500  12.170
10917POPC   D2A25518  22.164  17.604  12.201
10917POPC   C3A25519  22.332  17.709  12.233
10917POPC   C4A25520  22.499  17.814  12.265
10917POPC   C1B25521  22.094  17.331  12.213
10917POPC   C2B25522  22.262  17.435  12.245
10917POPC   C3B25523  22.429  17.540  12.277
10917POPC   C4B25524  22.597  17.645  12.309
10918POPC   NC325525  17.997  20.925   7.296
10918POPC   PO425526  18.109  21.088   7.266
10918POPC   GL125527  18.221  21.251   7.236
10918POPC   GL225528  18.177  21.265   7.147
10918POPC   C1A25529  18.332  21.414   7.206
10918POPC   D2A25530  18.444  21.578   7.175
10918POPC   C3A25531  18.555  21.741   7.145
10918POPC   C4A25532  18.667  21.904   7.115
10918POPC   C1B25533  18.473  21.302   7.119
10918POPC   C2B25534  18.585  21.465   7.089
10918POPC   C3B25535  18.696  21.628   7.058
10918POPC   C4B25536  18.808  21.792   7.028
10919POPC   NC325537   9.351  -3.275   5.913
10919POPC   PO425538   9.338  -3.465   5.853
10919POPC   GL125539   9.325  -3.655   5.793
10919POPC   GL225540   9.425  -3.661   5.790
10919POPC   C1A25541   9.313  -3.846   5.734
10919POPC   D2A25542   9.300  -4.036   5.674
10919POPC   C3A25543   9.288  -4.227   5.615
10919POPC   C4A25544   9.275  -4.417   5.555
10919POPC   C1B25545   9.311  -3.786   5.543
10919POPC   C2B25546   9.298  -3.976   5.483
10919POPC   C3B25547   9.286  -4.167   5.424
10919POPC   C4B25548   9.273  -4.357   5.364
10920POPC   NC325549  23.574   8.630   9.885
10920POPC   PO425550  23.773   8.615   9.884
10920POPC   GL125551  23.972   8.600   9.883
10920POPC   GL225552  23.977   8.668   9.811
10920POPC   C1A25553  24.172   8.584   9.882
10920POPC   D2A25554  24.371   8.569   9.881
10920POPC   C3A25555  24.571   8.553   9.880
10920POPC   C4A25556  24.770   8.538   9.879
10920POPC   C1B25557  24.160   8.440   9.744
10920POPC   C2B25558  24.359   8.424   9.743
10920POPC   C3B25559  24.559   8.409   9.742
10920POPC   C4B25560  24.758   8.394   9.741
10921POPC   NC325561  21.623   3.829  13.974
10921POPC   PO425562  21.793   3.739  14.029
10921POPC   GL125563  21.963   3.649  14.084
10921POPC   GL225564  21.993   3.646  13.989
10921POPC   C1A25565  22.133   3.559  14.139
10921POPC   D2A25566  22.302   3.468  14.195
10921POPC   C3A25567  22.472   3.378  14.250
10921POPC   C4A25568  22.642   3.288  14.305
10921POPC   C1B25569  22.045   3.380  14.117
10921POPC   C2B25570  22.215   3.290  14.172
10921POPC   C3B25571  22.385   3.200  14.227
10921POPC   C4B25572  22.554   3.110  14.282
10922POPC   NC325573  12.759   9.600  -3.665
10922POPC   PO425574  12.804   9.595  -3.860
10922POPC   GL125575  12.849   9.590  -4.055
10922POPC   GL225576  12.831   9.688  -4.061
10922POPC   C1A25577  12.895   9.585  -4.250
10922POPC   D2A25578  12.940   9.581  -4.444
10922POPC   C3A25579  12.986   9.576  -4.639
10922POPC   C4A25580  13.031   9.571  -4.834
10922POPC   C1B25581  12.704   9.547  -4.293
10922POPC   C2B25582  12.749   9.542  -4.488
10922POPC   C3B25583  12.794   9.537  -4.683
10922POPC   C4B25584  12.840   9.532  -4.878
10923POPC   NC325585  16.121  -1.856   6.554
10923POPC   PO425586  16.208  -2.028   6.503
10923POPC   GL125587  16.295  -2.200   6.452
10923POPC   GL225588  16.385  -2.155   6.452
10923POPC   C1A25589  16.382  -2.373   6.400
10923POPC   D2A25590  16.470  -2.545   6.349
10923POPC   C3A25591  16.557  -2.718   6.297
10923POPC   C4A25592  16.644  -2.890   6.246
10923POPC   C1B25593  16.360  -2.327   6.207
10923POPC   C2B25594  16.447  -2.499   6.156
10923POPC   C3B25595  16.534  -2.671   6.104
10923POPC   C4B25596  16.621  -2.844   6.053
10924POPC   NC325597  -1.183   3.386   4.679
10924POPC   PO425598  -1.345   3.287   4.615
10924POPC   GL125599  -1.507   3.188   4.551
10924POPC   GL225600  -1.467   3.102   4.583
10924POPC   C1A25601  -1.668   3.089   4.487
10924POPC   D2A25602  -1.830   2.991   4.422
10924POPC   C3A25603  -1.991   2.892   4.358
10924POPC   C4A25604  -2.153   2.793   4.294
10924POPC   C1B25605  -1.581   3.064   4.308
10924POPC   C2B25606  -1.743   2.965   4.244
10924POPC   C3B25607  -1.905   2.866   4.180
10924POPC   C4B25608  -2.066   2.767   4.116
10925POPC   NC325609  14.667  -2.888  11.704
10925POPC   PO425610  14.739  -3.073  11.731
10925POPC   GL125611  14.811  -3.258  11.758
10925POPC   GL225612  14.864  -3.226  11.836
10925POPC   C1A25613  14.882  -3.443  11.785
10925POPC   D2A25614  14.954  -3.627  11.812
10925POPC   C3A25615  15.025  -3.812  11.839
10925POPC   C4A25616  15.097  -3.997  11.866
10925POPC   C1B25617  15.036  -3.401  11.664
10925POPC   C2B25618  15.107  -3.586  11.691
10925POPC   C3B25619  15.179  -3.771  11.718
10925POPC   C4B25620  15.250  -3.955  11.745
10926POPC   NC325621  14.417   0.742   0.705
10926POPC   PO425622  14.478   0.606   0.572
10926POPC   GL125623  14.539   0.470   0.439
10926POPC   GL225624  14.604   0.536   0.401
10926POPC   C1A25625  14.601   0.333   0.306
10926POPC   D2A25626  14.662   0.197   0.174
10926POPC   C3A25627  14.724   0.060   0.041
10926POPC   C4A25628  14.785  -0.076  -0.092
10926POPC   C1B25629  14.462   0.396   0.177
10926POPC   C2B25630  14.523   0.260   0.045
10926POPC   C3B25631  14.584   0.123  -0.088
10926POPC   C4B25632  14.646  -0.013  -0.221
10927POPC   NC325633  23.002  14.365   9.927
10927POPC   PO425634  23.189  14.436   9.924
10927POPC   GL125635  23.376  14.507   9.921
10927POPC   GL225636  23.391  14.465   9.832
10927POPC   C1A25637  23.563  14.578   9.919
10927POPC   D2A25638  23.750  14.649   9.916
10927POPC   C3A25639  23.937  14.720   9.914
10927POPC   C4A25640  24.124  14.791   9.911
10927POPC   C1B25641  23.628  14.411  10.007
10927POPC   C2B25642  23.815  14.482  10.005
10927POPC   C3B25643  24.002  14.553  10.002
10927POPC   C4B25644  24.189  14.624   9.999
10928POPC   NC325645  -0.810  14.153  17.814
10928POPC   PO425646  -0.962  14.213  17.930
10928POPC   GL125647  -1.114  14.273  18.046
10928POPC   GL225648  -1.089  14.204  18.114
10928POPC   C1A25649  -1.266  14.332  18.162
10928POPC   D2A25650  -1.417  14.392  18.277
10928POPC   C3A25651  -1.569  14.451  18.393
10928POPC   C4A25652  -1.721  14.511  18.509
10928POPC   C1B25653  -1.386  14.200  18.071
10928POPC   C2B25654  -1.538  14.260  18.187
10928POPC   C3B25655  -1.690  14.320  18.303
10928POPC   C4B25656  -1.841  14.379  18.419
10929POPC   NC325657   1.426  18.789  16.548
10929POPC   PO425658   1.301  18.914  16.642
10929POPC   GL125659   1.176  19.039  16.736
10929POPC   GL225660   1.254  19.086  16.777
10929POPC   C1A25661   1.051  19.163  16.830
10929POPC   D2A25662   0.927  19.288  16.925
10929POPC   C3A25663   0.802  19.412  17.019
10929POPC   C4A25664   0.677  19.537  17.113
10929POPC   C1B25665   1.045  19.039  16.987
10929POPC   C2B25666   0.920  19.163  17.081
10929POPC   C3B25667   0.796  19.288  17.175
10929POPC   C4B25668   0.671  19.413  17.269
10930POPC   NC325669  -2.145  13.806   4.299
10930POPC   PO425670  -2.320  13.865   4.223
10930POPC   GL125671  -2.495  13.924   4.147
10930POPC   GL225672  -2.522  13.961   4.237
10930POPC   C1A25673  -2.671  13.983   4.072
10930POPC   D2A25674  -2.846  14.042   3.996
10930POPC   C3A25675  -3.022  14.101   3.921
10930POPC   C4A25676  -3.197  14.160   3.845
10930POPC   C1B25677  -2.751  13.807   4.121
10930POPC   C2B25678  -2.927  13.866   4.045
10930POPC   C3B25679  -3.102  13.925   3.969
10930POPC   C4B25680  -3.277  13.984   3.894
10931POPC   NC325681  19.210   4.384   1.484
10931POPC   PO425682  19.343   4.300   1.361
10931POPC   GL125683  19.476   4.216   1.238
10931POPC   GL225684  19.516   4.306   1.219
10931POPC   C1A25685  19.609   4.132   1.114
10931POPC   D2A25686  19.742   4.047   0.991
10931POPC   C3A25687  19.875   3.963   0.867
10931POPC   C4A25688  20.008   3.879   0.744
10931POPC   C1B25689  19.482   4.156   0.961
10931POPC   C2B25690  19.615   4.072   0.838
10931POPC   C3B25691  19.748   3.987   0.715
10931POPC   C4B25692  19.881   3.903   0.591
10932POPC   NC325693  -2.386   3.734   8.643
10932POPC   PO425694  -2.565   3.647   8.621
10932POPC   GL125695  -2.744   3.560   8.599
10932POPC   GL225696  -2.780   3.616   8.674
10932POPC   C1A25697  -2.922   3.473   8.577
10932POPC   D2A25698  -3.101   3.385   8.556
10932POPC   C3A25699  -3.279   3.298   8.534
10932POPC   C4A25700  -3.458   3.211   8.512
10932POPC   C1B25701  -2.870   3.332   8.709
10932POPC   C2B25702  -3.048   3.245   8.687
10932POPC   C3B25703  -3.227   3.157   8.666
10932POPC   C4B25704  -3.405   3.070   8.644
10933POPC   NC325705   9.512   0.729  20.232
10933POPC   PO425706   9.515   0.591  20.377
10933POPC   GL125707   9.518   0.453  20.522
10933POPC   GL225708   9.572   0.514  20.579
10933POPC   C1A25709   9.520   0.315  20.666
10933POPC   D2A25710   9.523   0.177  20.811
10933POPC   C3A25711   9.525   0.039  20.955
10933POPC   C4A25712   9.528  -0.099  21.100
10933POPC   C1B25713   9.688   0.237  20.589
10933POPC   C2B25714   9.690   0.099  20.734
10933POPC   C3B25715   9.693  -0.039  20.878
10933POPC   C4B25716   9.695  -0.177  21.023
10934POPC   NC325717  16.456  16.139  -0.576
10934POPC   PO425718  16.553  16.227  -0.727
10934POPC   GL125719  16.650  16.315  -0.878
10934POPC   GL225720  16.621  16.242  -0.940
10934POPC   C1A25721  16.748  16.403  -1.029
10934POPC   D2A25722  16.845  16.490  -1.180
10934POPC   C3A25723  16.943  16.578  -1.331
10934POPC   C4A25724  17.040  16.666  -1.482
10934POPC   C1B25725  16.912  16.298  -0.984
10934POPC   C2B25726  17.010  16.386  -1.135
10934POPC   C3B25727  17.107  16.474  -1.286
10934POPC   C4B25728  17.204  16.561  -1.437
10935POPC   NC325729  -3.251  13.419   7.339
10935POPC   PO425730  -3.440  13.467   7.296
10935POPC   GL125731  -3.629  13.515   7.253
10935POPC   GL225732  -3.640  13.554   7.344
10935POPC   C1A25733  -3.818  13.563   7.210
10935POPC   D2A25734  -4.008  13.612   7.166
10935POPC   C3A25735  -4.197  13.660   7.123
10935POPC   C4A25736  -4.386  13.708   7.080
10935POPC   C1B25737  -3.879  13.386   7.278
10935POPC   C2B25738  -4.068  13.434   7.235
10935POPC   C3B25739  -4.258  13.482   7.192
10935POPC   C4B25740  -4.447  13.530   7.149
10936POPC   NC325741   6.748   2.920  21.444
10936POPC   PO425742   6.717   2.827  21.619
10936POPC   GL125743   6.686   2.734  21.794
10936POPC   GL225744   6.779   2.697  21.790
10936POPC   C1A25745   6.655   2.642  21.968
10936POPC   D2A25746   6.625   2.549  22.143
10936POPC   C3A25747   6.594   2.457  22.317
10936POPC   C4A25748   6.563   2.364  22.492
10936POPC   C1B25749   6.586   2.482  21.871
10936POPC   C2B25750   6.555   2.389  22.046
10936POPC   C3B25751   6.524   2.296  22.220
10936POPC   C4B25752   6.493   2.204  22.395
10937POPC   NC325753  -2.870  14.407   6.974
10937POPC   PO425754  -3.054  14.469   6.926
10937POPC   GL125755  -3.238  14.531   6.878
10937POPC   GL225756  -3.246  14.576   6.966
10937POPC   C1A25757  -3.422  14.593   6.829
10937POPC   D2A25758  -3.605  14.655   6.781
10937POPC   C3A25759  -3.789  14.717   6.732
10937POPC   C4A25760  -3.973  14.779   6.684
10937POPC   C1B25761  -3.499  14.426   6.908
10937POPC   C2B25762  -3.682  14.488   6.859
10937POPC   C3B25763  -3.866  14.550   6.811
10937POPC   C4B25764  -4.050  14.612   6.763
10938POPC   NC325765   7.075  22.420   4.399
10938POPC   PO425766   7.038  22.598   4.315
10938POPC   GL125767   7.001  22.776   4.231
10938POPC   GL225768   7.098  22.784   4.205
10938POPC   C1A25769   6.964  22.953   4.146
10938POPC   D2A25770   6.928  23.131   4.062
10938POPC   C3A25771   6.891  23.308   3.977
10938POPC   C4A25772   6.854  23.486   3.893
10938POPC   C1B25773   7.002  23.044   4.320
10938POPC   C2B25774   6.965  23.222   4.236
10938POPC   C3B25775   6.929  23.399   4.152
10938POPC   C4B25776   6.892  23.577   4.067
10939POPC   NC325777   6.635   8.004  -3.392
10939POPC   PO425778   6.593   7.976  -3.585
10939POPC   GL125779   6.551   7.948  -3.778
10939POPC   GL225780   6.480   7.882  -3.753
10939POPC   C1A25781   6.509   7.920  -3.972
10939POPC   D2A25782   6.466   7.892  -4.165
10939POPC   C3A25783   6.424   7.864  -4.359
10939POPC   C4A25784   6.382   7.836  -4.552
10939POPC   C1B25785   6.643   7.772  -3.980
10939POPC   C2B25786   6.601   7.744  -4.173
10939POPC   C3B25787   6.559   7.716  -4.367
10939POPC   C4B25788   6.516   7.688  -4.560
10940POPC   NC325789  19.225  -0.234   9.427
10940POPC   PO425790  19.362  -0.380   9.420
10940POPC   GL125791  19.499  -0.526   9.413
10940POPC   GL225792  19.554  -0.477   9.482
10940POPC   C1A25793  19.636  -0.671   9.407
10940POPC   D2A25794  19.773  -0.817   9.400
10940POPC   C3A25795  19.910  -0.962   9.394
10940POPC   C4A25796  20.047  -1.108   9.387
10940POPC   C1B25797  19.732  -0.574   9.261
10940POPC   C2B25798  19.869  -0.719   9.255
10940POPC   C3B25799  20.006  -0.865   9.248
10940POPC   C4B25800  20.143  -1.011   9.241
10941POPC   NC325801  22.171  16.130   8.816
10941POPC   PO425802  22.350  16.217   8.797
10941POPC   GL125803  22.529  16.304   8.778
10941POPC   GL225804  22.546  16.251   8.695
10941POPC   C1A25805  22.708  16.392   8.758
10941POPC   D2A25806  22.886  16.479   8.739
10941POPC   C3A25807  23.065  16.567   8.719
10941POPC   C4A25808  23.244  16.654   8.700
10941POPC   C1B25809  22.790  16.247   8.869
10941POPC   C2B25810  22.969  16.334   8.849
10941POPC   C3B25811  23.148  16.422   8.830
10941POPC   C4B25812  23.327  16.509   8.811
10942POPC   NC325813   5.696  21.585   3.614
10942POPC   PO425814   5.635  21.749   3.517
10942POPC   GL125815   5.574  21.913   3.420
10942POPC   GL225816   5.623  21.970   3.486
10942POPC   C1A25817   5.513  22.077   3.323
10942POPC   D2A25818   5.451  22.240   3.225
10942POPC   C3A25819   5.390  22.404   3.128
10942POPC   C4A25820   5.329  22.568   3.031
10942POPC   C1B25821   5.349  22.084   3.438
10942POPC   C2B25822   5.288  22.247   3.340
10942POPC   C3B25823   5.227  22.411   3.243
10942POPC   C4B25824   5.166  22.575   3.146
10943POPC   NC325825  19.211  19.034  14.361
10943POPC   PO425826  19.343  19.169  14.428
10943POPC   GL125827  19.475  19.304  14.495
10943POPC   GL225828  19.549  19.237  14.483
10943POPC   C1A25829  19.607  19.439  14.561
10943POPC   D2A25830  19.739  19.573  14.628
10943POPC   C3A25831  19.871  19.708  14.694
10943POPC   C4A25832  20.003  19.843  14.761
10943POPC   C1B25833  19.578  19.375  14.748
10943POPC   C2B25834  19.710  19.510  14.815
10943POPC   C3B25835  19.842  19.644  14.882
10943POPC   C4B25836  19.974  19.779  14.948
10944POPC   NC325837  -0.987  15.711   3.567
10944POPC   PO425838  -1.148  15.793   3.481
10944POPC   GL125839  -1.309  15.875   3.395
10944POPC   GL225840  -1.306  15.950   3.461
10944POPC   C1A25841  -1.469  15.957   3.308
10944POPC   D2A25842  -1.630  16.040   3.222
10944POPC   C3A25843  -1.790  16.122   3.135
10944POPC   C4A25844  -1.951  16.204   3.049
10944POPC   C1B25845  -1.588  15.852   3.429
10944POPC   C2B25846  -1.749  15.934   3.343
10944POPC   C3B25847  -1.910  16.016   3.257
10944POPC   C4B25848  -2.070  16.099   3.170
10945POPC   NC325849  11.709  22.938   5.538
10945POPC   PO425850  11.744  23.124   5.473
10945POPC   GL125851  11.779  23.310   5.408
10945POPC   GL225852  11.850  23.321   5.477
10945POPC   C1A25853  11.813  23.496   5.343
10945POPC   D2A25854  11.848  23.682   5.279
10945POPC   C3A25855  11.882  23.868   5.214
10945POPC   C4A25856  11.917  24.054   5.149
10945POPC   C1B25857  11.678  23.566   5.473
10945POPC   C2B25858  11.712  23.752   5.408
10945POPC   C3B25859  11.747  23.938   5.343
10945POPC   C4B25860  11.781  24.124   5.278
10946POPC   NC325861  23.576  11.142   8.771
10946POPC   PO425862  23.775  11.153   8.760
10946POPC   GL125863  23.974  11.164   8.749
10946POPC   GL225864  23.967  11.255   8.708
10946POPC   C1A25865  24.174  11.174   8.737
10946POPC   D2A25866  24.373  11.185   8.726
10946POPC   C3A25867  24.573  11.195   8.714
10946POPC   C4A25868  24.772  11.206   8.703
10946POPC   C1B25869  24.168  11.093   8.554
10946POPC   C2B25870  24.367  11.104   8.543
10946POPC   C3B25871  24.566  11.115   8.532
10946POPC   C4B25872  24.766  11.125   8.520
10947POPC   NC325873   4.518   2.940  -0.676
10947POPC   PO425874   4.435   2.833  -0.823
10947POPC   GL125875   4.352   2.726  -0.970
10947POPC   GL225876   4.274   2.705  -0.911
10947POPC   C1A25877   4.269   2.620  -1.118
10947POPC   D2A25878   4.185   2.513  -1.265
10947POPC   C3A25879   4.102   2.407  -1.413
10947POPC   C4A25880   4.019   2.300  -1.560
10947POPC   C1B25881   4.363   2.456  -1.053
10947POPC   C2B25882   4.280   2.349  -1.200
10947POPC   C3B25883   4.197   2.243  -1.348
10947POPC   C4B25884   4.114   2.136  -1.495
10948POPC   NC325885   4.220  12.963  22.227
10948POPC   PO425886   4.140  13.002  22.406
10948POPC   GL125887   4.060  13.041  22.585
10948POPC   GL225888   4.125  13.115  22.598
10948POPC   C1A25889   3.980  13.080  22.764
10948POPC   D2A25890   3.900  13.118  22.944
10948POPC   C3A25891   3.820  13.157  23.123
10948POPC   C4A25892   3.740  13.196  23.302
10948POPC   C1B25893   4.109  12.952  22.849
10948POPC   C2B25894   4.029  12.991  23.028
10948POPC   C3B25895   3.949  13.030  23.208
10948POPC   C4B25896   3.869  13.068  23.387
10949POPC   NC325897   1.151   8.387  20.582
10949POPC   PO425898   1.024   8.359  20.734
10949POPC   GL125899   0.897   8.331  20.886
10949POPC   GL225900   0.972   8.345  20.951
10949POPC   C1A25901   0.770   8.303  21.038
10949POPC   D2A25902   0.644   8.275  21.191
10949POPC   C3A25903   0.517   8.247  21.343
10949POPC   C4A25904   0.390   8.219  21.495
10949POPC   C1B25905   0.809   8.107  21.035
10949POPC   C2B25906   0.682   8.079  21.187
10949POPC   C3B25907   0.556   8.051  21.339
10949POPC   C4B25908   0.429   8.023  21.491
10950POPC   NC325909   0.626  17.200   2.495
10950POPC   PO425910   0.491  17.305   2.391
10950POPC   GL125911   0.356  17.410   2.287
10950POPC   GL225912   0.312  17.438   2.372
10950POPC   C1A25913   0.221  17.514   2.183
10950POPC   D2A25914   0.086  17.619   2.078
10950POPC   C3A25915  -0.049  17.723   1.974
10950POPC   C4A25916  -0.184  17.828   1.870
10950POPC   C1B25917   0.102  17.354   2.176
10950POPC   C2B25918  -0.033  17.458   2.072
10950POPC   C3B25919  -0.168  17.563   1.967
10950POPC   C4B25920  -0.303  17.668   1.863
10951POPC   NC325921   0.880   7.873  20.244
10951POPC   PO425922   0.752   7.836  20.393
10951POPC   GL125923   0.624   7.799  20.542
10951POPC   GL225924   0.699   7.808  20.608
10951POPC   C1A25925   0.496   7.763  20.692
10951POPC   D2A25926   0.369   7.726  20.841
10951POPC   C3A25927   0.241   7.690  20.991
10951POPC   C4A25928   0.113   7.653  21.140
10951POPC   C1B25929   0.534   7.567  20.676
10951POPC   C2B25930   0.406   7.530  20.825
10951POPC   C3B25931   0.279   7.494  20.975
10951POPC   C4B25932   0.151   7.457  21.124
10952POPC   NC325933  11.815  19.810  19.463
10952POPC   PO425934  11.843  19.954  19.599
10952POPC   GL125935  11.871  20.098  19.735
10952POPC   GL225936  11.965  20.067  19.749
10952POPC   C1A25937  11.899  20.242  19.871
10952POPC   D2A25938  11.926  20.387  20.006
10952POPC   C3A25939  11.954  20.531  20.142
10952POPC   C4A25940  11.982  20.675  20.278
10952POPC   C1B25941  11.836  20.118  20.015
10952POPC   C2B25942  11.864  20.263  20.151
10952POPC   C3B25943  11.892  20.407  20.286
10952POPC   C4B25944  11.920  20.551  20.422
10953POPC   NC325945   6.350  21.498  16.835
10953POPC   PO425946   6.300  21.665  16.934
10953POPC   GL125947   6.250  21.832  17.033
10953POPC   GL225948   6.345  21.845  17.059
10953POPC   C1A25949   6.199  21.998  17.131
10953POPC   D2A25950   6.149  22.165  17.230
10953POPC   C3A25951   6.098  22.331  17.328
10953POPC   C4A25952   6.048  22.498  17.427
10953POPC   C1B25953   6.168  21.891  17.297
10953POPC   C2B25954   6.118  22.057  17.396
10953POPC   C3B25955   6.067  22.224  17.494
10953POPC   C4B25956   6.017  22.391  17.593
10954POPC   NC325957   8.527  22.959  14.673
10954POPC   PO425958   8.505  23.145  14.743
10954POPC   GL125959   8.483  23.331  14.813
10954POPC   GL225960   8.566  23.359  14.764
10954POPC   C1A25961   8.462  23.517  14.883
10954POPC   D2A25962   8.440  23.704  14.952
10954POPC   C3A25963   8.419  23.890  15.022
10954POPC   C4A25964   8.397  24.076  15.092
10954POPC   C1B25965   8.573  23.471  15.042
10954POPC   C2B25966   8.551  23.657  15.112
10954POPC   C3B25967   8.530  23.843  15.182
10954POPC   C4B25968   8.508  24.029  15.251
10955POPC   NC325969  17.248  19.343   3.031
10955POPC   PO425970  17.357  19.477   2.930
10955POPC   GL125971  17.466  19.611   2.829
10955POPC   GL225972  17.484  19.542   2.758
10955POPC   C1A25973  17.576  19.744   2.728
10955POPC   D2A25974  17.685  19.878   2.626
10955POPC   C3A25975  17.795  20.011   2.525
10955POPC   C4A25976  17.904  20.145   2.424
10955POPC   C1B25977  17.739  19.685   2.826
10955POPC   C2B25978  17.849  19.818   2.725
10955POPC   C3B25979  17.958  19.952   2.624
10955POPC   C4B25980  18.068  20.086   2.522
10956POPC   NC325981   8.030  -3.707   9.750
10956POPC   PO425982   8.006  -3.906   9.746
10956POPC   GL125983   7.982  -4.105   9.742
10956POPC   GL225984   8.079  -4.116   9.719
10956POPC   C1A25985   7.958  -4.303   9.739
10956POPC   D2A25986   7.935  -4.502   9.735
10956POPC   C3A25987   7.911  -4.700   9.732
10956POPC   C4A25988   7.887  -4.899   9.728
10956POPC   C1B25989   7.912  -4.294   9.545
10956POPC   C2B25990   7.888  -4.493   9.541
10956POPC   C3B25991   7.864  -4.691   9.537
10956POPC   C4B25992   7.840  -4.890   9.534
10957POPC   NC325993   7.937  21.401   2.418
10957POPC   PO425994   7.909  21.563   2.304
10957POPC   GL125995   7.881  21.725   2.190
10957POPC   GL225996   7.932  21.780   2.256
10957POPC   C1A25997   7.853  21.887   2.076
10957POPC   D2A25998   7.825  22.048   1.962
10957POPC   C3A25999   7.797  22.210   1.848
10957POPC   C4A26000   7.769  22.372   1.734
10957POPC   C1B26001   7.683  21.926   2.174
10957POPC   C2B26002   7.655  22.088   2.060
10957POPC   C3B26003   7.627  22.250   1.946
10957POPC   C4B26004   7.599  22.412   1.832
10958POPC   NC326005  -2.913   7.302   5.237
10958POPC   PO426006  -3.097   7.270   5.166
10958POPC   GL126007  -3.281   7.238   5.095
10958POPC   GL226008  -3.320   7.264   5.184
10958POPC   C1A26009  -3.465   7.206   5.024
10958POPC   D2A26010  -3.650   7.175   4.954
10958POPC   C3A26011  -3.834   7.143   4.883
10958POPC   C4A26012  -4.018   7.111   4.812
10958POPC   C1B26013  -3.455   7.016   5.083
10958POPC   C2B26014  -3.639   6.984   5.013
10958POPC   C3B26015  -3.824   6.952   4.942
10958POPC   C4B26016  -4.008   6.920   4.871
10959POPC   NC326017  -0.984   4.855  16.964
10959POPC   PO426018  -1.135   4.776  17.068
10959POPC   GL126019  -1.286   4.697  17.172
10959POPC   GL226020  -1.246   4.606  17.161
10959POPC   C1A26021  -1.438   4.617  17.276
10959POPC   D2A26022  -1.589   4.538  17.379
10959POPC   C3A26023  -1.741   4.458  17.483
10959POPC   C4A26024  -1.892   4.379  17.587
10959POPC   C1B26025  -1.541   4.592  17.106
10959POPC   C2B26026  -1.692   4.512  17.210
10959POPC   C3B26027  -1.843   4.433  17.314
10959POPC   C4B26028  -1.995   4.354  17.417
10960POPC   NC326029  -2.882  13.600   6.136
10960POPC   PO426030  -3.067  13.652   6.080
10960POPC   GL126031  -3.252  13.704   6.024
10960POPC   GL226032  -3.268  13.744   6.114
10960POPC   C1A26033  -3.436  13.757   5.967
10960POPC   D2A26034  -3.621  13.809   5.911
10960POPC   C3A26035  -3.805  13.862   5.854
10960POPC   C4A26036  -3.990  13.914   5.798
10960POPC   C1B26037  -3.506  13.581   6.032
10960POPC   C2B26038  -3.690  13.633   5.975
10960POPC   C3B26039  -3.875  13.686   5.919
10960POPC   C4B26040  -4.060  13.738   5.863
10961POPC   NC326041  -2.667   7.175   4.687
10961POPC   PO426042  -2.848   7.142   4.609
10961POPC   GL126043  -3.029   7.109   4.531
10961POPC   GL226044  -3.070   7.122   4.621
10961POPC   C1A26045  -3.210   7.075   4.453
10961POPC   D2A26046  -3.392   7.042   4.375
10961POPC   C3A26047  -3.573   7.008   4.297
10961POPC   C4A26048  -3.754   6.975   4.219
10961POPC   C1B26049  -3.191   6.880   4.491
10961POPC   C2B26050  -3.372   6.846   4.413
10961POPC   C3B26051  -3.553   6.813   4.335
10961POPC   C4B26052  -3.734   6.780   4.257
10962POPC   NC326053   0.163   1.772  15.484
10962POPC   PO426054   0.022   1.655  15.564
10962POPC   GL126055  -0.119   1.538  15.644
10962POPC   GL226056  -0.074   1.457  15.605
10962POPC   C1A26057  -0.260   1.421  15.723
10962POPC   D2A26058  -0.402   1.303  15.803
10962POPC   C3A26059  -0.543   1.186  15.882
10962POPC   C4A26060  -0.684   1.069  15.962
10962POPC   C1B26061  -0.370   1.440  15.557
10962POPC   C2B26062  -0.511   1.323  15.637
10962POPC   C3B26063  -0.652   1.205  15.716
10962POPC   C4B26064  -0.794   1.088  15.796
10963POPC   NC326065  -1.980  10.879  17.041
10963POPC   PO426066  -2.147  10.892  17.150
10963POPC   GL126067  -2.314  10.905  17.259
10963POPC   GL226068  -2.268  10.858  17.335
10963POPC   C1A26069  -2.481  10.917  17.369
10963POPC   D2A26070  -2.648  10.930  17.478
10963POPC   C3A26071  -2.815  10.942  17.588
10963POPC   C4A26072  -2.982  10.955  17.697
10963POPC   C1B26073  -2.542  10.741  17.296
10963POPC   C2B26074  -2.709  10.754  17.406
10963POPC   C3B26075  -2.876  10.766  17.515
10963POPC   C4B26076  -3.043  10.779  17.624
10964POPC   NC326077  20.880   7.135   1.978
10964POPC   PO426078  21.039   7.096   1.863
10964POPC   GL126079  21.198   7.057   1.748
10964POPC   GL226080  21.148   7.089   1.668
10964POPC   C1A26081  21.357   7.019   1.633
10964POPC   D2A26082  21.516   6.980   1.517
10964POPC   C3A26083  21.675   6.942   1.402
10964POPC   C4A26084  21.834   6.903   1.287
10964POPC   C1B26085  21.289   6.833   1.601
10964POPC   C2B26086  21.448   6.795   1.486
10964POPC   C3B26087  21.607   6.756   1.371
10964POPC   C4B26088  21.766   6.718   1.255
10965POPC   NC326089  17.818  20.629  13.626
10965POPC   PO426090  17.938  20.776  13.689
10965POPC   GL126091  18.058  20.923  13.752
10965POPC   GL226092  18.107  20.858  13.811
10965POPC   C1A26093  18.178  21.070  13.816
10965POPC   D2A26094  18.298  21.217  13.879
10965POPC   C3A26095  18.418  21.364  13.943
10965POPC   C4A26096  18.538  21.511  14.006
10965POPC   C1B26097  18.051  21.109  13.965
10965POPC   C2B26098  18.171  21.256  14.029
10965POPC   C3B26099  18.291  21.403  14.092
10965POPC   C4B26100  18.411  21.550  14.155
10966POPC   NC326101   2.305  12.634  21.173
10966POPC   PO426102   2.192  12.677  21.332
10966POPC   GL126103   2.079  12.720  21.491
10966POPC   GL226104   2.161  12.719  21.549
10966POPC   C1A26105   1.966  12.764  21.651
10966POPC   D2A26106   1.854  12.807  21.810
10966POPC   C3A26107   1.741  12.851  21.970
10966POPC   C4A26108   1.628  12.894  22.129
10966POPC   C1B26109   1.939  12.569  21.685
10966POPC   C2B26110   1.826  12.612  21.844
10966POPC   C3B26111   1.714  12.655  22.004
10966POPC   C4B26112   1.601  12.699  22.163
10967POPC   NC326113  12.366  -0.296   1.010
10967POPC   PO426114  12.407  -0.443   0.881
10967POPC   GL126115  12.448  -0.590   0.752
10967POPC   GL226116  12.465  -0.523   0.680
10967POPC   C1A26117  12.488  -0.737   0.623
10967POPC   D2A26118  12.529  -0.885   0.494
10967POPC   C3A26119  12.569  -1.032   0.365
10967POPC   C4A26120  12.610  -1.179   0.236
10967POPC   C1B26121  12.296  -0.744   0.570
10967POPC   C2B26122  12.336  -0.891   0.441
10967POPC   C3B26123  12.377  -1.038   0.312
10967POPC   C4B26124  12.417  -1.185   0.183
10968POPC   NC326125   3.999  15.164  -1.493
10968POPC   PO426126   3.913  15.238  -1.658
10968POPC   GL126127   3.827  15.312  -1.823
10968POPC   GL226128   3.796  15.391  -1.771
10968POPC   C1A26129   3.741  15.386  -1.987
10968POPC   D2A26130   3.654  15.459  -2.152
10968POPC   C3A26131   3.568  15.533  -2.316
10968POPC   C4A26132   3.482  15.607  -2.481
10968POPC   C1B26133   3.571  15.290  -1.942
10968POPC   C2B26134   3.485  15.363  -2.106
10968POPC   C3B26135   3.399  15.437  -2.271
10968POPC   C4B26136   3.313  15.511  -2.435
10969POPC   NC326137   7.329   5.031  22.514
10969POPC   PO426138   7.294   4.959  22.697
10969POPC   GL126139   7.259   4.887  22.880
10969POPC   GL226140   7.351   4.915  22.909
10969POPC   C1A26141   7.224   4.815  23.063
10969POPC   D2A26142   7.189   4.743  23.247
10969POPC   C3A26143   7.154   4.671  23.430
10969POPC   C4A26144   7.119   4.599  23.613
10969POPC   C1B26145   7.297   4.637  23.008
10969POPC   C2B26146   7.262   4.565  23.191
10969POPC   C3B26147   7.227   4.493  23.374
10969POPC   C4B26148   7.192   4.421  23.557
10970POPC   NC326149   2.435   7.829  21.453
10970POPC   PO426150   2.323   7.790  21.614
10970POPC   GL126151   2.211   7.751  21.775
10970POPC   GL226152   2.278   7.683  21.805
10970POPC   C1A26153   2.099   7.712  21.936
10970POPC   D2A26154   1.987   7.673  22.097
10970POPC   C3A26155   1.875   7.634  22.258
10970POPC   C4A26156   1.763   7.595  22.419
10970POPC   C1B26157   2.001   7.570  21.834
10970POPC   C2B26158   1.889   7.531  21.995
10970POPC   C3B26159   1.777   7.492  22.156
10970POPC   C4B26160   1.665   7.453  22.317
10971POPC   NC326161   6.092  18.789  -0.124
10971POPC   PO426162   6.046  18.924  -0.264
10971POPC   GL126163   6.000  19.059  -0.404
10971POPC   GL226164   6.081  19.033  -0.456
10971POPC   C1A26165   5.954  19.194  -0.544
10971POPC   D2A26166   5.907  19.330  -0.684
10971POPC   C3A26167   5.861  19.465  -0.824
10971POPC   C4A26168   5.815  19.600  -0.964
10971POPC   C1B26169   6.061  19.332  -0.446
10971POPC   C2B26170   6.014  19.467  -0.586
10971POPC   C3B26171   5.968  19.603  -0.726
10971POPC   C4B26172   5.922  19.738  -0.866
10972POPC   NC326173   5.474  -0.677  17.632
10972POPC   PO426174   5.411  -0.831  17.743
10972POPC   GL126175   5.348  -0.985  17.854
10972POPC   GL226176   5.428  -1.038  17.826
10972POPC   C1A26177   5.285  -1.139  17.965
10972POPC   D2A26178   5.222  -1.292  18.077
10972POPC   C3A26179   5.159  -1.446  18.188
10972POPC   C4A26180   5.096  -1.600  18.299
10972POPC   C1B26181   5.183  -1.210  17.809
10972POPC   C2B26182   5.120  -1.364  17.920
10972POPC   C3B26183   5.057  -1.518  18.031
10972POPC   C4B26184   4.994  -1.672  18.142
10973POPC   NC326185  11.447  17.328  -1.685
10973POPC   PO426186  11.472  17.433  -1.854
10973POPC   GL126187  11.497  17.538  -2.023
10973POPC   GL226188  11.592  17.555  -1.998
10973POPC   C1A26189  11.521  17.643  -2.191
10973POPC   D2A26190  11.546  17.747  -2.360
10973POPC   C3A26191  11.570  17.852  -2.528
10973POPC   C4A26192  11.595  17.957  -2.697
10973POPC   C1B26193  11.467  17.809  -2.095
10973POPC   C2B26194  11.491  17.914  -2.264
10973POPC   C3B26195  11.516  18.019  -2.433
10973POPC   C4B26196  11.540  18.124  -2.601
10974POPC   NC326197   5.612  -1.381  16.663
10974POPC   PO426198   5.550  -1.543  16.762
10974POPC   GL126199   5.488  -1.705  16.861
10974POPC   GL226200   5.548  -1.682  16.937
10974POPC   C1A26201   5.426  -1.867  16.960
10974POPC   D2A26202   5.363  -2.030  17.059
10974POPC   C3A26203   5.301  -2.192  17.158
10974POPC   C4A26204   5.239  -2.354  17.257
10974POPC   C1B26205   5.573  -1.974  16.877
10974POPC   C2B26206   5.511  -2.137  16.976
10974POPC   C3B26207   5.448  -2.299  17.075
10974POPC   C4B26208   5.386  -2.461  17.174
10975POPC   NC326209  12.377   1.323  -0.559
10975POPC   PO426210  12.412   1.199  -0.712
10975POPC   GL126211  12.447   1.075  -0.865
10975POPC   GL226212  12.534   1.123  -0.883
10975POPC   C1A26213  12.483   0.952  -1.018
10975POPC   D2A26214  12.518   0.828  -1.172
10975POPC   C3A26215  12.554   0.705  -1.325
10975POPC   C4A26216  12.589   0.581  -1.478
10975POPC   C1B26217  12.388   1.077  -1.142
10975POPC   C2B26218  12.423   0.954  -1.295
10975POPC   C3B26219  12.459   0.830  -1.448
10975POPC   C4B26220  12.494   0.707  -1.601
10976POPC   NC326221   1.547  19.993  14.711
10976POPC   PO426222   1.429  20.140  14.778
10976POPC   GL126223   1.311  20.287  14.845
10976POPC   GL226224   1.355  20.281  14.935
10976POPC   C1A26225   1.193  20.434  14.913
10976POPC   D2A26226   1.076  20.580  14.980
10976POPC   C3A26227   0.958  20.727  15.048
10976POPC   C4A26228   0.840  20.874  15.115
10976POPC   C1B26229   1.058  20.298  14.971
10976POPC   C2B26230   0.940  20.445  15.038
10976POPC   C3B26231   0.822  20.592  15.106
10976POPC   C4B26232   0.705  20.739  15.173
10977POPC   NC326233   9.996   3.421  -2.257
10977POPC   PO426234   9.999   3.326  -2.433
10977POPC   GL126235  10.002   3.231  -2.609
10977POPC   GL226236  10.097   3.258  -2.622
10977POPC   C1A26237  10.005   3.135  -2.785
10977POPC   D2A26238  10.007   3.040  -2.960
10977POPC   C3A26239  10.010   2.944  -3.136
10977POPC   C4A26240  10.013   2.849  -3.312
10977POPC   C1B26241   9.944   3.302  -2.876
10977POPC   C2B26242   9.946   3.207  -3.052
10977POPC   C3B26243   9.949   3.111  -3.228
10977POPC   C4B26244   9.952   3.016  -3.404
10978POPC   NC326245   3.753   0.819   1.671
10978POPC   PO426246   3.662   0.691   1.547
10978POPC   GL126247   3.571   0.563   1.423
10978POPC   GL226248   3.643   0.496   1.440
10978POPC   C1A26249   3.480   0.435   1.299
10978POPC   D2A26250   3.388   0.308   1.175
10978POPC   C3A26251   3.297   0.180   1.051
10978POPC   C4A26252   3.206   0.052   0.927
10978POPC   C1B26253   3.585   0.509   1.146
10978POPC   C2B26254   3.494   0.381   1.022
10978POPC   C3B26255   3.403   0.254   0.898
10978POPC   C4B26256   3.311   0.126   0.774
10979POPC   NC326257  21.218   3.651   5.052
10979POPC   PO426258  21.381   3.558   4.982
10979POPC   GL126259  21.544   3.465   4.912
10979POPC   GL226260  21.598   3.548   4.927
10979POPC   C1A26261  21.707   3.373   4.842
10979POPC   D2A26262  21.870   3.280   4.773
10979POPC   C3A26263  22.033   3.188   4.703
10979POPC   C4A26264  22.196   3.095   4.633
10979POPC   C1B26265  21.663   3.435   4.657
10979POPC   C2B26266  21.826   3.343   4.588
10979POPC   C3B26267  21.989   3.250   4.518
10979POPC   C4B26268  22.152   3.157   4.448
10980POPC   NC326269  10.570  20.866  18.482
10980POPC   PO426270  10.585  21.021  18.607
10980POPC   GL126271  10.600  21.176  18.732
10980POPC   GL226272  10.633  21.115  18.804
10980POPC   C1A26273  10.616  21.331  18.857
10980POPC   D2A26274  10.631  21.487  18.983
10980POPC   C3A26275  10.647  21.642  19.108
10980POPC   C4A26276  10.662  21.797  19.233
10980POPC   C1B26277  10.427  21.301  18.918
10980POPC   C2B26278  10.443  21.457  19.043
10980POPC   C3B26279  10.458  21.612  19.168
10980POPC   C4B26280  10.474  21.767  19.293
10981POPC   NC326281  21.433   5.736  16.219
10981POPC   PO426282  21.600   5.682  16.315
10981POPC   GL126283  21.767   5.628  16.411
10981POPC   GL226284  21.784   5.723  16.436
10981POPC   C1A26285  21.934   5.574  16.507
10981POPC   D2A26286  22.100   5.520  16.604
10981POPC   C3A26287  22.267   5.466  16.700
10981POPC   C4A26288  22.434   5.412  16.796
10981POPC   C1B26289  22.039   5.599  16.339
10981POPC   C2B26290  22.206   5.545  16.435
10981POPC   C3B26291  22.372   5.491  16.532
10981POPC   C4B26292  22.539   5.437  16.628
10982POPC   NC326293  20.434   5.680  17.689
10982POPC   PO426294  20.588   5.622  17.803
10982POPC   GL126295  20.742   5.564  17.917
10982POPC   GL226296  20.756   5.485  17.857
10982POPC   C1A26297  20.896   5.505  18.030
10982POPC   D2A26298  21.050   5.447  18.144
10982POPC   C3A26299  21.204   5.388  18.257
10982POPC   C4A26300  21.358   5.330  18.371
10982POPC   C1B26301  20.772   5.397  18.143
10982POPC   C2B26302  20.926   5.338  18.257
10982POPC   C3B26303  21.080   5.280  18.370
10982POPC   C4B26304  21.234   5.221  18.484
10983POPC   NC326305   6.937  22.950  13.858
10983POPC   PO426306   6.891  23.135  13.918
10983POPC   GL126307   6.845  23.320  13.978
10983POPC   GL226308   6.837  23.287  14.073
10983POPC   C1A26309   6.799  23.505  14.038
10983POPC   D2A26310   6.752  23.690  14.099
10983POPC   C3A26311   6.706  23.875  14.159
10983POPC   C4A26312   6.660  24.060  14.219
10983POPC   C1B26313   6.605  23.466  14.009
10983POPC   C2B26314   6.558  23.651  14.070
10983POPC   C3B26315   6.512  23.836  14.130
10983POPC   C4B26316   6.466  24.021  14.190
10984POPC   NC326317  18.007  14.933  -0.129
10984POPC   PO426318  18.121  15.004  -0.277
10984POPC   GL126319  18.235  15.075  -0.425
10984POPC   GL226320  18.294  14.995  -0.418
10984POPC   C1A26321  18.349  15.146  -0.574
10984POPC   D2A26322  18.462  15.216  -0.722
10984POPC   C3A26323  18.576  15.287  -0.871
10984POPC   C4A26324  18.690  15.358  -1.019
10984POPC   C1B26325  18.462  15.242  -0.441
10984POPC   C2B26326  18.576  15.313  -0.589
10984POPC   C3B26327  18.690  15.384  -0.737
10984POPC   C4B26328  18.803  15.455  -0.886
10985POPC   NC326329  21.910   5.566   4.567
10985POPC   PO426330  22.083   5.501   4.491
10985POPC   GL126331  22.256   5.436   4.415
10985POPC   GL226332  22.268   5.523   4.367
10985POPC   C1A26333  22.430   5.371   4.340
10985POPC   D2A26334  22.603   5.306   4.264
10985POPC   C3A26335  22.777   5.241   4.189
10985POPC   C4A26336  22.950   5.176   4.113
10985POPC   C1B26337  22.333   5.297   4.181
10985POPC   C2B26338  22.506   5.232   4.106
10985POPC   C3B26339  22.680   5.167   4.030
10985POPC   C4B26340  22.853   5.102   3.955
10986POPC   NC326341  11.658  -3.274   6.057
10986POPC   PO426342  11.686  -3.464   6.000
10986POPC   GL126343  11.714  -3.654   5.943
10986POPC   GL226344  11.709  -3.626   5.847
10986POPC   C1A26345  11.742  -3.843   5.886
10986POPC   D2A26346  11.771  -4.033   5.830
10986POPC   C3A26347  11.799  -4.222   5.773
10986POPC   C4A26348  11.827  -4.412   5.716
10986POPC   C1B26349  11.545  -3.873   5.889
10986POPC   C2B26350  11.573  -4.063   5.832
10986POPC   C3B26351  11.601  -4.252   5.775
10986POPC   C4B26352  11.629  -4.442   5.718
10987POPC   NC326353  10.990   3.156  -2.051
10987POPC   PO426354  11.005   3.053  -2.222
10987POPC   GL126355  11.020   2.950  -2.393
10987POPC   GL226356  11.116   2.979  -2.401
10987POPC   C1A26357  11.036   2.848  -2.564
10987POPC   D2A26358  11.051   2.745  -2.735
10987POPC   C3A26359  11.067   2.643  -2.906
10987POPC   C4A26360  11.082   2.540  -3.077
10987POPC   C1B26361  10.978   3.010  -2.666
10987POPC   C2B26362  10.994   2.907  -2.837
10987POPC   C3B26363  11.009   2.805  -3.008
10987POPC   C4B26364  11.025   2.702  -3.179
10988POPC   NC326365  10.662  23.350   6.410
10988POPC   PO426366  10.677  23.543   6.361
10988POPC   GL126367  10.692  23.736   6.312
10988POPC   GL226368  10.757  23.750   6.386
10988POPC   C1A26369  10.707  23.929   6.262
10988POPC   D2A26370  10.723  24.123   6.213
10988POPC   C3A26371  10.738  24.316   6.163
10988POPC   C4A26372  10.753  24.509   6.114
10988POPC   C1B26373  10.556  23.973   6.386
10988POPC   C2B26374  10.572  24.166   6.337
10988POPC   C3B26375  10.587  24.359   6.287
10988POPC   C4B26376  10.602  24.552   6.238
10989POPC   NC326377  15.152  16.005  -1.370
10989POPC   PO426378  15.228  16.092  -1.533
10989POPC   GL126379  15.304  16.179  -1.696
10989POPC   GL226380  15.317  16.090  -1.738
10989POPC   C1A26381  15.380  16.267  -1.859
10989POPC   D2A26382  15.455  16.354  -2.023
10989POPC   C3A26383  15.531  16.442  -2.186
10989POPC   C4A26384  15.607  16.529  -2.349
10989POPC   C1B26385  15.563  16.257  -1.779
10989POPC   C2B26386  15.638  16.345  -1.943
10989POPC   C3B26387  15.714  16.432  -2.106
10989POPC   C4B26388  15.790  16.520  -2.269
10990POPC   NC326389   8.003  23.710  10.691
10990POPC   PO426390   7.982  23.909  10.700
10990POPC   GL126391   7.961  24.108  10.709
10990POPC   GL226392   8.001  24.108  10.801
10990POPC   C1A26393   7.941  24.307  10.718
10990POPC   D2A26394   7.920  24.505  10.727
10990POPC   C3A26395   7.900  24.704  10.736
10990POPC   C4A26396   7.879  24.903  10.745
10990POPC   C1B26397   7.759  24.284  10.797
10990POPC   C2B26398   7.738  24.483  10.806
10990POPC   C3B26399   7.717  24.682  10.815
10990POPC   C4B26400   7.697  24.881  10.824
10991POPC   NC326401   7.145  14.057  22.883
10991POPC   PO426402   7.113  14.097  23.076
10991POPC   GL126403   7.081  14.137  23.269
10991POPC   GL226404   7.140  14.060  23.295
10991POPC   C1A26405   7.050  14.177  23.463
10991POPC   D2A26406   7.018  14.216  23.656
10991POPC   C3A26407   6.987  14.256  23.850
10991POPC   C4A26408   6.955  14.296  24.043
10991POPC   C1B26409   6.891  14.055  23.462
10991POPC   C2B26410   6.859  14.095  23.655
10991POPC   C3B26411   6.828  14.135  23.849
10991POPC   C4B26412   6.796  14.175  24.042
10992POPC   NC326413  21.698   2.836   9.433
10992POPC   PO426414  21.870   2.734   9.421
10992POPC   GL126415  22.042   2.632   9.409
10992POPC   GL226416  22.091   2.717   9.392
10992POPC   C1A26417  22.213   2.530   9.397
10992POPC   D2A26418  22.385   2.428   9.386
10992POPC   C3A26419  22.556   2.326   9.374
10992POPC   C4A26420  22.728   2.224   9.362
10992POPC   C1B26421  22.186   2.507   9.201
10992POPC   C2B26422  22.358   2.405   9.189
10992POPC   C3B26423  22.529   2.303   9.177
10992POPC   C4B26424  22.701   2.201   9.165
10993POPC   NC326425  22.298   9.576   3.868
10993POPC   PO426426  22.476   9.571   3.778
10993POPC   GL126427  22.654   9.566   3.688
10993POPC   GL226428  22.641   9.660   3.656
10993POPC   C1A26429  22.833   9.561   3.598
10993POPC   D2A26430  23.011   9.556   3.507
10993POPC   C3A26431  23.190   9.551   3.417
10993POPC   C4A26432  23.368   9.546   3.327
10993POPC   C1B26433  22.747   9.491   3.431
10993POPC   C2B26434  22.925   9.486   3.341
10993POPC   C3B26435  23.104   9.481   3.251
10993POPC   C4B26436  23.282   9.476   3.161
10994POPC   NC326437  23.471  12.135   8.415
10994POPC   PO426438  23.669  12.158   8.398
10994POPC   GL126439  23.867  12.181   8.381
10994POPC   GL226440  23.865  12.130   8.294
10994POPC   C1A26441  24.065  12.204   8.363
10994POPC   D2A26442  24.263  12.226   8.346
10994POPC   C3A26443  24.461  12.249   8.328
10994POPC   C4A26444  24.659  12.272   8.311
10994POPC   C1B26445  24.093  12.032   8.463
10994POPC   C2B26446  24.291  12.055   8.445
10994POPC   C3B26447  24.489  12.078   8.428
10994POPC   C4B26448  24.687  12.101   8.411
10995POPC   NC326449  16.491  15.387  20.753
10995POPC   PO426450  16.601  15.459  20.904
10995POPC   GL126451  16.711  15.531  21.055
10995POPC   GL226452  16.767  15.582  20.989
10995POPC   C1A26453  16.821  15.604  21.205
10995POPC   D2A26454  16.931  15.676  21.356
10995POPC   C3A26455  17.041  15.749  21.506
10995POPC   C4A26456  17.151  15.821  21.657
10995POPC   C1B26457  16.944  15.447  21.191
10995POPC   C2B26458  17.054  15.519  21.341
10995POPC   C3B26459  17.164  15.592  21.492
10995POPC   C4B26460  17.274  15.664  21.642
10996POPC   NC326461  17.707  -1.224  11.998
10996POPC   PO426462  17.819  -1.387  12.028
10996POPC   GL126463  17.931  -1.550  12.058
10996POPC   GL226464  18.012  -1.500  12.026
10996POPC   C1A26465  18.043  -1.713  12.088
10996POPC   D2A26466  18.155  -1.876  12.117
10996POPC   C3A26467  18.267  -2.039  12.147
10996POPC   C4A26468  18.379  -2.202  12.177
10996POPC   C1B26469  18.006  -1.773  11.900
10996POPC   C2B26470  18.118  -1.936  11.930
10996POPC   C3B26471  18.230  -2.099  11.960
10996POPC   C4B26472  18.342  -2.262  11.990
10997POPC   NC326473  14.914  -0.608  17.326
10997POPC   PO426474  14.982  -0.760  17.437
10997POPC   GL126475  15.050  -0.912  17.548
10997POPC   GL226476  15.144  -0.891  17.519
10997POPC   C1A26477  15.119  -1.064  17.658
10997POPC   D2A26478  15.187  -1.216  17.769
10997POPC   C3A26479  15.256  -1.368  17.879
10997POPC   C4A26480  15.324  -1.520  17.990
10997POPC   C1B26481  15.099  -1.187  17.501
10997POPC   C2B26482  15.168  -1.339  17.612
10997POPC   C3B26483  15.236  -1.491  17.723
10997POPC   C4B26484  15.304  -1.643  17.833
10998POPC   NC326485  12.929  20.956  17.754
10998POPC   PO426486  12.971  21.114  17.869
10998POPC   GL126487  13.013  21.272  17.984
10998POPC   GL226488  13.084  21.219  18.031
10998POPC   C1A26489  13.055  21.430  18.099
10998POPC   D2A26490  13.098  21.589  18.213
10998POPC   C3A26491  13.140  21.747  18.328
10998POPC   C4A26492  13.182  21.905  18.443
10998POPC   C1B26493  12.920  21.369  18.232
10998POPC   C2B26494  12.962  21.528  18.347
10998POPC   C3B26495  13.004  21.686  18.462
10998POPC   C4B26496  13.047  21.844  18.577
10999POPC   NC326497  -2.840  12.063  15.182
10999POPC   PO426498  -3.021  12.093  15.260
10999POPC   GL126499  -3.202  12.123  15.338
10999POPC   GL226500  -3.179  12.063  15.415
10999POPC   C1A26501  -3.384  12.153  15.417
10999POPC   D2A26502  -3.565  12.184  15.495
10999POPC   C3A26503  -3.747  12.214  15.574
10999POPC   C4A26504  -3.928  12.244  15.652
10999POPC   C1B26505  -3.454  11.996  15.315
10999POPC   C2B26506  -3.635  12.026  15.394
10999POPC   C3B26507  -3.817  12.056  15.472
10999POPC   C4B26508  -3.998  12.087  15.550
11000POPC   NC326509  22.620  14.917  12.200
11000POPC   PO426510  22.804  14.988  12.231
11000POPC   GL126511  22.988  15.059  12.262
11000POPC   GL226512  23.016  15.028  12.171
11000POPC   C1A26513  23.172  15.130  12.294
11000POPC   D2A26514  23.357  15.202  12.325
11000POPC   C3A26515  23.541  15.273  12.357
11000POPC   C4A26516  23.725  15.344  12.388
11000POPC   C1B26517  23.227  14.954  12.371
11000POPC   C2B26518  23.412  15.025  12.402
11000POPC   C3B26519  23.596  15.097  12.434
11000POPC   C4B26520  23.780  15.168  12.465
11001POPC   NC326521   9.115   5.807  23.062
11001POPC   PO426522   9.099   5.743  23.251
11001POPC   GL126523   9.083   5.679  23.440
11001POPC   GL226524   9.113   5.588  23.411
11001POPC   C1A26525   9.067   5.615  23.629
11001POPC   D2A26526   9.052   5.550  23.817
11001POPC   C3A26527   9.036   5.486  24.006
11001POPC   C4A26528   9.020   5.422  24.195
11001POPC   C1B26529   8.877   5.564  23.595
11001POPC   C2B26530   8.861   5.499  23.784
11001POPC   C3B26531   8.845   5.435  23.973
11001POPC   C4B26532   8.830   5.371  24.162
11002POPC   NC326533  17.101  15.236  -0.629
11002POPC   PO426534  17.206  15.311  -0.782
11002POPC   GL126535  17.311  15.386  -0.935
11002POPC   GL226536  17.229  15.385  -0.992
11002POPC   C1A26537  17.416  15.462  -1.087
11002POPC   D2A26538  17.521  15.537  -1.240
11002POPC   C3A26539  17.626  15.613  -1.392
11002POPC   C4A26540  17.731  15.688  -1.545
11002POPC   C1B26541  17.461  15.277  -1.148
11002POPC   C2B26542  17.566  15.352  -1.301
11002POPC   C3B26543  17.671  15.427  -1.453
11002POPC   C4B26544  17.776  15.503  -1.606
11003POPC   NC326545  10.723  -1.028  18.227
11003POPC   PO426546  10.743  -1.181  18.354
11003POPC   GL126547  10.763  -1.334  18.481
11003POPC   GL226548  10.795  -1.392  18.406
11003POPC   C1A26549  10.784  -1.487  18.609
11003POPC   D2A26550  10.804  -1.639  18.736
11003POPC   C3A26551  10.825  -1.792  18.864
11003POPC   C4A26552  10.845  -1.945  18.991
11003POPC   C1B26553  10.595  -1.542  18.573
11003POPC   C2B26554  10.615  -1.695  18.700
11003POPC   C3B26555  10.636  -1.848  18.827
11003POPC   C4B26556  10.656  -2.000  18.955
11004POPC   NC326557   7.122  16.815  -1.854
11004POPC   PO426558   7.082  16.909  -2.026
11004POPC   GL126559   7.042  17.003  -2.198
11004POPC   GL226560   7.136  16.989  -2.228
11004POPC   C1A26561   7.002  17.097  -2.370
11004POPC   D2A26562   6.962  17.191  -2.541
11004POPC   C3A26563   6.922  17.285  -2.713
11004POPC   C4A26564   6.882  17.379  -2.885
11004POPC   C1B26565   7.054  17.271  -2.286
11004POPC   C2B26566   7.014  17.365  -2.458
11004POPC   C3B26567   6.974  17.459  -2.630
11004POPC   C4B26568   6.934  17.553  -2.802
11005POPC   NC326569   9.994   2.036  -1.410
11005POPC   PO426570  10.002   1.924  -1.575
11005POPC   GL126571  10.010   1.812  -1.740
11005POPC   GL226572  10.109   1.805  -1.731
11005POPC   C1A26573  10.018   1.700  -1.906
11005POPC   D2A26574  10.026   1.587  -2.071
11005POPC   C3A26575  10.034   1.475  -2.237
11005POPC   C4A26576  10.042   1.363  -2.402
11005POPC   C1B26577  10.039   1.865  -2.017
11005POPC   C2B26578  10.047   1.752  -2.182
11005POPC   C3B26579  10.055   1.640  -2.348
11005POPC   C4B26580  10.063   1.528  -2.513
11006POPC   NC326581  17.847   3.865   0.485
11006POPC   PO426582  17.968   3.778   0.351
11006POPC   GL126583  18.089   3.691   0.217
11006POPC   GL226584  18.159   3.760   0.236
11006POPC   C1A26585  18.210   3.605   0.083
11006POPC   D2A26586  18.330   3.518  -0.050
11006POPC   C3A26587  18.451   3.432  -0.184
11006POPC   C4A26588  18.572   3.345  -0.318
11006POPC   C1B26589  18.134   3.721  -0.060
11006POPC   C2B26590  18.254   3.634  -0.194
11006POPC   C3B26591  18.375   3.548  -0.328
11006POPC   C4B26592  18.496   3.461  -0.462
11007POPC   NC326593  14.871  -2.895   9.206
11007POPC   PO426594  14.945  -3.080   9.192
11007POPC   GL126595  15.019  -3.265   9.178
11007POPC   GL226596  15.111  -3.228   9.166
11007POPC   C1A26597  15.093  -3.451   9.165
11007POPC   D2A26598  15.166  -3.636   9.151
11007POPC   C3A26599  15.240  -3.822   9.138
11007POPC   C4A26600  15.314  -4.007   9.124
11007POPC   C1B26601  15.064  -3.448   8.967
11007POPC   C2B26602  15.138  -3.633   8.953
11007POPC   C3B26603  15.211  -3.819   8.940
11007POPC   C4B26604  15.285  -4.004   8.926
11008POPC   NC326605  21.560   2.706  11.565
11008POPC   PO426606  21.728   2.601  11.589
11008POPC   GL126607  21.896   2.496  11.613
11008POPC   GL226608  21.938   2.573  11.662
11008POPC   C1A26609  22.065   2.391  11.637
11008POPC   D2A26610  22.233   2.285  11.662
11008POPC   C3A26611  22.402   2.180  11.686
11008POPC   C4A26612  22.570   2.075  11.710
11008POPC   C1B26613  22.134   2.462  11.464
11008POPC   C2B26614  22.303   2.357  11.488
11008POPC   C3B26615  22.471   2.252  11.513
11008POPC   C4B26616  22.640   2.147  11.537
11009POPC   NC326617  -3.570  13.424   9.400
11009POPC   PO426618  -3.763  13.474   9.389
11009POPC   GL126619  -3.956  13.524   9.378
11009POPC   GL226620  -3.981  13.434   9.416
11009POPC   C1A26621  -4.150  13.573   9.367
11009POPC   D2A26622  -4.343  13.623   9.356
11009POPC   C3A26623  -4.537  13.672   9.345
11009POPC   C4A26624  -4.730  13.722   9.334
11009POPC   C1B26625  -4.159  13.497   9.182
11009POPC   C2B26626  -4.352  13.547   9.171
11009POPC   C3B26627  -4.546  13.596   9.160
11009POPC   C4B26628  -4.739  13.646   9.149
11010POPC   NC326629  20.307   0.867   9.703
11010POPC   PO426630  20.458   0.736   9.696
11010POPC   GL126631  20.609   0.605   9.689
11010POPC   GL226632  20.584   0.581   9.596
11010POPC   C1A26633  20.760   0.474   9.682
11010POPC   D2A26634  20.912   0.344   9.676
11010POPC   C3A26635  21.063   0.213   9.669
11010POPC   C4A26636  21.214   0.082   9.662
11010POPC   C1B26637  20.640   0.331   9.752
11010POPC   C2B26638  20.791   0.200   9.745
11010POPC   C3B26639  20.942   0.070   9.739
11010POPC   C4B26640  21.093  -0.061   9.732
11011POPC   NC326641  23.215  13.658   9.180
11011POPC   PO426642  23.406  13.716   9.169
11011POPC   GL126643  23.597  13.774   9.158
11011POPC   GL226644  23.600  13.748   9.061
11011POPC   C1A26645  23.788  13.832   9.147
11011POPC   D2A26646  23.980  13.889   9.135
11011POPC   C3A26647  24.171  13.947   9.124
11011POPC   C4A26648  24.362  14.005   9.113
11011POPC   C1B26649  23.847  13.647   9.198
11011POPC   C2B26650  24.038  13.705   9.187
11011POPC   C3B26651  24.229  13.763   9.175
11011POPC   C4B26652  24.421  13.821   9.164
11012POPC   NC326653  23.206  13.759  10.083
11012POPC   PO426654  23.398  13.814  10.087
11012POPC   GL126655  23.590  13.869  10.091
11012POPC   GL226656  23.608  13.812  10.011
11012POPC   C1A26657  23.783  13.924  10.095
11012POPC   D2A26658  23.975  13.978  10.099
11012POPC   C3A26659  24.168  14.033  10.103
11012POPC   C4A26660  24.360  14.088  10.107
11012POPC   C1B26661  23.825  13.768  10.214
11012POPC   C2B26662  24.017  13.823  10.218
11012POPC   C3B26663  24.209  13.878  10.222
11012POPC   C4B26664  24.402  13.932  10.226
11013POPC   NC326665   6.903  15.077  22.562
11013POPC   PO426666   6.867  15.148  22.745
11013POPC   GL126667   6.831  15.219  22.928
11013POPC   GL226668   6.926  15.205  22.953
11013POPC   C1A26669   6.794  15.290  23.111
11013POPC   D2A26670   6.758  15.362  23.295
11013POPC   C3A26671   6.721  15.433  23.478
11013POPC   C4A26672   6.685  15.504  23.661
11013POPC   C1B26673   6.751  15.106  23.175
11013POPC   C2B26674   6.714  15.177  23.358
11013POPC   C3B26675   6.678  15.248  23.541
11013POPC   C4B26676   6.642  15.319  23.724
11014POPC   NC326677  21.307   2.284  11.416
11014POPC   PO426678  21.472   2.173  11.439
11014POPC   GL126679  21.637   2.062  11.462
11014POPC   GL226680  21.680   2.137  11.512
11014POPC   C1A26681  21.802   1.951  11.484
11014POPC   D2A26682  21.967   1.841  11.507
11014POPC   C3A26683  22.132   1.730  11.529
11014POPC   C4A26684  22.297   1.619  11.552
11014POPC   C1B26685  21.875   2.025  11.313
11014POPC   C2B26686  22.040   1.914  11.336
11014POPC   C3B26687  22.205   1.803  11.358
11014POPC   C4B26688  22.370   1.693  11.381
11015POPC   NC326689   3.507  16.195  20.531
11015POPC   PO426690   3.406  16.280  20.681
11015POPC   GL126691   3.305  16.365  20.831
11015POPC   GL226692   3.362  16.317  20.897
11015POPC   C1A26693   3.204  16.450  20.981
11015POPC   D2A26694   3.103  16.536  21.132
11015POPC   C3A26695   3.002  16.621  21.282
11015POPC   C4A26696   2.901  16.706  21.432
11015POPC   C1B26697   3.075  16.298  20.981
11015POPC   C2B26698   2.974  16.383  21.132
11015POPC   C3B26699   2.873  16.468  21.282
11015POPC   C4B26700   2.772  16.553  21.432
11016POPC   NC326701   1.770  21.063   8.871
11016POPC   PO426702   1.656  21.226   8.849
11016POPC   GL126703   1.542  21.389   8.827
11016POPC   GL226704   1.623  21.442   8.801
11016POPC   C1A26705   1.428  21.552   8.805
11016POPC   D2A26706   1.314  21.714   8.783
11016POPC   C3A26707   1.200  21.877   8.761
11016POPC   C4A26708   1.086  22.040   8.739
11016POPC   C1B26709   1.459  21.599   8.997
11016POPC   C2B26710   1.345  21.762   8.975
11016POPC   C3B26711   1.231  21.925   8.953
11016POPC   C4B26712   1.117  22.088   8.931
11017POPC   NC326713  20.459  18.709  11.636
11017POPC   PO426714  20.611  18.835  11.666
11017POPC   GL126715  20.763  18.961  11.696
11017POPC   GL226716  20.725  19.024  11.628
11017POPC   C1A26717  20.915  19.088  11.727
11017POPC   D2A26718  21.067  19.214  11.757
11017POPC   C3A26719  21.219  19.341  11.788
11017POPC   C4A26720  21.371  19.467  11.818
11017POPC   C1B26721  21.020  18.996  11.583
11017POPC   C2B26722  21.172  19.123  11.614
11017POPC   C3B26723  21.324  19.249  11.644
11017POPC   C4B26724  21.476  19.375  11.675
11018POPC   NC326725   6.122  23.014   6.733
11018POPC   PO426726   6.068  23.201   6.689
11018POPC   GL126727   6.014  23.388   6.645
11018POPC   GL226728   6.020  23.413   6.742
11018POPC   C1A26729   5.960  23.576   6.601
11018POPC   D2A26730   5.906  23.763   6.556
11018POPC   C3A26731   5.852  23.951   6.512
11018POPC   C4A26732   5.798  24.138   6.468
11018POPC   C1B26733   5.768  23.526   6.624
11018POPC   C2B26734   5.714  23.713   6.580
11018POPC   C3B26735   5.660  23.901   6.536
11018POPC   C4B26736   5.606  24.088   6.492
11019POPC   NC326737   5.242  21.403  16.294
11019POPC   PO426738   5.174  21.569  16.383
11019POPC   GL126739   5.106  21.735  16.472
11019POPC   GL226740   5.195  21.750  16.513
11019POPC   C1A26741   5.037  21.900  16.561
11019POPC   D2A26742   4.969  22.066  16.649
11019POPC   C3A26743   4.900  22.231  16.738
11019POPC   C4A26744   4.832  22.397  16.827
11019POPC   C1B26745   4.983  21.792  16.720
11019POPC   C2B26746   4.914  21.958  16.809
11019POPC   C3B26747   4.846  22.123  16.897
11019POPC   C4B26748   4.777  22.289  16.986
11020POPC   NC326749  21.314   2.609   7.550
11020POPC   PO426750  21.480   2.503   7.518
11020POPC   GL126751  21.646   2.397   7.486
11020POPC   GL226752  21.669   2.456   7.409
11020POPC   C1A26753  21.813   2.291   7.454
11020POPC   D2A26754  21.979   2.184   7.422
11020POPC   C3A26755  22.146   2.078   7.390
11020POPC   C4A26756  22.312   1.972   7.358
11020POPC   C1B26757  21.712   2.169   7.331
11020POPC   C2B26758  21.878   2.063   7.299
11020POPC   C3B26759  22.045   1.957   7.267
11020POPC   C4B26760  22.211   1.851   7.235
11021POPC   NC326761   4.363  16.093  -1.225
11021POPC   PO426762   4.283  16.177  -1.388
11021POPC   GL126763   4.203  16.261  -1.551
11021POPC   GL226764   4.217  16.352  -1.511
11021POPC   C1A26765   4.122  16.345  -1.714
11021POPC   D2A26766   4.042  16.428  -1.876
11021POPC   C3A26767   3.961  16.512  -2.039
11021POPC   C4A26768   3.881  16.596  -2.202
11021POPC   C1B26769   3.941  16.336  -1.629
11021POPC   C2B26770   3.861  16.420  -1.792
11021POPC   C3B26771   3.780  16.504  -1.954
11021POPC   C4B26772   3.700  16.588  -2.117
11022POPC   NC326773  -0.074  11.448  19.458
11022POPC   PO426774  -0.220  11.467  19.593
11022POPC   GL126775  -0.366  11.486  19.728
11022POPC   GL226776  -0.321  11.418  19.786
11022POPC   C1A26777  -0.512  11.504  19.863
11022POPC   D2A26778  -0.659  11.523  19.999
11022POPC   C3A26779  -0.805  11.541  20.134
11022POPC   C4A26780  -0.951  11.560  20.269
11022POPC   C1B26781  -0.614  11.358  19.773
11022POPC   C2B26782  -0.761  11.376  19.909
11022POPC   C3B26783  -0.907  11.395  20.044
11022POPC   C4B26784  -1.053  11.413  20.179
11023POPC   NC326785   1.401  19.361  15.669
11023POPC   PO426786   1.277  19.495  15.750
11023POPC   GL126787   1.153  19.629  15.831
11023POPC   GL226788   1.221  19.650  15.901
11023POPC   C1A26789   1.029  19.763  15.912
11023POPC   D2A26790   0.904  19.898  15.993
11023POPC   C3A26791   0.780  20.032  16.074
11023POPC   C4A26792   0.656  20.166  16.155
11023POPC   C1B26793   0.951  19.621  16.030
11023POPC   C2B26794   0.827  19.755  16.111
11023POPC   C3B26795   0.703  19.890  16.192
11023POPC   C4B26796   0.579  20.024  16.273
11024POPC   NC326797   8.723  17.334  -1.785
11024POPC   PO426798   8.711  17.443  -1.952
11024POPC   GL126799   8.699  17.552  -2.119
11024POPC   GL226800   8.799  17.554  -2.126
11024POPC   C1A26801   8.687  17.661  -2.286
11024POPC   D2A26802   8.674  17.771  -2.454
11024POPC   C3A26803   8.662  17.880  -2.621
11024POPC   C4A26804   8.650  17.989  -2.788
11024POPC   C1B26805   8.691  17.829  -2.177
11024POPC   C2B26806   8.678  17.938  -2.345
11024POPC   C3B26807   8.666  18.047  -2.512
11024POPC   C4B26808   8.654  18.157  -2.679
11025POPC   NC326809  10.064  10.106  -3.929
11025POPC   PO426810  10.061  10.106  -4.129
11025POPC   GL126811  10.058  10.106  -4.329
11025POPC   GL226812   9.959  10.091  -4.328
11025POPC   C1A26813  10.056  10.105  -4.529
11025POPC   D2A26814  10.053  10.105  -4.729
11025POPC   C3A26815  10.051  10.104  -4.929
11025POPC   C4A26816  10.048  10.104  -5.129
11025POPC   C1B26817  10.084   9.907  -4.529
11025POPC   C2B26818  10.082   9.907  -4.729
11025POPC   C3B26819  10.079   9.906  -4.929
11025POPC   C4B26820  10.077   9.906  -5.129
11026POPC   NC326821  10.325   1.953  -1.332
11026POPC   PO426822  10.337   1.839  -1.496
11026POPC   GL126823  10.349   1.725  -1.660
11026POPC   GL226824  10.448   1.735  -1.660
11026POPC   C1A26825  10.360   1.612  -1.824
11026POPC   D2A26826  10.372   1.498  -1.989
11026POPC   C3A26827  10.383   1.385  -2.153
11026POPC   C4A26828  10.395   1.271  -2.317
11026POPC   C1B26829  10.344   1.775  -1.939
11026POPC   C2B26830  10.356   1.662  -2.103
11026POPC   C3B26831  10.367   1.548  -2.267
11026POPC   C4B26832  10.379   1.434  -2.431
11027POPC   NC326833   0.415   4.410   1.452
11027POPC   PO426834   0.285   4.327   1.325
11027POPC   GL126835   0.155   4.244   1.198
11027POPC   GL226836   0.121   4.185   1.271
11027POPC   C1A26837   0.025   4.161   1.070
11027POPC   D2A26838  -0.104   4.077   0.943
11027POPC   C3A26839  -0.234   3.994   0.815
11027POPC   C4A26840  -0.364   3.911   0.688
11027POPC   C1B26841   0.162   4.022   1.022
11027POPC   C2B26842   0.032   3.939   0.894
11027POPC   C3B26843  -0.098   3.856   0.767
11027POPC   C4B26844  -0.228   3.773   0.640
11028POPC   NC326845   9.530  11.966  -3.783
11028POPC   PO426846   9.525  11.994  -3.981
11028POPC   GL126847   9.520  12.022  -4.179
11028POPC   GL226848   9.607  11.973  -4.188
11028POPC   C1A26849   9.515  12.050  -4.377
11028POPC   D2A26850   9.510  12.077  -4.575
11028POPC   C3A26851   9.505  12.105  -4.773
11028POPC   C4A26852   9.500  12.133  -4.971
11028POPC   C1B26853   9.614  12.222  -4.355
11028POPC   C2B26854   9.609  12.250  -4.553
11028POPC   C3B26855   9.604  12.278  -4.751
11028POPC   C4B26856   9.599  12.305  -4.949
11029POPC   NC326857  15.592  -2.148   6.679
11029POPC   PO426858  15.674  -2.324   6.630
11029POPC   GL126859  15.756  -2.500   6.581
11029POPC   GL226860  15.846  -2.464   6.603
11029POPC   C1A26861  15.838  -2.676   6.532
11029POPC   D2A26862  15.919  -2.851   6.482
11029POPC   C3A26863  16.001  -3.027   6.433
11029POPC   C4A26864  16.083  -3.203   6.384
11029POPC   C1B26865  15.860  -2.612   6.343
11029POPC   C2B26866  15.942  -2.788   6.294
11029POPC   C3B26867  16.023  -2.964   6.245
11029POPC   C4B26868  16.105  -3.140   6.196
11030POPC   NC326869   8.441  22.707  15.279
11030POPC   PO426870   8.419  22.890  15.357
11030POPC   GL126871   8.397  23.073  15.435
11030POPC   GL226872   8.408  23.035  15.527
11030POPC   C1A26873   8.375  23.256  15.512
11030POPC   D2A26874   8.352  23.439  15.590
11030POPC   C3A26875   8.330  23.622  15.667
11030POPC   C4A26876   8.308  23.805  15.745
11030POPC   C1B26877   8.177  23.227  15.524
11030POPC   C2B26878   8.155  23.410  15.601
11030POPC   C3B26879   8.133  23.593  15.679
11030POPC   C4B26880   8.110  23.776  15.757
11031POPC   NC326881  16.540  17.776  19.289
11031POPC   PO426882  16.640  17.882  19.426
11031POPC   GL126883  16.740  17.988  19.563
11031POPC   GL226884  16.796  18.029  19.490
11031POPC   C1A26885  16.841  18.094  19.699
11031POPC   D2A26886  16.941  18.200  19.836
11031POPC   C3A26887  17.042  18.306  19.972
11031POPC   C4A26888  17.142  18.412  20.109
11031POPC   C1B26889  16.974  17.946  19.716
11031POPC   C2B26890  17.074  18.052  19.853
11031POPC   C3B26891  17.175  18.158  19.990
11031POPC   C4B26892  17.275  18.264  20.126
11032POPC   NC326893  12.721  19.386   0.102
11032POPC   PO426894  12.754  19.519  -0.044
11032POPC   GL126895  12.787  19.652  -0.190
11032POPC   GL226896  12.808  19.578  -0.253
11032POPC   C1A26897  12.819  19.785  -0.336
11032POPC   D2A26898  12.852  19.918  -0.481
11032POPC   C3A26899  12.884  20.051  -0.627
11032POPC   C4A26900  12.917  20.184  -0.773
11032POPC   C1B26901  13.012  19.795  -0.283
11032POPC   C2B26902  13.045  19.928  -0.429
11032POPC   C3B26903  13.077  20.061  -0.575
11032POPC   C4B26904  13.110  20.194  -0.721
11033POPC   NC326905  15.430   3.158  -0.843
11033POPC   PO426906  15.513   3.060  -0.996
11033POPC   GL126907  15.596   2.962  -1.149
11033POPC   GL226908  15.686   2.970  -1.106
11033POPC   C1A26909  15.679   2.864  -1.303
11033POPC   D2A26910  15.762   2.766  -1.456
11033POPC   C3A26911  15.845   2.668  -1.610
11033POPC   C4A26912  15.928   2.570  -1.763
11033POPC   C1B26913  15.709   3.038  -1.398
11033POPC   C2B26914  15.792   2.940  -1.551
11033POPC   C3B26915  15.875   2.842  -1.704
11033POPC   C4B26916  15.958   2.744  -1.858
11034POPC   NC326917  -2.433  14.183  14.895
11034POPC   PO426918  -2.609  14.245  14.968
11034POPC   GL126919  -2.785  14.307  15.041
11034POPC   GL226920  -2.737  14.366  15.106
11034POPC   C1A26921  -2.961  14.368  15.114
11034POPC   D2A26922  -3.136  14.430  15.186
11034POPC   C3A26923  -3.312  14.491  15.259
11034POPC   C4A26924  -3.488  14.553  15.332
11034POPC   C1B26925  -2.957  14.220  15.247
11034POPC   C2B26926  -3.133  14.281  15.320
11034POPC   C3B26927  -3.309  14.343  15.393
11034POPC   C4B26928  -3.485  14.404  15.466
11035POPC   NC326929   4.132   2.733  20.303
11035POPC   PO426930   4.040   2.633  20.450
11035POPC   GL126931   3.948   2.533  20.597
11035POPC   GL226932   3.950   2.616  20.654
11035POPC   C1A26933   3.856   2.434  20.744
11035POPC   D2A26934   3.764   2.334  20.891
11035POPC   C3A26935   3.672   2.235  21.038
11035POPC   C4A26936   3.580   2.135  21.185
11035POPC   C1B26937   4.034   2.378  20.817
11035POPC   C2B26938   3.942   2.278  20.964
11035POPC   C3B26939   3.850   2.179  21.111
11035POPC   C4B26940   3.758   2.079  21.258
11036POPC   NC326941  14.081  15.866  -1.871
11036POPC   PO426942  14.139  15.951  -2.042
11036POPC   GL126943  14.197  16.036  -2.213
11036POPC   GL226944  14.225  15.947  -2.248
11036POPC   C1A26945  14.254  16.122  -2.385
11036POPC   D2A26946  14.312  16.207  -2.556
11036POPC   C3A26947  14.369  16.293  -2.728
11036POPC   C4A26948  14.427  16.378  -2.899
11036POPC   C1B26949  14.437  16.150  -2.309
11036POPC   C2B26950  14.495  16.236  -2.481
11036POPC   C3B26951  14.552  16.321  -2.652
11036POPC   C4B26952  14.610  16.406  -2.823
11037POPC   NC326953  14.239  21.004   2.754
11037POPC   PO426954  14.306  21.164   2.653
11037POPC   GL126955  14.373  21.324   2.552
11037POPC   GL226956  14.324  21.292   2.471
11037POPC   C1A26957  14.439  21.483   2.452
11037POPC   D2A26958  14.506  21.643   2.351
11037POPC   C3A26959  14.572  21.802   2.251
11037POPC   C4A26960  14.639  21.962   2.150
11037POPC   C1B26961  14.601  21.380   2.395
11037POPC   C2B26962  14.667  21.540   2.294
11037POPC   C3B26963  14.734  21.699   2.194
11037POPC   C4B26964  14.801  21.859   2.093
11038POPC   NC326965  12.023  20.043   0.614
11038POPC   PO426966  12.042  20.186   0.476
11038POPC   GL126967  12.061  20.329   0.338
11038POPC   GL226968  12.158  20.338   0.360
11038POPC   C1A26969  12.080  20.473   0.200
11038POPC   D2A26970  12.098  20.616   0.061
11038POPC   C3A26971  12.117  20.760  -0.077
11038POPC   C4A26972  12.136  20.903  -0.215
11038POPC   C1B26973  12.037  20.611   0.337
11038POPC   C2B26974  12.056  20.755   0.199
11038POPC   C3B26975  12.074  20.898   0.061
11038POPC   C4B26976  12.093  21.041  -0.077
11039POPC   NC326977  22.192  15.404   6.875
11039POPC   PO426978  22.370  15.487   6.836
11039POPC   GL126979  22.548  15.570   6.797
11039POPC   GL226980  22.579  15.483   6.757
11039POPC   C1A26981  22.726  15.652   6.757
11039POPC   D2A26982  22.903  15.735   6.718
11039POPC   C3A26983  23.081  15.817   6.678
11039POPC   C4A26984  23.259  15.900   6.639
11039POPC   C1B26985  22.793  15.593   6.936
11039POPC   C2B26986  22.971  15.676   6.897
11039POPC   C3B26987  23.148  15.758   6.857
11039POPC   C4B26988  23.326  15.841   6.818
11040POPC   NC326989  23.442   9.308  12.436
11040POPC   PO426990  23.640   9.303  12.464
11040POPC   GL126991  23.838   9.298  12.492
11040POPC   GL226992  23.852   9.322  12.396
11040POPC   C1A26993  24.036   9.293  12.519
11040POPC   D2A26994  24.234   9.287  12.547
11040POPC   C3A26995  24.432   9.282  12.574
11040POPC   C4A26996  24.630   9.277  12.602
11040POPC   C1B26997  24.038   9.099  12.471
11040POPC   C2B26998  24.236   9.093  12.498
11040POPC   C3B26999  24.434   9.088  12.526
11040POPC   C4B27000  24.632   9.083  12.553
11041POPC   NC327001  19.868  11.592  19.319
11041POPC   PO427002  20.007  11.621  19.460
11041POPC   GL127003  20.146  11.650  19.601
11041POPC   GL227004  20.208  11.686  19.532
11041POPC   C1A27005  20.285  11.679  19.742
11041POPC   D2A27006  20.424  11.708  19.883
11041POPC   C3A27007  20.563  11.737  20.024
11041POPC   C4A27008  20.702  11.766  20.165
11041POPC   C1B27009  20.356  11.495  19.710
11041POPC   C2B27010  20.495  11.524  19.851
11041POPC   C3B27011  20.634  11.553  19.992
11041POPC   C4B27012  20.773  11.582  20.133
11042POPC   NC327013  19.118  19.811   6.687
11042POPC   PO427014  19.256  19.947   6.637
11042POPC   GL127015  19.394  20.083   6.587
11042POPC   GL227016  19.458  20.041   6.651
11042POPC   C1A27017  19.532  20.219   6.537
11042POPC   D2A27018  19.670  20.354   6.486
11042POPC   C3A27019  19.808  20.490   6.436
11042POPC   C4A27020  19.946  20.626   6.386
11042POPC   C1B27021  19.465  20.340   6.681
11042POPC   C2B27022  19.603  20.476   6.631
11042POPC   C3B27023  19.741  20.611   6.581
11042POPC   C4B27024  19.879  20.747   6.530
11043POPC   NC327025   2.511  18.265  18.290
11043POPC   PO427026   2.404  18.380  18.414
11043POPC   GL127027   2.297  18.495  18.538
11043POPC   GL227028   2.351  18.463  18.615
11043POPC   C1A27029   2.190  18.610  18.661
11043POPC   D2A27030   2.082  18.725  18.785
11043POPC   C3A27031   1.975  18.840  18.908
11043POPC   C4A27032   1.868  18.955  19.032
11043POPC   C1B27033   2.061  18.460  18.689
11043POPC   C2B27034   1.953  18.575  18.813
11043POPC   C3B27035   1.846  18.690  18.936
11043POPC   C4B27036   1.739  18.805  19.060
11044POPC   NC327037  20.576   9.764  18.705
11044POPC   PO427038  20.731   9.758  18.831
11044POPC   GL127039  20.886   9.752  18.957
11044POPC   GL227040  20.940   9.808  18.894
11044POPC   C1A27041  21.041   9.746  19.083
11044POPC   D2A27042  21.196   9.739  19.210
11044POPC   C3A27043  21.351   9.733  19.336
11044POPC   C4A27044  21.506   9.727  19.462
11044POPC   C1B27045  21.108   9.580  18.993
11044POPC   C2B27046  21.263   9.574  19.120
11044POPC   C3B27047  21.418   9.567  19.246
11044POPC   C4B27048  21.573   9.561  19.372
11045POPC   NC327049  -1.701   3.852  14.419
11045POPC   PO427050  -1.869   3.762  14.480
11045POPC   GL127051  -2.037   3.672  14.541
11045POPC   GL227052  -2.032   3.721  14.627
11045POPC   C1A27053  -2.205   3.582  14.602
11045POPC   D2A27054  -2.372   3.491  14.662
11045POPC   C3A27055  -2.540   3.401  14.723
11045POPC   C4A27056  -2.708   3.311  14.784
11045POPC   C1B27057  -2.096   3.433  14.681
11045POPC   C2B27058  -2.264   3.343  14.742
11045POPC   C3B27059  -2.432   3.253  14.802
11045POPC   C4B27060  -2.600   3.163  14.863
11046POPC   NC327061  15.424  21.158   3.936
11046POPC   PO427062  15.504  21.318   3.848
11046POPC   GL127063  15.584  21.478   3.760
11046POPC   GL227064  15.665  21.471   3.819
11046POPC   C1A27065  15.664  21.639   3.671
11046POPC   D2A27066  15.745  21.799   3.583
11046POPC   C3A27067  15.825  21.960   3.494
11046POPC   C4A27068  15.905  22.120   3.406
11046POPC   C1B27069  15.576  21.757   3.806
11046POPC   C2B27070  15.656  21.918   3.718
11046POPC   C3B27071  15.737  22.078   3.629
11046POPC   C4B27072  15.817  22.238   3.541
11047POPC   NC327073  10.971   0.182  19.536
11047POPC   PO427074  10.996   0.039  19.673
11047POPC   GL127075  11.021  -0.104  19.810
11047POPC   GL227076  11.018  -0.174  19.738
11047POPC   C1A27077  11.046  -0.247  19.947
11047POPC   D2A27078  11.071  -0.391  20.085
11047POPC   C3A27079  11.096  -0.534  20.222
11047POPC   C4A27080  11.121  -0.677  20.359
11047POPC   C1B27081  10.848  -0.261  19.969
11047POPC   C2B27082  10.873  -0.404  20.106
11047POPC   C3B27083  10.898  -0.548  20.244
11047POPC   C4B27084  10.923  -0.691  20.381
11048POPC   NC327085   6.429  14.662  22.599
11048POPC   PO427086   6.382  14.717  22.786
11048POPC   GL127087   6.335  14.772  22.973
11048POPC   GL227088   6.431  14.795  22.990
11048POPC   C1A27089   6.289  14.827  23.159
11048POPC   D2A27090   6.242  14.881  23.346
11048POPC   C3A27091   6.196  14.936  23.532
11048POPC   C4A27092   6.149  14.991  23.719
11048POPC   C1B27093   6.322  14.640  23.222
11048POPC   C2B27094   6.275  14.695  23.409
11048POPC   C3B27095   6.229  14.749  23.595
11048POPC   C4B27096   6.182  14.804  23.782
11049POPC   NC327097  11.594  -3.773   9.292
11049POPC   PO427098  11.611  -3.972   9.288
11049POPC   GL127099  11.628  -4.171   9.284
11049POPC   GL227100  11.674  -4.169   9.373
11049POPC   C1A27101  11.645  -4.370   9.280
11049POPC   D2A27102  11.661  -4.570   9.277
11049POPC   C3A27103  11.678  -4.769   9.273
11049POPC   C4A27104  11.695  -4.968   9.269
11049POPC   C1B27105  11.821  -4.354   9.188
11049POPC   C2B27106  11.838  -4.553   9.184
11049POPC   C3B27107  11.855  -4.752   9.180
11049POPC   C4B27108  11.871  -4.951   9.176
11050POPC   NC327109   5.417  20.738   2.480
11050POPC   PO427110   5.355  20.894   2.371
11050POPC   GL127111   5.293  21.050   2.262
11050POPC   GL227112   5.320  21.112   2.335
11050POPC   C1A27113   5.232  21.205   2.152
11050POPC   D2A27114   5.170  21.361   2.043
11050POPC   C3A27115   5.109  21.516   1.933
11050POPC   C4A27116   5.047  21.672   1.824
11050POPC   C1B27117   5.049  21.189   2.232
11050POPC   C2B27118   4.988  21.344   2.123
11050POPC   C3B27119   4.926  21.500   2.013
11050POPC   C4B27120   4.864  21.656   1.904
11051POPC   NC327121   9.206  10.885  -3.877
11051POPC   PO427122   9.194  10.897  -4.076
11051POPC   GL127123   9.182  10.909  -4.275
11051POPC   GL227124   9.086  10.935  -4.268
11051POPC   C1A27125   9.171  10.921  -4.475
11051POPC   D2A27126   9.159  10.932  -4.674
11051POPC   C3A27127   9.148  10.944  -4.874
11051POPC   C4A27128   9.136  10.956  -5.073
11051POPC   C1B27129   9.118  10.728  -4.483
11051POPC   C2B27130   9.107  10.740  -4.683
11051POPC   C3B27131   9.095  10.751  -4.882
11051POPC   C4B27132   9.084  10.763  -5.081
11052POPC   NC327133   8.255   9.835  -3.814
11052POPC   PO427134   8.232   9.832  -4.013
11052POPC   GL127135   8.209   9.829  -4.212
11052POPC   GL227136   8.129   9.768  -4.201
11052POPC   C1A27137   8.185   9.825  -4.410
11052POPC   D2A27138   8.162   9.822  -4.609
11052POPC   C3A27139   8.138   9.818  -4.807
11052POPC   C4A27140   8.115   9.815  -5.006
11052POPC   C1B27141   8.305   9.666  -4.422
11052POPC   C2B27142   8.282   9.662  -4.620
11052POPC   C3B27143   8.258   9.659  -4.819
11052POPC   C4B27144   8.235   9.655  -5.017
11053POPC   NC327145  -1.732  14.361   3.834
11053POPC   PO427146  -1.902  14.428   3.753
11053POPC   GL127147  -2.072  14.495   3.672
11053POPC   GL227148  -2.093  14.543   3.757
11053POPC   C1A27149  -2.242  14.562   3.591
11053POPC   D2A27150  -2.413  14.629   3.511
11053POPC   C3A27151  -2.583  14.696   3.430
11053POPC   C4A27152  -2.753  14.763   3.349
11053POPC   C1B27153  -2.338  14.400   3.660
11053POPC   C2B27154  -2.508  14.467   3.579
11053POPC   C3B27155  -2.679  14.534   3.498
11053POPC   C4B27156  -2.849  14.601   3.417
11054POPC   NC327157  14.309  22.530   6.298
11054POPC   PO427158  14.370  22.712   6.242
11054POPC   GL127159  14.431  22.894   6.186
11054POPC   GL227160  14.515  22.855   6.149
11054POPC   C1A27161  14.491  23.076   6.129
11054POPC   D2A27162  14.552  23.258   6.073
11054POPC   C3A27163  14.612  23.440   6.016
11054POPC   C4A27164  14.673  23.622   5.960
11054POPC   C1B27165  14.579  23.102   6.307
11054POPC   C2B27166  14.640  23.284   6.250
11054POPC   C3B27167  14.701  23.466   6.194
11054POPC   C4B27168  14.761  23.648   6.138
11055POPC   NC327169  19.189  17.948  16.281
11055POPC   PO427170  19.322  18.072  16.364
11055POPC   GL127171  19.455  18.196  16.447
11055POPC   GL227172  19.487  18.222  16.356
11055POPC   C1A27173  19.588  18.320  16.530
11055POPC   D2A27174  19.722  18.443  16.614
11055POPC   C3A27175  19.855  18.567  16.697
11055POPC   C4A27176  19.988  18.691  16.780
11055POPC   C1B27177  19.723  18.172  16.535
11055POPC   C2B27178  19.856  18.296  16.618
11055POPC   C3B27179  19.989  18.419  16.701
11055POPC   C4B27180  20.123  18.543  16.785
11056POPC   NC327181  -1.827  16.785   6.846
11056POPC   PO427182  -1.999  16.874   6.794
11056POPC   GL127183  -2.171  16.963   6.742
11056POPC   GL227184  -2.201  16.960   6.837
11056POPC   C1A27185  -2.342  17.051   6.690
11056POPC   D2A27186  -2.514  17.140   6.637
11056POPC   C3A27187  -2.685  17.228   6.585
11056POPC   C4A27188  -2.857  17.317   6.533
11056POPC   C1B27189  -2.425  16.872   6.659
11056POPC   C2B27190  -2.597  16.961   6.606
11056POPC   C3B27191  -2.768  17.049   6.554
11056POPC   C4B27192  -2.940  17.138   6.502
11057POPC   NC327193   7.785   8.257  -3.632
11057POPC   PO427194   7.757   8.230  -3.828
11057POPC   GL127195   7.729   8.203  -4.024
11057POPC   GL227196   7.638   8.167  -4.006
11057POPC   C1A27197   7.702   8.176  -4.220
11057POPC   D2A27198   7.674   8.149  -4.417
11057POPC   C3A27199   7.647   8.122  -4.613
11057POPC   C4A27200   7.619   8.095  -4.809
11057POPC   C1B27201   7.777   7.991  -4.205
11057POPC   C2B27202   7.749   7.964  -4.402
11057POPC   C3B27203   7.721   7.937  -4.598
11057POPC   C4B27204   7.694   7.910  -4.794
11058POPC   NC327205  13.313  -3.137   7.090
11058POPC   PO427206  13.375  -3.322   7.048
11058POPC   GL127207  13.437  -3.507   7.006
11058POPC   GL227208  13.526  -3.487   7.047
11058POPC   C1A27209  13.499  -3.693   6.963
11058POPC   D2A27210  13.560  -3.878   6.921
11058POPC   C3A27211  13.622  -4.064   6.878
11058POPC   C4A27212  13.684  -4.249   6.836
11058POPC   C1B27213  13.567  -3.630   6.786
11058POPC   C2B27214  13.629  -3.815   6.744
11058POPC   C3B27215  13.691  -4.000   6.701
11058POPC   C4B27216  13.752  -4.186   6.659
11059POPC   NC327217  12.796  18.156  20.751
11059POPC   PO427218  12.837  18.271  20.909
11059POPC   GL127219  12.878  18.386  21.067
11059POPC   GL227220  12.976  18.370  21.054
11059POPC   C1A27221  12.919  18.502  21.225
11059POPC   D2A27222  12.960  18.617  21.384
11059POPC   C3A27223  13.001  18.733  21.542
11059POPC   C4A27224  13.042  18.848  21.700
11059POPC   C1B27225  12.909  18.342  21.345
11059POPC   C2B27226  12.950  18.457  21.503
11059POPC   C3B27227  12.991  18.573  21.661
11059POPC   C4B27228  13.032  18.688  21.820
11060POPC   NC327229  12.660  12.746  23.208
11060POPC   PO427230  12.695  12.790  23.400
11060POPC   GL127231  12.730  12.834  23.592
11060POPC   GL227232  12.828  12.836  23.573
11060POPC   C1A27233  12.765  12.879  23.784
11060POPC   D2A27234  12.801  12.923  23.975
11060POPC   C3A27235  12.836  12.968  24.167
11060POPC   C4A27236  12.871  13.012  24.359
11060POPC   C1B27237  12.778  12.684  23.826
11060POPC   C2B27238  12.813  12.728  24.018
11060POPC   C3B27239  12.848  12.773  24.210
11060POPC   C4B27240  12.883  12.817  24.402
11061POPC   NC327241  20.308   6.674   1.410
11061POPC   PO427242  20.457   6.623   1.286
11061POPC   GL127243  20.606   6.572   1.162
11061POPC   GL227244  20.561   6.622   1.088
11061POPC   C1A27245  20.754   6.522   1.038
11061POPC   D2A27246  20.903   6.471   0.914
11061POPC   C3A27247  21.051   6.421   0.790
11061POPC   C4A27248  21.200   6.370   0.666
11061POPC   C1B27249  20.655   6.356   0.987
11061POPC   C2B27250  20.803   6.305   0.863
11061POPC   C3B27251  20.952   6.255   0.739
11061POPC   C4B27252  21.101   6.204   0.615
11062POPC   NC327253   8.629  22.157  16.489
11062POPC   PO427254   8.610  22.333  16.582
11062POPC   GL127255   8.591  22.509  16.675
11062POPC   GL227256   8.670  22.488  16.732
11062POPC   C1A27257   8.571  22.685  16.768
11062POPC   D2A27258   8.552  22.861  16.862
11062POPC   C3A27259   8.532  23.037  16.955
11062POPC   C4A27260   8.513  23.213  17.048
11062POPC   C1B27261   8.452  22.600  16.905
11062POPC   C2B27262   8.433  22.776  16.998
11062POPC   C3B27263   8.413  22.952  17.091
11062POPC   C4B27264   8.394  23.128  17.184
11063POPC   NC327265   4.593  14.729  21.891
11063POPC   PO427266   4.507  14.794  22.060
11063POPC   GL127267   4.421  14.859  22.229
11063POPC   GL227268   4.470  14.945  22.220
11063POPC   C1A27269   4.336  14.924  22.398
11063POPC   D2A27270   4.250  14.988  22.566
11063POPC   C3A27271   4.165  15.053  22.735
11063POPC   C4A27272   4.079  15.118  22.904
11063POPC   C1B27273   4.488  14.848  22.504
11063POPC   C2B27274   4.402  14.913  22.672
11063POPC   C3B27275   4.316  14.978  22.841
11063POPC   C4B27276   4.231  15.042  23.010
11064POPC   NC327277  -2.199   8.984  16.677
11064POPC   PO427278  -2.374   8.971  16.773
11064POPC   GL127279  -2.549   8.958  16.869
11064POPC   GL227280  -2.537   8.859  16.878
11064POPC   C1A27281  -2.724   8.946  16.965
11064POPC   D2A27282  -2.899   8.933  17.061
11064POPC   C3A27283  -3.074   8.921  17.157
11064POPC   C4A27284  -3.249   8.908  17.253
11064POPC   C1B27285  -2.818   8.919  16.790
11064POPC   C2B27286  -2.993   8.906  16.886
11064POPC   C3B27287  -3.168   8.894  16.982
11064POPC   C4B27288  -3.343   8.881  17.078
11065POPC   NC327289  14.112   0.418   0.906
11065POPC   PO427290  14.170   0.278   0.775
11065POPC   GL127291  14.228   0.138   0.644
11065POPC   GL227292  14.319   0.181   0.639
11065POPC   C1A27293  14.287  -0.002   0.514
11065POPC   D2A27294  14.345  -0.141   0.383
11065POPC   C3A27295  14.404  -0.281   0.253
11065POPC   C4A27296  14.462  -0.421   0.122
11065POPC   C1B27297  14.223   0.113   0.363
11065POPC   C2B27298  14.281  -0.027   0.232
11065POPC   C3B27299  14.339  -0.167   0.102
11065POPC   C4B27300  14.398  -0.307  -0.029
11066POPC   NC327301  22.330   4.124  11.477
11066POPC   PO427302  22.510   4.040  11.500
11066POPC   GL127303  22.690   3.956  11.523
11066POPC   GL227304  22.724   4.006  11.443
11066POPC   C1A27305  22.870   3.872  11.546
11066POPC   D2A27306  23.050   3.787  11.568
11066POPC   C3A27307  23.230   3.703  11.591
11066POPC   C4A27308  23.410   3.619  11.614
11066POPC   C1B27309  22.815   3.721  11.427
11066POPC   C2B27310  22.995   3.637  11.449
11066POPC   C3B27311  23.175   3.552  11.472
11066POPC   C4B27312  23.355   3.468  11.495
11067POPC   NC327313  19.211   0.176   6.993
11067POPC   PO427314  19.346   0.035   6.951
11067POPC   GL127315  19.481  -0.106   6.909
11067POPC   GL227316  19.485  -0.074   6.814
11067POPC   C1A27317  19.617  -0.247   6.866
11067POPC   D2A27318  19.752  -0.388   6.824
11067POPC   C3A27319  19.888  -0.529   6.781
11067POPC   C4A27320  20.023  -0.670   6.739
11067POPC   C1B27321  19.470  -0.374   6.817
11067POPC   C2B27322  19.605  -0.515   6.775
11067POPC   C3B27323  19.741  -0.656   6.733
11067POPC   C4B27324  19.876  -0.797   6.690
11068POPC   NC327325   2.475   5.414  -0.846
11068POPC   PO427326   2.366   5.342  -0.997
11068POPC   GL127327   2.257   5.270  -1.148
11068POPC   GL227328   2.177   5.266  -1.089
11068POPC   C1A27329   2.147   5.199  -1.300
11068POPC   D2A27330   2.038   5.127  -1.451
11068POPC   C3A27331   1.928   5.056  -1.603
11068POPC   C4A27332   1.819   4.984  -1.754
11068POPC   C1B27333   2.196   5.012  -1.247
11068POPC   C2B27334   2.087   4.941  -1.399
11068POPC   C3B27335   1.977   4.869  -1.550
11068POPC   C4B27336   1.868   4.797  -1.701
11069POPC   NC327337  15.591  16.538  -0.849
11069POPC   PO427338  15.675  16.631  -1.005
11069POPC   GL127339  15.759  16.724  -1.161
11069POPC   GL227340  15.781  16.636  -1.202
11069POPC   C1A27341  15.843  16.817  -1.317
11069POPC   D2A27342  15.926  16.910  -1.472
11069POPC   C3A27343  16.010  17.003  -1.628
11069POPC   C4A27344  16.094  17.096  -1.784
11069POPC   C1B27345  16.019  16.818  -1.222
11069POPC   C2B27346  16.102  16.911  -1.377
11069POPC   C3B27347  16.186  17.004  -1.533
11069POPC   C4B27348  16.270  17.097  -1.689
11070POPC   NC327349  21.179  10.370  17.932
11070POPC   PO427350  21.342  10.371  18.048
11070POPC   GL127351  21.505  10.372  18.164
11070POPC   GL227352  21.550  10.434  18.101
11070POPC   C1A27353  21.667  10.372  18.281
11070POPC   D2A27354  21.830  10.373  18.397
11070POPC   C3A27355  21.992  10.373  18.514
11070POPC   C4A27356  22.155  10.374  18.630
11070POPC   C1B27357  21.740  10.216  18.179
11070POPC   C2B27358  21.903  10.217  18.296
11070POPC   C3B27359  22.066  10.217  18.412
11070POPC   C4B27360  22.228  10.218  18.529
11071POPC   NC327361   7.288   6.579  23.049
11071POPC   PO427362   7.252   6.521  23.237
11071POPC   GL127363   7.216   6.463  23.425
11071POPC   GL227364   7.302   6.505  23.454
11071POPC   C1A27365   7.179   6.406  23.613
11071POPC   D2A27366   7.143   6.348  23.801
11071POPC   C3A27367   7.106   6.291  23.989
11071POPC   C4A27368   7.070   6.233  24.177
11071POPC   C1B27369   7.274   6.233  23.578
11071POPC   C2B27370   7.237   6.175  23.766
11071POPC   C3B27371   7.201   6.118  23.954
11071POPC   C4B27372   7.164   6.060  24.142
11072POPC   NC327373  -1.642  11.440  17.465
11072POPC   PO427374  -1.806  11.457  17.578
11072POPC   GL127375  -1.970  11.474  17.691
11072POPC   GL227376  -1.939  11.563  17.723
11072POPC   C1A27377  -2.134  11.490  17.804
11072POPC   D2A27378  -2.299  11.507  17.916
11072POPC   C3A27379  -2.463  11.523  18.029
11072POPC   C4A27380  -2.627  11.540  18.142
11072POPC   C1B27381  -2.039  11.401  17.955
11072POPC   C2B27382  -2.203  11.418  18.068
11072POPC   C3B27383  -2.368  11.434  18.181
11072POPC   C4B27384  -2.532  11.451  18.294
11073POPC   NC327385  14.351  23.048   9.478
11073POPC   PO427386  14.423  23.234   9.470
11073POPC   GL127387  14.495  23.420   9.462
11073POPC   GL227388  14.494  23.416   9.362
11073POPC   C1A27389  14.567  23.607   9.453
11073POPC   D2A27390  14.638  23.793   9.445
11073POPC   C3A27391  14.710  23.980   9.436
11073POPC   C4A27392  14.782  24.166   9.428
11073POPC   C1B27393  14.753  23.535   9.454
11073POPC   C2B27394  14.825  23.721   9.445
11073POPC   C3B27395  14.897  23.908   9.437
11073POPC   C4B27396  14.969  24.094   9.429
11074POPC   NC327397   7.174  -3.432  12.080
11074POPC   PO427398   7.138  -3.627  12.108
11074POPC   GL127399   7.102  -3.822  12.136
11074POPC   GL227400   7.138  -3.815  12.229
11074POPC   C1A27401   7.065  -4.016  12.164
11074POPC   D2A27402   7.029  -4.211  12.191
11074POPC   C3A27403   6.992  -4.405  12.219
11074POPC   C4A27404   6.956  -4.600  12.247
11074POPC   C1B27405   7.248  -4.060  12.096
11074POPC   C2B27406   7.212  -4.255  12.124
11074POPC   C3B27407   7.175  -4.449  12.151
11074POPC   C4B27408   7.139  -4.644  12.179
11075POPC   NC327409   1.652  15.086  19.753
11075POPC   PO427410   1.535  15.159  19.898
11075POPC   GL127411   1.418  15.232  20.043
11075POPC   GL227412   1.499  15.258  20.095
11075POPC   C1A27413   1.301  15.305  20.188
11075POPC   D2A27414   1.183  15.378  20.332
11075POPC   C3A27415   1.066  15.451  20.477
11075POPC   C4A27416   0.949  15.524  20.622
11075POPC   C1B27417   1.301  15.126  20.278
11075POPC   C2B27418   1.183  15.199  20.423
11075POPC   C3B27419   1.066  15.272  20.567
11075POPC   C4B27420   0.949  15.345  20.712
11076POPC   NC327421   4.776  -2.347  13.728
11076POPC   PO427422   4.703  -2.525  13.781
11076POPC   GL127423   4.630  -2.703  13.834
11076POPC   GL227424   4.723  -2.739  13.843
11076POPC   C1A27425   4.557  -2.882  13.887
11076POPC   D2A27426   4.484  -3.060  13.941
11076POPC   C3A27427   4.411  -3.239  13.994
11076POPC   C4A27428   4.338  -3.417  14.047
11076POPC   C1B27429   4.554  -2.938  13.695
11076POPC   C2B27430   4.481  -3.116  13.749
11076POPC   C3B27431   4.408  -3.295  13.802
11076POPC   C4B27432   4.335  -3.473  13.855
11077POPC   NC327433  17.738  13.182  20.707
11077POPC   PO427434  17.856  13.233  20.860
11077POPC   GL127435  17.974  13.284  21.013
11077POPC   GL227436  18.024  13.346  20.954
11077POPC   C1A27437  18.092  13.335  21.167
11077POPC   D2A27438  18.209  13.386  21.320
11077POPC   C3A27439  18.327  13.437  21.474
11077POPC   C4A27440  18.445  13.488  21.627
11077POPC   C1B27441  18.218  13.187  21.119
11077POPC   C2B27442  18.335  13.238  21.273
11077POPC   C3B27443  18.453  13.289  21.426
11077POPC   C4B27444  18.571  13.340  21.579
11078POPC   NC327445   3.857  20.730   3.693
11078POPC   PO427446   3.763  20.884   3.607
11078POPC   GL127447   3.669  21.038   3.521
11078POPC   GL227448   3.736  21.101   3.561
11078POPC   C1A27449   3.575  21.192   3.435
11078POPC   D2A27450   3.480  21.346   3.350
11078POPC   C3A27451   3.386  21.500   3.264
11078POPC   C4A27452   3.292  21.654   3.178
11078POPC   C1B27453   3.460  21.212   3.598
11078POPC   C2B27454   3.365  21.366   3.512
11078POPC   C3B27455   3.271  21.520   3.426
11078POPC   C4B27456   3.177  21.674   3.340
11079POPC   NC327457  23.397   8.764   7.556
11079POPC   PO427458  23.594   8.748   7.524
11079POPC   GL127459  23.791   8.732   7.492
11079POPC   GL227460  23.795   8.830   7.470
11079POPC   C1A27461  23.988   8.716   7.459
11079POPC   D2A27462  24.184   8.700   7.427
11079POPC   C3A27463  24.381   8.684   7.394
11079POPC   C4A27464  24.578   8.668   7.362
11079POPC   C1B27465  23.953   8.676   7.266
11079POPC   C2B27466  24.149   8.660   7.234
11079POPC   C3B27467  24.346   8.644   7.202
11079POPC   C4B27468  24.543   8.628   7.169
11080POPC   NC327469  11.077  -2.108   3.258
11080POPC   PO427470  11.093  -2.281   3.159
11080POPC   GL127471  11.109  -2.454   3.060
11080POPC   GL227472  11.145  -2.498   3.142
11080POPC   C1A27473  11.124  -2.627   2.961
11080POPC   D2A27474  11.140  -2.801   2.862
11080POPC   C3A27475  11.155  -2.974   2.763
11080POPC   C4A27476  11.171  -3.147   2.664
11080POPC   C1B27477  11.310  -2.579   2.905
11080POPC   C2B27478  11.325  -2.752   2.806
11080POPC   C3B27479  11.341  -2.925   2.707
11080POPC   C4B27480  11.357  -3.098   2.608
11081POPC   NC327481  13.937  22.236  14.931
11081POPC   PO427482  13.999  22.411  15.005
11081POPC   GL127483  14.061  22.586  15.079
11081POPC   GL227484  14.056  22.627  14.988
11081POPC   C1A27485  14.122  22.761  15.154
11081POPC   D2A27486  14.184  22.937  15.228
11081POPC   C3A27487  14.245  23.112  15.303
11081POPC   C4A27488  14.307  23.287  15.377
11081POPC   C1B27489  14.312  22.709  15.120
11081POPC   C2B27490  14.374  22.884  15.194
11081POPC   C3B27491  14.435  23.059  15.269
11081POPC   C4B27492  14.497  23.234  15.343
11082POPC   NC327493   5.159  20.341   2.074
11082POPC   PO427494   5.094  20.493   1.962
11082POPC   GL127495   5.029  20.645   1.850
11082POPC   GL227496   5.044  20.708   1.926
11082POPC   C1A27497   4.964  20.797   1.738
11082POPC   D2A27498   4.898  20.950   1.625
11082POPC   C3A27499   4.833  21.102   1.513
11082POPC   C4A27500   4.768  21.254   1.401
11082POPC   C1B27501   4.777  20.765   1.801
11082POPC   C2B27502   4.712  20.917   1.689
11082POPC   C3B27503   4.647  21.069   1.577
11082POPC   C4B27504   4.581  21.221   1.465
11083POPC   NC327505   2.192  14.624  20.393
11083POPC   PO427506   2.079  14.691  20.544
11083POPC   GL127507   1.966  14.758  20.695
11083POPC   GL227508   2.048  14.766  20.752
11083POPC   C1A27509   1.854  14.825  20.846
11083POPC   D2A27510   1.741  14.892  20.997
11083POPC   C3A27511   1.629  14.959  21.148
11083POPC   C4A27512   1.516  15.026  21.299
11083POPC   C1B27513   1.827  14.637  20.910
11083POPC   C2B27514   1.715  14.704  21.061
11083POPC   C3B27515   1.602  14.771  21.212
11083POPC   C4B27516   1.490  14.838  21.363
11084POPC   NC327517  19.438  19.674   7.259
11084POPC   PO427518  19.580  19.809   7.217
11084POPC   GL127519  19.722  19.944   7.175
11084POPC   GL227520  19.674  19.968   7.091
11084POPC   C1A27521  19.864  20.078   7.133
11084POPC   D2A27522  20.005  20.213   7.091
11084POPC   C3A27523  20.147  20.347   7.049
11084POPC   C4A27524  20.289  20.482   7.007
11084POPC   C1B27525  19.967  19.939   7.034
11084POPC   C2B27526  20.109  20.073   6.992
11084POPC   C3B27527  20.251  20.208   6.950
11084POPC   C4B27528  20.392  20.342   6.908
11085POPC   NC327529  -3.737  11.922   8.352
11085POPC   PO427530  -3.933  11.949   8.321
11085POPC   GL127531  -4.129  11.976   8.290
11085POPC   GL227532  -4.149  11.924   8.373
11085POPC   C1A27533  -4.324  12.004   8.258
11085POPC   D2A27534  -4.520  12.031   8.227
11085POPC   C3A27535  -4.715  12.059   8.195
11085POPC   C4A27536  -4.911  12.086   8.164
11085POPC   C1B27537  -4.331  11.835   8.151
11085POPC   C2B27538  -4.526  11.863   8.119
11085POPC   C3B27539  -4.722  11.890   8.088
11085POPC   C4B27540  -4.917  11.917   8.057
11086POPC   NC327541  21.321  16.082  14.887
11086POPC   PO427542  21.485  16.174  14.955
11086POPC   GL127543  21.649  16.266  15.023
11086POPC   GL227544  21.692  16.257  14.932
11086POPC   C1A27545  21.814  16.357  15.090
11086POPC   D2A27546  21.978  16.449  15.158
11086POPC   C3A27547  22.143  16.540  15.225
11086POPC   C4A27548  22.307  16.632  15.293
11086POPC   C1B27549  21.890  16.180  15.144
11086POPC   C2B27550  22.055  16.272  15.211
11086POPC   C3B27551  22.219  16.363  15.279
11086POPC   C4B27552  22.384  16.455  15.346
11087POPC   NC327553  22.881  13.140   6.208
11087POPC   PO427554  23.068  13.185   6.155
11087POPC   GL127555  23.255  13.230   6.102
11087POPC   GL227556  23.225  13.249   6.009
11087POPC   C1A27557  23.443  13.276   6.050
11087POPC   D2A27558  23.630  13.321   5.997
11087POPC   C3A27559  23.818  13.367   5.945
11087POPC   C4A27560  24.005  13.412   5.892
11087POPC   C1B27561  23.476  13.085   6.001
11087POPC   C2B27562  23.663  13.130   5.949
11087POPC   C3B27563  23.850  13.175   5.896
11087POPC   C4B27564  24.038  13.221   5.843
11088POPC   NC327565   1.277  13.876  -0.209
11088POPC   PO427566   1.157  13.928  -0.360
11088POPC   GL127567   1.037  13.980  -0.511
11088POPC   GL227568   0.963  13.997  -0.447
11088POPC   C1A27569   0.917  14.032  -0.663
11088POPC   D2A27570   0.798  14.084  -0.814
11088POPC   C3A27571   0.678  14.136  -0.966
11088POPC   C4A27572   0.558  14.188  -1.117
11088POPC   C1B27573   0.858  13.842  -0.681
11088POPC   C2B27574   0.738  13.894  -0.833
11088POPC   C3B27575   0.619  13.946  -0.984
11088POPC   C4B27576   0.499  13.998  -1.136
11089POPC   NC327577   1.265  18.044  17.237
11089POPC   PO427578   1.139  18.158  17.342
11089POPC   GL127579   1.013  18.272  17.447
11089POPC   GL227580   1.082  18.345  17.451
11089POPC   C1A27581   0.887  18.386  17.553
11089POPC   D2A27582   0.761  18.500  17.658
11089POPC   C3A27583   0.635  18.614  17.764
11089POPC   C4A27584   0.509  18.728  17.869
11089POPC   C1B27585   0.960  18.309  17.723
11089POPC   C2B27586   0.834  18.423  17.828
11089POPC   C3B27587   0.708  18.537  17.933
11089POPC   C4B27588   0.582  18.651  18.039
11090POPC   NC327589   5.946   3.208  -1.561
11090POPC   PO427590   5.883   3.107  -1.721
11090POPC   GL127591   5.820   3.006  -1.881
11090POPC   GL227592   5.907   2.957  -1.885
11090POPC   C1A27593   5.757   2.904  -2.042
11090POPC   D2A27594   5.695   2.803  -2.202
11090POPC   C3A27595   5.632   2.701  -2.363
11090POPC   C4A27596   5.569   2.600  -2.523
11090POPC   C1B27597   5.832   3.047  -2.161
11090POPC   C2B27598   5.769   2.945  -2.321
11090POPC   C3B27599   5.706   2.844  -2.482
11090POPC   C4B27600   5.643   2.742  -2.642
11091POPC   NC327601  21.104   1.906   9.522
11091POPC   PO427602  21.267   1.791   9.512
11091POPC   GL127603  21.430   1.676   9.502
11091POPC   GL227604  21.434   1.690   9.403
11091POPC   C1A27605  21.594   1.561   9.492
11091POPC   D2A27606  21.757   1.446   9.481
11091POPC   C3A27607  21.921   1.331   9.471
11091POPC   C4A27608  22.084   1.216   9.461
11091POPC   C1B27609  21.479   1.400   9.464
11091POPC   C2B27610  21.642   1.285   9.454
11091POPC   C3B27611  21.805   1.170   9.443
11091POPC   C4B27612  21.969   1.055   9.433
11092POPC   NC327613  10.539  18.769  -0.697
11092POPC   PO427614  10.547  18.898  -0.850
11092POPC   GL127615  10.555  19.027  -1.003
11092POPC   GL227616  10.587  19.098  -0.941
11092POPC   C1A27617  10.563  19.155  -1.156
11092POPC   D2A27618  10.570  19.284  -1.309
11092POPC   C3A27619  10.578  19.412  -1.462
11092POPC   C4A27620  10.586  19.541  -1.615
11092POPC   C1B27621  10.374  19.210  -1.120
11092POPC   C2B27622  10.381  19.338  -1.273
11092POPC   C3B27623  10.389  19.467  -1.426
11092POPC   C4B27624  10.397  19.595  -1.579
11093POPC   NC327625  -2.893  11.426   4.843
11093POPC   PO427626  -3.080  11.447   4.775
11093POPC   GL127627  -3.267  11.468   4.707
11093POPC   GL227628  -3.302  11.461   4.801
11093POPC   C1A27629  -3.454  11.490   4.639
11093POPC   D2A27630  -3.641  11.511   4.572
11093POPC   C3A27631  -3.828  11.533   4.504
11093POPC   C4A27632  -4.015  11.554   4.436
11093POPC   C1B27633  -3.469  11.292   4.618
11093POPC   C2B27634  -3.656  11.313   4.550
11093POPC   C3B27635  -3.843  11.334   4.482
11093POPC   C4B27636  -4.030  11.356   4.414
11094POPC   NC327637   7.658   3.757  22.033
11094POPC   PO427638   7.626   3.674  22.212
11094POPC   GL127639   7.594   3.591  22.391
11094POPC   GL227640   7.692   3.595  22.411
11094POPC   C1A27641   7.561   3.508  22.570
11094POPC   D2A27642   7.529   3.426  22.750
11094POPC   C3A27643   7.496   3.343  22.929
11094POPC   C4A27644   7.464   3.260  23.108
11094POPC   C1B27645   7.583   3.326  22.490
11094POPC   C2B27646   7.551   3.244  22.669
11094POPC   C3B27647   7.519   3.161  22.849
11094POPC   C4B27648   7.486   3.078  23.028
11095POPC   NC327649   5.186  18.468  -0.066
11095POPC   PO427650   5.122  18.593  -0.208
11095POPC   GL127651   5.058  18.718  -0.350
11095POPC   GL227652   5.139  18.698  -0.405
11095POPC   C1A27653   4.994  18.844  -0.492
11095POPC   D2A27654   4.931  18.969  -0.635
11095POPC   C3A27655   4.867  19.095  -0.777
11095POPC   C4A27656   4.803  19.220  -0.919
11095POPC   C1B27657   5.092  18.994  -0.404
11095POPC   C2B27658   5.028  19.120  -0.546
11095POPC   C3B27659   4.964  19.245  -0.688
11095POPC   C4B27660   4.900  19.370  -0.830
11096POPC   NC327661   6.277  -1.361  17.067
11096POPC   PO427662   6.225  -1.524  17.171
11096POPC   GL127663   6.173  -1.687  17.275
11096POPC   GL227664   6.215  -1.647  17.357
11096POPC   C1A27665   6.122  -1.850  17.379
11096POPC   D2A27666   6.070  -2.012  17.483
11096POPC   C3A27667   6.019  -2.175  17.587
11096POPC   C4A27668   5.967  -2.338  17.691
11096POPC   C1B27669   6.297  -1.935  17.332
11096POPC   C2B27670   6.245  -2.098  17.436
11096POPC   C3B27671   6.193  -2.261  17.540
11096POPC   C4B27672   6.142  -2.423  17.644
11097POPC   NC327673  12.237   0.210  19.295
11097POPC   PO427674  12.267   0.067  19.431
11097POPC   GL127675  12.297  -0.076  19.567
11097POPC   GL227676  12.394  -0.053  19.570
11097POPC   C1A27677  12.327  -0.219  19.704
11097POPC   D2A27678  12.358  -0.363  19.840
11097POPC   C3A27679  12.388  -0.506  19.977
11097POPC   C4A27680  12.418  -0.649  20.113
11097POPC   C1B27681  12.363  -0.351  19.558
11097POPC   C2B27682  12.393  -0.494  19.694
11097POPC   C3B27683  12.423  -0.638  19.830
11097POPC   C4B27684  12.454  -0.781  19.967
11098POPC   NC327685   6.564   2.326  21.049
11098POPC   PO427686   6.523   2.219  21.213
11098POPC   GL127687   6.482   2.112  21.377
11098POPC   GL227688   6.554   2.047  21.353
11098POPC   C1A27689   6.441   2.004  21.540
11098POPC   D2A27690   6.399   1.897  21.704
11098POPC   C3A27691   6.358   1.789  21.867
11098POPC   C4A27692   6.317   1.682  22.031
11098POPC   C1B27693   6.309   1.895  21.436
11098POPC   C2B27694   6.268   1.788  21.599
11098POPC   C3B27695   6.227   1.681  21.763
11098POPC   C4B27696   6.186   1.573  21.927
11099POPC   NC327697  21.390  13.956   3.331
11099POPC   PO427698  21.556  14.011   3.233
11099POPC   GL127699  21.722  14.066   3.135
11099POPC   GL227700  21.675  14.052   3.048
11099POPC   C1A27701  21.887  14.121   3.037
11099POPC   D2A27702  22.053  14.175   2.940
11099POPC   C3A27703  22.218  14.230   2.842
11099POPC   C4A27704  22.384  14.285   2.744
11099POPC   C1B27705  21.948  13.930   3.034
11099POPC   C2B27706  22.114  13.985   2.936
11099POPC   C3B27707  22.279  14.040   2.838
11099POPC   C4B27708  22.445  14.095   2.740
11100POPC   NC327709  12.873   8.148  -3.503
11100POPC   PO427710  12.922   8.118  -3.695
11100POPC   GL127711  12.971   8.088  -3.887
11100POPC   GL227712  12.966   8.187  -3.903
11100POPC   C1A27713  13.019   8.058  -4.079
11100POPC   D2A27714  13.068   8.029  -4.270
11100POPC   C3A27715  13.116   7.999  -4.462
11100POPC   C4A27716  13.165   7.969  -4.654
11100POPC   C1B27717  12.825   8.042  -4.125
11100POPC   C2B27718  12.874   8.012  -4.317
11100POPC   C3B27719  12.923   7.983  -4.509
11100POPC   C4B27720  12.971   7.953  -4.701
11101POPC   NC327721  21.953   3.878   7.101
11101POPC   PO427722  22.128   3.788   7.065
11101POPC   GL127723  22.303   3.698   7.029
11101POPC   GL227724  22.280   3.692   6.932
11101POPC   C1A27725  22.478   3.609   6.993
11101POPC   D2A27726  22.653   3.519   6.957
11101POPC   C3A27727  22.828   3.430   6.921
11101POPC   C4A27728  23.003   3.340   6.885
11101POPC   C1B27729  22.393   3.431   7.025
11101POPC   C2B27730  22.568   3.341   6.989
11101POPC   C3B27731  22.743   3.251   6.953
11101POPC   C4B27732  22.918   3.162   6.917
11102POPC   NC327733   7.294  23.196   6.446
11102POPC   PO427734   7.263  23.387   6.397
11102POPC   GL127735   7.232  23.578   6.348
11102POPC   GL227736   7.328  23.587   6.321
11102POPC   C1A27737   7.201  23.770   6.299
11102POPC   D2A27738   7.170  23.961   6.249
11102POPC   C3A27739   7.139  24.153   6.200
11102POPC   C4A27740   7.108  24.344   6.151
11102POPC   C1B27741   7.247  23.825   6.485
11102POPC   C2B27742   7.216  24.017   6.436
11102POPC   C3B27743   7.185  24.208   6.387
11102POPC   C4B27744   7.154  24.399   6.338
11103POPC   NC327745   3.679  -0.280   2.963
11103POPC   PO427746   3.588  -0.419   2.852
11103POPC   GL127747   3.497  -0.558   2.741
11103POPC   GL227748   3.584  -0.577   2.694
11103POPC   C1A27749   3.406  -0.697   2.629
11103POPC   D2A27750   3.316  -0.837   2.518
11103POPC   C3A27751   3.225  -0.976   2.406
11103POPC   C4A27752   3.134  -1.115   2.295
11103POPC   C1B27753   3.363  -0.559   2.492
11103POPC   C2B27754   3.272  -0.698   2.380
11103POPC   C3B27755   3.181  -0.837   2.269
11103POPC   C4B27756   3.090  -0.976   2.158
11104POPC   NC327757  -0.816  15.698   3.246
11104POPC   PO427758  -0.974  15.781   3.156
11104POPC   GL127759  -1.132  15.864   3.066
11104POPC   GL227760  -1.130  15.939   3.132
11104POPC   C1A27761  -1.290  15.947   2.976
11104POPC   D2A27762  -1.449  16.031   2.887
11104POPC   C3A27763  -1.607  16.114   2.797
11104POPC   C4A27764  -1.765  16.197   2.707
11104POPC   C1B27765  -1.413  15.845   3.097
11104POPC   C2B27766  -1.571  15.928   3.007
11104POPC   C3B27767  -1.729  16.011   2.918
11104POPC   C4B27768  -1.887  16.095   2.828
11105POPC   NC327769  14.100  -1.987  15.462
11105POPC   PO427770  14.162  -2.161  15.538
11105POPC   GL127771  14.224  -2.335  15.614
11105POPC   GL227772  14.317  -2.300  15.619
11105POPC   C1A27773  14.286  -2.509  15.690
11105POPC   D2A27774  14.347  -2.684  15.767
11105POPC   C3A27775  14.409  -2.858  15.843
11105POPC   C4A27776  14.471  -3.032  15.919
11105POPC   C1B27777  14.321  -2.578  15.506
11105POPC   C2B27778  14.383  -2.752  15.582
11105POPC   C3B27779  14.444  -2.926  15.658
11105POPC   C4B27780  14.506  -3.100  15.734
11106POPC   NC327781   5.663  21.063  17.144
11106POPC   PO427782   5.601  21.220  17.251
11106POPC   GL127783   5.539  21.377  17.358
11106POPC   GL227784   5.635  21.403  17.375
11106POPC   C1A27785   5.478  21.535  17.465
11106POPC   D2A27786   5.416  21.692  17.572
11106POPC   C3A27787   5.355  21.850  17.679
11106POPC   C4A27788   5.293  22.007  17.786
11106POPC   C1B27789   5.478  21.422  17.630
11106POPC   C2B27790   5.416  21.580  17.737
11106POPC   C3B27791   5.354  21.737  17.844
11106POPC   C4B27792   5.293  21.894  17.951
11107POPC   NC327793  23.427  11.552   7.609
11107POPC   PO427794  23.624  11.566   7.579
11107POPC   GL127795  23.821  11.580   7.549
11107POPC   GL227796  23.827  11.480   7.544
11107POPC   C1A27797  24.018  11.593   7.518
11107POPC   D2A27798  24.216  11.607   7.488
11107POPC   C3A27799  24.413  11.620   7.457
11107POPC   C4A27800  24.610  11.634   7.427
11107POPC   C1B27801  24.049  11.586   7.716
11107POPC   C2B27802  24.247  11.599   7.685
11107POPC   C3B27803  24.444  11.613   7.655
11107POPC   C4B27804  24.641  11.627   7.624
11108POPC   NC327805   6.937  -0.713   1.632
11108POPC   PO427806   6.897  -0.867   1.511
11108POPC   GL127807   6.857  -1.021   1.390
11108POPC   GL227808   6.945  -1.007   1.343
11108POPC   C1A27809   6.818  -1.176   1.269
11108POPC   D2A27810   6.778  -1.330   1.149
11108POPC   C3A27811   6.739  -1.485   1.028
11108POPC   C4A27812   6.699  -1.639   0.907
11108POPC   C1B27813   6.728  -1.052   1.140
11108POPC   C2B27814   6.689  -1.206   1.020
11108POPC   C3B27815   6.649  -1.361   0.899
11108POPC   C4B27816   6.609  -1.515   0.778
11109POPC   NC327817  14.053   3.745  -1.770
11109POPC   PO427818  14.107   3.656  -1.941
11109POPC   GL127819  14.161   3.567  -2.112
11109POPC   GL227820  14.112   3.637  -2.164
11109POPC   C1A27821  14.215   3.478  -2.283
11109POPC   D2A27822  14.268   3.390  -2.454
11109POPC   C3A27823  14.322   3.301  -2.625
11109POPC   C4A27824  14.376   3.212  -2.796
11109POPC   C1B27825  14.048   3.367  -2.277
11109POPC   C2B27826  14.102   3.278  -2.448
11109POPC   C3B27827  14.156   3.190  -2.619
11109POPC   C4B27828  14.210   3.101  -2.790
11110POPC   NC327829   6.816  22.744   5.289
11110POPC   PO427830   6.777  22.928   5.220
11110POPC   GL127831   6.738  23.112   5.151
11110POPC   GL227832   6.790  23.091   5.068
11110POPC   C1A27833   6.699  23.295   5.082
11110POPC   D2A27834   6.660  23.479   5.014
11110POPC   C3A27835   6.621  23.662   4.945
11110POPC   C4A27836   6.582  23.846   4.876
11110POPC   C1B27837   6.866  23.363   5.170
11110POPC   C2B27838   6.827  23.547   5.101
11110POPC   C3B27839   6.788  23.730   5.032
11110POPC   C4B27840   6.749  23.914   4.963
11111POPC   NC327841   3.109   8.986  -2.122
11111POPC   PO427842   3.007   8.977  -2.294
11111POPC   GL127843   2.905   8.968  -2.466
11111POPC   GL227844   2.861   8.884  -2.435
11111POPC   C1A27845   2.802   8.960  -2.637
11111POPC   D2A27846   2.700   8.951  -2.809
11111POPC   C3A27847   2.597   8.943  -2.980
11111POPC   C4A27848   2.495   8.934  -3.152
11111POPC   C1B27849   2.950   8.853  -2.720
11111POPC   C2B27850   2.848   8.845  -2.892
11111POPC   C3B27851   2.745   8.836  -3.063
11111POPC   C4B27852   2.643   8.828  -3.235
11112POPC   NC327853  16.828  -1.886  11.277
11112POPC   PO427854  16.929  -2.058  11.297
11112POPC   GL127855  17.030  -2.230  11.317
11112POPC   GL227856  17.104  -2.192  11.262
11112POPC   C1A27857  17.130  -2.402  11.336
11112POPC   D2A27858  17.231  -2.573  11.356
11112POPC   C3A27859  17.331  -2.745  11.375
11112POPC   C4A27860  17.432  -2.917  11.395
11112POPC   C1B27861  17.043  -2.471  11.170
11112POPC   C2B27862  17.144  -2.643  11.190
11112POPC   C3B27863  17.244  -2.815  11.209
11112POPC   C4B27864  17.345  -2.987  11.229
11113POPC   NC327865   8.242  23.100  14.174
11113POPC   PO427866   8.216  23.288  14.237
11113POPC   GL127867   8.190  23.476  14.300
11113POPC   GL227868   8.246  23.457  14.381
11113POPC   C1A27869   8.165  23.664  14.363
11113POPC   D2A27870   8.139  23.853  14.425
11113POPC   C3A27871   8.114  24.041  14.488
11113POPC   C4A27872   8.088  24.229  14.551
11113POPC   C1B27873   8.001  23.609  14.463
11113POPC   C2B27874   7.975  23.797  14.525
11113POPC   C3B27875   7.950  23.985  14.588
11113POPC   C4B27876   7.924  24.173  14.651
11114POPC   NC327877  20.177   4.748  17.509
11114POPC   PO427878  20.324   4.678  17.625
11114POPC   GL127879  20.471   4.608  17.741
11114POPC   GL227880  20.483   4.530  17.679
11114POPC   C1A27881  20.619   4.538  17.856
11114POPC   D2A27882  20.766   4.468  17.972
11114POPC   C3A27883  20.914   4.398  18.087
11114POPC   C4A27884  21.061   4.328  18.203
11114POPC   C1B27885  20.486   4.433  17.962
11114POPC   C2B27886  20.633   4.363  18.078
11114POPC   C3B27887  20.780   4.293  18.193
11114POPC   C4B27888  20.928   4.223  18.309
11115POPC   NC327889  20.086  10.399   0.670
11115POPC   PO427890  20.239  10.407   0.541
11115POPC   GL127891  20.392  10.415   0.412
11115POPC   GL227892  20.394  10.315   0.408
11115POPC   C1A27893  20.544  10.423   0.283
11115POPC   D2A27894  20.697  10.430   0.154
11115POPC   C3A27895  20.849  10.438   0.025
11115POPC   C4A27896  21.002  10.446  -0.104
11115POPC   C1B27897  20.673  10.419   0.436
11115POPC   C2B27898  20.826  10.427   0.307
11115POPC   C3B27899  20.979  10.435   0.178
11115POPC   C4B27900  21.131  10.443   0.049
11116POPC   NC327901   3.929   6.860  22.084
11116POPC   PO427902   3.841   6.810  22.257
11116POPC   GL127903   3.753   6.760  22.430
11116POPC   GL227904   3.799   6.671  22.427
11116POPC   C1A27905   3.665   6.710  22.602
11116POPC   D2A27906   3.577   6.660  22.775
11116POPC   C3A27907   3.489   6.610  22.947
11116POPC   C4A27908   3.401   6.560  23.120
11116POPC   C1B27909   3.511   6.633  22.501
11116POPC   C2B27910   3.423   6.583  22.674
11116POPC   C3B27911   3.335   6.533  22.846
11116POPC   C4B27912   3.247   6.483  23.019
11117POPC   NC327913   8.562  -3.339  13.654
11117POPC   PO427914   8.542  -3.531  13.706
11117POPC   GL127915   8.522  -3.723  13.758
11117POPC   GL227916   8.618  -3.725  13.786
11117POPC   C1A27917   8.502  -3.915  13.810
11117POPC   D2A27918   8.482  -4.107  13.863
11117POPC   C3A27919   8.462  -4.299  13.915
11117POPC   C4A27920   8.442  -4.491  13.967
11117POPC   C1B27921   8.554  -3.971  13.625
11117POPC   C2B27922   8.534  -4.163  13.678
11117POPC   C3B27923   8.514  -4.355  13.730
11117POPC   C4B27924   8.494  -4.547  13.782
11118POPC   NC327925  22.593   4.644  11.185
11118POPC   PO427926  22.777   4.568  11.205
11118POPC   GL127927  22.961   4.492  11.225
11118POPC   GL227928  22.976   4.503  11.126
11118POPC   C1A27929  23.145   4.417  11.244
11118POPC   D2A27930  23.330   4.341  11.264
11118POPC   C3A27931  23.514   4.266  11.283
11118POPC   C4A27932  23.698   4.190  11.303
11118POPC   C1B27933  23.073   4.233  11.213
11118POPC   C2B27934  23.257   4.157  11.233
11118POPC   C3B27935  23.442   4.082  11.253
11118POPC   C4B27936  23.626   4.006  11.272
11119POPC   NC327937   9.807   7.754  -3.709
11119POPC   PO427938   9.803   7.717  -3.905
11119POPC   GL127939   9.799   7.680  -4.101
11119POPC   GL227940   9.898   7.691  -4.106
11119POPC   C1A27941   9.794   7.643  -4.298
11119POPC   D2A27942   9.790   7.606  -4.494
11119POPC   C3A27943   9.785   7.569  -4.691
11119POPC   C4A27944   9.781   7.532  -4.887
11119POPC   C1B27945   9.771   7.838  -4.334
11119POPC   C2B27946   9.767   7.801  -4.530
11119POPC   C3B27947   9.762   7.764  -4.727
11119POPC   C4B27948   9.758   7.727  -4.923
11120POPC   NC327949   2.660   0.848   2.496
11120POPC   PO427950   2.562   0.719   2.379
11120POPC   GL127951   2.464   0.590   2.262
11120POPC   GL227952   2.546   0.579   2.206
11120POPC   C1A27953   2.366   0.461   2.145
11120POPC   D2A27954   2.268   0.332   2.027
11120POPC   C3A27955   2.170   0.203   1.910
11120POPC   C4A27956   2.072   0.074   1.793
11120POPC   C1B27957   2.307   0.612   2.028
11120POPC   C2B27958   2.209   0.483   1.910
11120POPC   C3B27959   2.111   0.354   1.793
11120POPC   C4B27960   2.013   0.225   1.676
11121POPC   NC327961  21.255  13.792  16.927
11121POPC   PO427962  21.421  13.843  17.027
11121POPC   GL127963  21.587  13.894  17.127
11121POPC   GL227964  21.615  13.799  17.128
11121POPC   C1A27965  21.752  13.945  17.227
11121POPC   D2A27966  21.918  13.997  17.326
11121POPC   C3A27967  22.083  14.048  17.426
11121POPC   C4A27968  22.249  14.099  17.526
11121POPC   C1B27969  21.656  13.919  17.400
11121POPC   C2B27970  21.821  13.970  17.500
11121POPC   C3B27971  21.987  14.021  17.599
11121POPC   C4B27972  22.153  14.073  17.699
11122POPC   NC327973  14.272  22.906   7.789
11122POPC   PO427974  14.339  23.092   7.757
11122POPC   GL127975  14.406  23.278   7.725
11122POPC   GL227976  14.469  23.243   7.655
11122POPC   C1A27977  14.473  23.464   7.693
11122POPC   D2A27978  14.539  23.649   7.660
11122POPC   C3A27979  14.606  23.835   7.628
11122POPC   C4A27980  14.673  24.021   7.596
11122POPC   C1B27981  14.613  23.437   7.832
11122POPC   C2B27982  14.680  23.623   7.800
11122POPC   C3B27983  14.747  23.809   7.768
11122POPC   C4B27984  14.814  23.995   7.736
11123POPC   NC327985   9.269  20.912   1.528
11123POPC   PO427986   9.256  21.069   1.405
11123POPC   GL127987   9.243  21.226   1.282
11123POPC   GL227988   9.265  21.167   1.204
11123POPC   C1A27989   9.231  21.384   1.159
11123POPC   D2A27990   9.218  21.541   1.037
11123POPC   C3A27991   9.206  21.699   0.914
11123POPC   C4A27992   9.193  21.856   0.791
11123POPC   C1B27993   9.426  21.420   1.186
11123POPC   C2B27994   9.413  21.578   1.063
11123POPC   C3B27995   9.400  21.735   0.941
11123POPC   C4B27996   9.388  21.893   0.818
11124POPC   NC327997  22.134   3.735   8.700
11124POPC   PO427998  22.310   3.642   8.679
11124POPC   GL127999  22.486   3.549   8.658
11124POPC   GL228000  22.445   3.488   8.590
11124POPC   C1A28001  22.662   3.456   8.637
11124POPC   D2A28002  22.837   3.364   8.617
11124POPC   C3A28003  23.013   3.271   8.596
11124POPC   C4A28004  23.189   3.178   8.575
11124POPC   C1B28005  22.611   3.328   8.783
11124POPC   C2B28006  22.787   3.236   8.762
11124POPC   C3B28007  22.963   3.143   8.741
11124POPC   C4B28008  23.139   3.050   8.720
11125POPC   NC328009  10.138  18.073  21.196
11125POPC   PO428010  10.142  18.193  21.356
11125POPC   GL128011  10.146  18.313  21.516
11125POPC   GL228012  10.152  18.393  21.456
11125POPC   C1A28013  10.150  18.433  21.676
11125POPC   D2A28014  10.155  18.552  21.836
11125POPC   C3A28015  10.159  18.672  21.996
11125POPC   C4A28016  10.163  18.792  22.156
11125POPC   C1B28017  10.350  18.421  21.679
11125POPC   C2B28018  10.354  18.541  21.839
11125POPC   C3B28019  10.358  18.660  21.999
11125POPC   C4B28020  10.363  18.780  22.159
11126POPC   NC328021  12.585  13.335  23.068
11126POPC   PO428022  12.620  13.390  23.257
11126POPC   GL128023  12.655  13.445  23.446
11126POPC   GL228024  12.753  13.433  23.432
11126POPC   C1A28025  12.689  13.500  23.635
11126POPC   D2A28026  12.724  13.555  23.825
11126POPC   C3A28027  12.758  13.610  24.014
11126POPC   C4A28028  12.793  13.665  24.203
11126POPC   C1B28029  12.674  13.309  23.694
11126POPC   C2B28030  12.708  13.364  23.883
11126POPC   C3B28031  12.743  13.419  24.072
11126POPC   C4B28032  12.777  13.474  24.261
11127POPC   NC328033   5.351  22.414   5.632
11127POPC   PO428034   5.275  22.588   5.568
11127POPC   GL128035   5.199  22.762   5.504
11127POPC   GL228036   5.177  22.787   5.598
11127POPC   C1A28037   5.124  22.935   5.440
11127POPC   D2A28038   5.048  23.109   5.375
11127POPC   C3A28039   4.973  23.282   5.311
11127POPC   C4A28040   4.897  23.456   5.247
11127POPC   C1B28041   4.944  22.850   5.419
11127POPC   C2B28042   4.869  23.023   5.355
11127POPC   C3B28043   4.793  23.197   5.291
11127POPC   C4B28044   4.717  23.370   5.227
11128POPC   NC328045  -1.993  11.330  16.957
11128POPC   PO428046  -2.160  11.347  17.066
11128POPC   GL128047  -2.327  11.364  17.175
11128POPC   GL228048  -2.275  11.410  17.247
11128POPC   C1A28049  -2.494  11.382  17.283
11128POPC   D2A28050  -2.661  11.399  17.392
11128POPC   C3A28051  -2.828  11.417  17.500
11128POPC   C4A28052  -2.995  11.434  17.609
11128POPC   C1B28053  -2.457  11.205  17.369
11128POPC   C2B28054  -2.624  11.223  17.478
11128POPC   C3B28055  -2.791  11.240  17.586
11128POPC   C4B28056  -2.958  11.257  17.695
11129POPC   NC328057  -0.120  19.568   9.046
11129POPC   PO428058  -0.258  19.712   9.034
11129POPC   GL128059  -0.396  19.856   9.022
11129POPC   GL228060  -0.362  19.896   9.106
11129POPC   C1A28061  -0.535  20.000   9.009
11129POPC   D2A28062  -0.673  20.143   8.997
11129POPC   C3A28063  -0.812  20.287   8.984
11129POPC   C4A28064  -0.950  20.431   8.972
11129POPC   C1B28065  -0.662  19.887   9.115
11129POPC   C2B28066  -0.800  20.030   9.102
11129POPC   C3B28067  -0.938  20.174   9.090
11129POPC   C4B28068  -1.077  20.318   9.078
11130POPC   NC328069   1.047  18.704   3.785
11130POPC   PO428070   0.923  18.835   3.699
11130POPC   GL128071   0.799  18.966   3.613
11130POPC   GL228072   0.746  18.972   3.697
11130POPC   C1A28073   0.675  19.098   3.527
11130POPC   D2A28074   0.552  19.229   3.440
11130POPC   C3A28075   0.428  19.361   3.354
11130POPC   C4A28076   0.304  19.492   3.268
11130POPC   C1B28077   0.559  18.947   3.464
11130POPC   C2B28078   0.436  19.079   3.378
11130POPC   C3B28079   0.312  19.210   3.292
11130POPC   C4B28080   0.188  19.342   3.206
11131POPC   NC328081  21.092   4.588  16.076
11131POPC   PO428082  21.254   4.517  16.169
11131POPC   GL128083  21.416   4.446  16.262
11131POPC   GL228084  21.475   4.489  16.194
11131POPC   C1A28085  21.578   4.375  16.356
11131POPC   D2A28086  21.741   4.305  16.449
11131POPC   C3A28087  21.903   4.234  16.543
11131POPC   C4A28088  22.065   4.163  16.636
11131POPC   C1B28089  21.570   4.209  16.245
11131POPC   C2B28090  21.732   4.139  16.338
11131POPC   C3B28091  21.894   4.068  16.431
11131POPC   C4B28092  22.057   3.997  16.525
11132POPC   NC328093   0.605   2.772  17.285
11132POPC   PO428094   0.473   2.670  17.396
11132POPC   GL128095   0.341   2.568  17.507
11132POPC   GL228096   0.407   2.493  17.515
11132POPC   C1A28097   0.209   2.466  17.617
11132POPC   D2A28098   0.078   2.364  17.728
11132POPC   C3A28099  -0.054   2.262  17.838
11132POPC   C4A28100  -0.186   2.160  17.949
11132POPC   C1B28101   0.136   2.382  17.451
11132POPC   C2B28102   0.004   2.280  17.562
11132POPC   C3B28103  -0.128   2.178  17.673
11132POPC   C4B28104  -0.260   2.076  17.783
11133POPC   NC328105  17.475   4.040   0.049
11133POPC   PO428106  17.592   3.956  -0.090
11133POPC   GL128107  17.709   3.872  -0.229
11133POPC   GL228108  17.779   3.941  -0.211
11133POPC   C1A28109  17.826   3.788  -0.367
11133POPC   D2A28110  17.944   3.703  -0.506
11133POPC   C3A28111  18.061   3.619  -0.644
11133POPC   C4A28112  18.178   3.535  -0.783
11133POPC   C1B28113  17.745   3.905  -0.507
11133POPC   C2B28114  17.862   3.821  -0.646
11133POPC   C3B28115  17.980   3.737  -0.784
11133POPC   C4B28116  18.097   3.653  -0.923
11134POPC   NC328117  -1.491   8.249  17.697
11134POPC   PO428118  -1.654   8.230  17.812
11134POPC   GL128119  -1.817   8.211  17.927
11134POPC   GL228120  -1.778   8.276  17.992
11134POPC   C1A28121  -1.979   8.191  18.042
11134POPC   D2A28122  -2.142   8.172  18.156
11134POPC   C3A28123  -2.304   8.152  18.271
11134POPC   C4A28124  -2.467   8.133  18.386
11134POPC   C1B28125  -1.891   8.041  18.141
11134POPC   C2B28126  -2.054   8.022  18.255
11134POPC   C3B28127  -2.216   8.003  18.370
11134POPC   C4B28128  -2.379   7.983  18.485
11135POPC   NC328129   7.502   0.185  19.465
11135POPC   PO428130   7.468   0.041  19.599
11135POPC   GL128131   7.434  -0.103  19.733
11135POPC   GL228132   7.432  -0.035  19.806
11135POPC   C1A28133   7.401  -0.247  19.868
11135POPC   D2A28134   7.367  -0.392  20.002
11135POPC   C3A28135   7.334  -0.536  20.137
11135POPC   C4A28136   7.300  -0.680  20.271
11135POPC   C1B28137   7.598  -0.269  19.894
11135POPC   C2B28138   7.564  -0.413  20.029
11135POPC   C3B28139   7.531  -0.557  20.163
11135POPC   C4B28140   7.497  -0.701  20.298
11136POPC   NC328141  -2.702   6.934  15.023
11136POPC   PO428142  -2.886   6.893  15.090
11136POPC   GL128143  -3.070   6.852  15.157
11136POPC   GL228144  -3.032   6.783  15.218
11136POPC   C1A28145  -3.254   6.811  15.223
11136POPC   D2A28146  -3.438   6.770  15.290
11136POPC   C3A28147  -3.622   6.729  15.356
11136POPC   C4A28148  -3.806   6.688  15.423
11136POPC   C1B28149  -3.275   6.672  15.081
11136POPC   C2B28150  -3.459   6.631  15.147
11136POPC   C3B28151  -3.643   6.590  15.214
11136POPC   C4B28152  -3.827   6.549  15.280
11137POPC   NC328153   0.188  17.936   3.980
11137POPC   PO428154   0.050  18.053   3.894
11137POPC   GL128155  -0.088  18.170   3.808
11137POPC   GL228156  -0.130  18.186   3.898
11137POPC   C1A28157  -0.226  18.287   3.723
11137POPC   D2A28158  -0.363  18.404   3.637
11137POPC   C3A28159  -0.501  18.521   3.552
11137POPC   C4A28160  -0.639  18.638   3.466
11137POPC   C1B28161  -0.344  18.128   3.697
11137POPC   C2B28162  -0.482  18.245   3.611
11137POPC   C3B28163  -0.620  18.362   3.525
11137POPC   C4B28164  -0.758  18.479   3.440
11138POPC   NC328165  17.338  16.205  19.709
11138POPC   PO428166  17.449  16.285  19.855
11138POPC   GL128167  17.560  16.365  20.001
11138POPC   GL228168  17.635  16.378  19.936
11138POPC   C1A28169  17.671  16.445  20.146
11138POPC   D2A28170  17.782  16.526  20.292
11138POPC   C3A28171  17.893  16.606  20.437
11138POPC   C4A28172  18.004  16.686  20.583
11138POPC   C1B28173  17.742  16.264  20.192
11138POPC   C2B28174  17.853  16.344  20.338
11138POPC   C3B28175  17.964  16.425  20.483
11138POPC   C4B28176  18.075  16.505  20.629
11139POPC   NC328177   6.709  22.772  14.217
11139POPC   PO428178   6.660  22.955  14.280
11139POPC   GL128179   6.611  23.138  14.343
11139POPC   GL228180   6.673  23.128  14.421
11139POPC   C1A28181   6.562  23.321  14.407
11139POPC   D2A28182   6.512  23.505  14.470
11139POPC   C3A28183   6.463  23.688  14.534
11139POPC   C4A28184   6.414  23.871  14.597
11139POPC   C1B28185   6.412  23.244  14.515
11139POPC   C2B28186   6.363  23.427  14.578
11139POPC   C3B28187   6.314  23.610  14.642
11139POPC   C4B28188   6.265  23.793  14.705
11140POPC   NC328189  -1.485   8.025   2.230
11140POPC   PO428190  -1.647   7.999   2.116
11140POPC   GL128191  -1.809   7.973   2.002
11140POPC   GL228192  -1.785   7.877   1.989
11140POPC   C1A28193  -1.971   7.947   1.888
11140POPC   D2A28194  -2.134   7.920   1.774
11140POPC   C3A28195  -2.296   7.894   1.660
11140POPC   C4A28196  -2.458   7.868   1.546
11140POPC   C1B28197  -1.865   7.995   1.726
11140POPC   C2B28198  -2.027   7.968   1.612
11140POPC   C3B28199  -2.189   7.942   1.498
11140POPC   C4B28200  -2.352   7.916   1.384
11141POPC   NC328201   6.893  21.356   2.675
11141POPC   PO428202   6.851  21.518   2.565
11141POPC   GL128203   6.809  21.680   2.455
11141POPC   GL228204   6.835  21.739   2.531
11141POPC   C1A28205   6.767  21.841   2.345
11141POPC   D2A28206   6.724  22.003   2.235
11141POPC   C3A28207   6.682  22.164   2.125
11141POPC   C4A28208   6.640  22.326   2.015
11141POPC   C1B28209   6.578  21.838   2.413
11141POPC   C2B28210   6.536  22.000   2.303
11141POPC   C3B28211   6.494  22.161   2.193
11141POPC   C4B28212   6.452  22.323   2.083
11142POPC   NC328213  23.345   7.130   8.854
11142POPC   PO428214  23.542   7.097   8.838
11142POPC   GL128215  23.739   7.064   8.822
11142POPC   GL228216  23.754   7.162   8.808
11142POPC   C1A28217  23.935   7.031   8.806
11142POPC   D2A28218  24.132   6.997   8.790
11142POPC   C3A28219  24.328   6.964   8.774
11142POPC   C4A28220  24.525   6.931   8.758
11142POPC   C1B28221  23.915   7.006   8.609
11142POPC   C2B28222  24.111   6.972   8.593
11142POPC   C3B28223  24.308   6.939   8.577
11142POPC   C4B28224  24.505   6.906   8.561
11143POPC   NC328225   7.154  21.500  17.184
11143POPC   PO428226   7.115  21.666  17.289
11143POPC   GL128227   7.076  21.832  17.394
11143POPC   GL228228   7.174  21.848  17.405
11143POPC   C1A28229   7.037  21.997  17.499
11143POPC   D2A28230   6.997  22.163  17.604
11143POPC   C3A28231   6.958  22.328  17.709
11143POPC   C4A28232   6.919  22.494  17.814
11143POPC   C1B28233   7.035  21.890  17.668
11143POPC   C2B28234   6.996  22.056  17.773
11143POPC   C3B28235   6.957  22.221  17.878
11143POPC   C4B28236   6.918  22.387  17.983
11144POPC   NC328237   1.099   2.154   2.575
11144POPC   PO428238   0.981   2.042   2.458
11144POPC   GL128239   0.863   1.930   2.341
11144POPC   GL228240   0.905   1.847   2.378
11144POPC   C1A28241   0.746   1.819   2.224
11144POPC   D2A28242   0.628   1.707   2.106
11144POPC   C3A28243   0.511   1.596   1.989
11144POPC   C4A28244   0.393   1.484   1.872
11144POPC   C1B28245   0.884   1.824   2.079
11144POPC   C2B28246   0.767   1.712   1.962
11144POPC   C3B28247   0.649   1.601   1.845
11144POPC   C4B28248   0.532   1.489   1.728
11145POPC   NC328249  -2.955   5.097   8.458
11145POPC   PO428250  -3.140   5.025   8.435
11145POPC   GL128251  -3.325   4.953   8.412
11145POPC   GL228252  -3.302   4.875   8.471
11145POPC   C1A28253  -3.510   4.881   8.389
11145POPC   D2A28254  -3.695   4.808   8.365
11145POPC   C3A28255  -3.880   4.736   8.342
11145POPC   C4A28256  -4.065   4.664   8.319
11145POPC   C1B28257  -3.449   4.776   8.229
11145POPC   C2B28258  -3.634   4.704   8.206
11145POPC   C3B28259  -3.819   4.632   8.183
11145POPC   C4B28260  -4.004   4.560   8.159
11146POPC   NC328261  20.118  12.746   1.076
11146POPC   PO428262  20.269  12.778   0.949
11146POPC   GL128263  20.420  12.810   0.822
11146POPC   GL228264  20.365  12.773   0.747
11146POPC   C1A28265  20.571  12.842   0.695
11146POPC   D2A28266  20.722  12.875   0.568
11146POPC   C3A28267  20.873  12.907   0.441
11146POPC   C4A28268  21.024  12.939   0.314
11146POPC   C1B28269  20.643  12.660   0.734
11146POPC   C2B28270  20.794  12.692   0.607
11146POPC   C3B28271  20.945  12.724   0.480
11146POPC   C4B28272  21.096  12.756   0.353
11147POPC   NC328273  20.284  16.892   3.955
11147POPC   PO428274  20.432  16.996   3.869
11147POPC   GL128275  20.580  17.100   3.783
11147POPC   GL228276  20.624  17.015   3.756
11147POPC   C1A28277  20.728  17.204   3.698
11147POPC   D2A28278  20.875  17.309   3.612
11147POPC   C3A28279  21.023  17.413   3.527
11147POPC   C4A28280  21.171  17.517   3.441
11147POPC   C1B28281  20.829  17.201   3.870
11147POPC   C2B28282  20.977  17.306   3.784
11147POPC   C3B28283  21.125  17.410   3.699
11147POPC   C4B28284  21.273  17.514   3.613
11148POPC   NC328285  18.967  20.094  12.351
11148POPC   PO428286  19.102  20.234  12.397
11148POPC   GL128287  19.237  20.374  12.443
11148POPC   GL228288  19.282  20.310  12.505
11148POPC   C1A28289  19.372  20.514  12.490
11148POPC   D2A28290  19.506  20.655  12.536
11148POPC   C3A28291  19.641  20.795  12.583
11148POPC   C4A28292  19.776  20.935  12.629
11148POPC   C1B28293  19.255  20.577  12.640
11148POPC   C2B28294  19.390  20.717  12.686
11148POPC   C3B28295  19.524  20.858  12.732
11148POPC   C4B28296  19.659  20.998  12.779
11149POPC   NC328297  14.112  22.914   7.536
11149POPC   PO428298  14.175  23.100   7.498
11149POPC   GL128299  14.238  23.286   7.460
11149POPC   GL228300  14.306  23.250   7.397
11149POPC   C1A28301  14.300  23.472   7.423
11149POPC   D2A28302  14.363  23.659   7.385
11149POPC   C3A28303  14.425  23.845   7.348
11149POPC   C4A28304  14.488  24.031   7.310
11149POPC   C1B28305  14.432  23.458   7.573
11149POPC   C2B28306  14.495  23.645   7.535
11149POPC   C3B28307  14.557  23.831   7.497
11149POPC   C4B28308  14.620  24.017   7.460
11150POPC   NC328309  12.528  23.409  12.028
11150POPC   PO428310  12.563  23.603  12.062
11150POPC   GL128311  12.598  23.797  12.096
11150POPC   GL228312  12.691  23.787  12.059
11150POPC   C1A28313  12.634  23.991  12.130
11150POPC   D2A28314  12.669  24.185  12.163
11150POPC   C3A28315  12.705  24.379  12.197
11150POPC   C4A28316  12.740  24.573  12.231
11150POPC   C1B28317  12.701  23.947  12.313
11150POPC   C2B28318  12.736  24.141  12.347
11150POPC   C3B28319  12.772  24.335  12.380
11150POPC   C4B28320  12.807  24.529  12.414
11151POPC   NC328321  13.165  20.584  18.164
11151POPC   PO428322  13.209  20.739  18.283
11151POPC   GL128323  13.253  20.894  18.402
11151POPC   GL228324  13.289  20.830  18.471
11151POPC   C1A28325  13.297  21.048  18.521
11151POPC   D2A28326  13.342  21.203  18.640
11151POPC   C3A28327  13.386  21.357  18.759
11151POPC   C4A28328  13.430  21.512  18.878
11151POPC   C1B28329  13.116  21.036  18.604
11151POPC   C2B28330  13.160  21.190  18.723
11151POPC   C3B28331  13.204  21.345  18.842
11151POPC   C4B28332  13.249  21.500  18.961
11152POPC   NC328333   3.355  17.725  19.405
11152POPC   PO428334   3.259  17.833  19.543
11152POPC   GL128335   3.163  17.941  19.681
11152POPC   GL228336   3.214  17.895  19.753
11152POPC   C1A28337   3.067  18.049  19.819
11152POPC   D2A28338   2.970  18.158  19.957
11152POPC   C3A28339   2.874  18.266  20.095
11152POPC   C4A28340   2.778  18.374  20.233
11152POPC   C1B28341   2.925  17.909  19.831
11152POPC   C2B28342   2.829  18.017  19.969
11152POPC   C3B28343   2.733  18.125  20.107
11152POPC   C4B28344   2.636  18.233  20.245
11153POPC   NC328345  21.837  14.988   5.004
11153POPC   PO428346  22.009  15.063   4.936
11153POPC   GL128347  22.181  15.138   4.868
11153POPC   GL228348  22.131  15.199   4.807
11153POPC   C1A28349  22.354  15.213   4.800
11153POPC   D2A28350  22.526  15.289   4.733
11153POPC   C3A28351  22.699  15.364   4.665
11153POPC   C4A28352  22.871  15.439   4.597
11153POPC   C1B28353  22.359  15.073   4.658
11153POPC   C2B28354  22.531  15.149   4.590
11153POPC   C3B28355  22.704  15.224   4.522
11153POPC   C4B28356  22.876  15.299   4.454
11154POPC   NC328357  17.315   9.630  -1.704
11154POPC   PO428358  17.419   9.625  -1.874
11154POPC   GL128359  17.523   9.620  -2.044
11154POPC   GL228360  17.439   9.607  -2.096
11154POPC   C1A28361  17.628   9.614  -2.215
11154POPC   D2A28362  17.732   9.609  -2.385
11154POPC   C3A28363  17.837   9.603  -2.556
11154POPC   C4A28364  17.941   9.598  -2.726
11154POPC   C1B28365  17.646   9.416  -2.197
11154POPC   C2B28366  17.751   9.410  -2.367
11154POPC   C3B28367  17.855   9.405  -2.538
11154POPC   C4B28368  17.960   9.400  -2.708
11155POPC   NC328369  14.422  -2.706  13.053
11155POPC   PO428370  14.489  -2.889  13.100
11155POPC   GL128371  14.556  -3.072  13.147
11155POPC   GL228372  14.649  -3.043  13.126
11155POPC   C1A28373  14.623  -3.254  13.194
11155POPC   D2A28374  14.689  -3.437  13.241
11155POPC   C3A28375  14.756  -3.619  13.288
11155POPC   C4A28376  14.823  -3.802  13.335
11155POPC   C1B28377  14.598  -3.312  13.004
11155POPC   C2B28378  14.664  -3.495  13.051
11155POPC   C3B28379  14.731  -3.677  13.098
11155POPC   C4B28380  14.798  -3.860  13.145
11156POPC   NC328381  14.588   1.551  19.832
11156POPC   PO428382  14.651   1.425  19.974
11156POPC   GL128383  14.714   1.299  20.116
11156POPC   GL228384  14.739   1.232  20.045
11156POPC   C1A28385  14.777   1.172  20.257
11156POPC   D2A28386  14.841   1.046  20.399
11156POPC   C3A28387  14.904   0.919  20.540
11156POPC   C4A28388  14.967   0.793  20.682
11156POPC   C1B28389  14.594   1.092  20.267
11156POPC   C2B28390  14.658   0.966  20.409
11156POPC   C3B28391  14.721   0.839  20.551
11156POPC   C4B28392  14.784   0.713  20.692
11157POPC   NC328393  11.432  21.707  17.133
11157POPC   PO428394  11.463  21.873  17.240
11157POPC   GL128395  11.494  22.039  17.347
11157POPC   GL228396  11.593  22.026  17.339
11157POPC   C1A28397  11.525  22.205  17.454
11157POPC   D2A28398  11.555  22.372  17.560
11157POPC   C3A28399  11.586  22.538  17.667
11157POPC   C4A28400  11.617  22.704  17.774
11157POPC   C1B28401  11.523  22.097  17.622
11157POPC   C2B28402  11.554  22.264  17.729
11157POPC   C3B28403  11.584  22.430  17.836
11157POPC   C4B28404  11.615  22.596  17.942
11158POPC   NC328405   3.946  -0.094  17.400
11158POPC   PO428406   3.860  -0.240  17.507
11158POPC   GL128407   3.774  -0.386  17.614
11158POPC   GL228408   3.805  -0.453  17.546
11158POPC   C1A28409   3.689  -0.532  17.721
11158POPC   D2A28410   3.603  -0.677  17.827
11158POPC   C3A28411   3.518  -0.823  17.934
11158POPC   C4A28412   3.432  -0.969  18.041
11158POPC   C1B28413   3.519  -0.507  17.618
11158POPC   C2B28414   3.433  -0.652  17.725
11158POPC   C3B28415   3.347  -0.798  17.832
11158POPC   C4B28416   3.262  -0.944  17.939
11159POPC   NC328417  22.801   5.464  11.938
11159POPC   PO428418  22.988   5.400  11.967
11159POPC   GL128419  23.175   5.336  11.996
11159POPC   GL228420  23.158   5.259  11.935
11159POPC   C1A28421  23.362   5.271  12.026
11159POPC   D2A28422  23.549   5.207  12.055
11159POPC   C3A28423  23.736   5.142  12.085
11159POPC   C4A28424  23.923   5.078  12.114
11159POPC   C1B28425  23.300   5.161  12.180
11159POPC   C2B28426  23.487   5.096  12.210
11159POPC   C3B28427  23.674   5.032  12.239
11159POPC   C4B28428  23.861   4.967  12.269
11160POPC   NC328429  23.627   9.991   9.431
11160POPC   PO428430  23.827   9.989   9.426
11160POPC   GL128431  24.027   9.987   9.421
11160POPC   GL228432  24.026  10.060   9.353
11160POPC   C1A28433  24.227   9.985   9.417
11160POPC   D2A28434  24.427   9.984   9.412
11160POPC   C3A28435  24.627   9.982   9.408
11160POPC   C4A28436  24.827   9.980   9.403
11160POPC   C1B28437  24.222   9.849   9.271
11160POPC   C2B28438  24.422   9.847   9.266
11160POPC   C3B28439  24.622   9.845   9.262
11160POPC   C4B28440  24.822   9.843   9.257
11161POPC   NC328441  11.653  22.173  16.281
11161POPC   PO428442  11.683  22.347  16.375
11161POPC   GL128443  11.713  22.521  16.469
11161POPC   GL228444  11.811  22.515  16.449
11161POPC   C1A28445  11.744  22.695  16.563
11161POPC   D2A28446  11.774  22.869  16.657
11161POPC   C3A28447  11.805  23.043  16.751
11161POPC   C4A28448  11.835  23.217  16.845
11161POPC   C1B28449  11.773  22.597  16.735
11161POPC   C2B28450  11.803  22.771  16.829
11161POPC   C3B28451  11.833  22.945  16.923
11161POPC   C4B28452  11.864  23.119  17.017
11162POPC   NC328453  23.064  11.751   6.050
11162POPC   PO428454  23.255  11.767   5.994
11162POPC   GL128455  23.446  11.783   5.938
11162POPC   GL228456  23.441  11.694   5.893
11162POPC   C1A28457  23.638  11.799   5.882
11162POPC   D2A28458  23.829  11.816   5.826
11162POPC   C3A28459  24.021  11.832   5.770
11162POPC   C4A28460  24.212  11.848   5.714
11162POPC   C1B28461  23.695  11.710   6.052
11162POPC   C2B28462  23.886  11.727   5.996
11162POPC   C3B28463  24.078  11.743   5.940
11162POPC   C4B28464  24.269  11.759   5.884
11163POPC   NC328465   8.156  19.303  -0.125
11163POPC   PO428466   8.133  19.441  -0.268
11163POPC   GL128467   8.110  19.579  -0.411
11163POPC   GL228468   8.186  19.632  -0.372
11163POPC   C1A28469   8.087  19.718  -0.553
11163POPC   D2A28470   8.064  19.856  -0.696
11163POPC   C3A28471   8.041  19.995  -0.838
11163POPC   C4A28472   8.018  20.133  -0.981
11163POPC   C1B28473   7.958  19.817  -0.436
11163POPC   C2B28474   7.935  19.955  -0.579
11163POPC   C3B28475   7.912  20.093  -0.722
11163POPC   C4B28476   7.889  20.232  -0.864
11164POPC   NC328477   7.513  23.518  12.040
11164POPC   PO428478   7.482  23.713  12.069
11164POPC   GL128479   7.451  23.908  12.098
11164POPC   GL228480   7.509  23.906  12.179
11164POPC   C1A28481   7.419  24.104  12.127
11164POPC   D2A28482   7.388  24.299  12.156
11164POPC   C3A28483   7.356  24.495  12.185
11164POPC   C4A28484   7.325  24.690  12.214
11164POPC   C1B28485   7.260  24.061  12.241
11164POPC   C2B28486   7.229  24.257  12.270
11164POPC   C3B28487   7.198  24.452  12.299
11164POPC   C4B28488   7.166  24.648  12.328
11165POPC   NC328489  14.261   5.081  -2.257
11165POPC   PO428490  14.327   5.020  -2.436
11165POPC   GL128491  14.393   4.959  -2.615
11165POPC   GL228492  14.394   5.054  -2.647
11165POPC   C1A28493  14.459   4.898  -2.793
11165POPC   D2A28494  14.525   4.836  -2.972
11165POPC   C3A28495  14.591   4.775  -3.150
11165POPC   C4A28496  14.657   4.714  -3.329
11165POPC   C1B28497  14.270   4.877  -2.856
11165POPC   C2B28498  14.336   4.816  -3.035
11165POPC   C3B28499  14.402   4.755  -3.213
11165POPC   C4B28500  14.468   4.694  -3.392
11166POPC   NC328501   2.383  21.481   8.879
11166POPC   PO428502   2.274  21.647   8.857
11166POPC   GL128503   2.165  21.813   8.835
11166POPC   GL228504   2.248  21.866   8.819
11166POPC   C1A28505   2.055  21.979   8.813
11166POPC   D2A28506   1.946  22.145   8.792
11166POPC   C3A28507   1.836  22.311   8.770
11166POPC   C4A28508   1.727  22.477   8.748
11166POPC   C1B28509   2.071  22.015   9.009
11166POPC   C2B28510   1.962  22.181   8.988
11166POPC   C3B28511   1.852  22.347   8.966
11166POPC   C4B28512   1.743  22.513   8.944
11167POPC   NC328513   7.046  19.793  19.211
11167POPC   PO428514   7.005  19.933  19.348
11167POPC   GL128515   6.964  20.073  19.485
11167POPC   GL228516   7.055  20.113  19.471
11167POPC   C1A28517   6.923  20.213  19.622
11167POPC   D2A28518   6.883  20.353  19.758
11167POPC   C3A28519   6.842  20.493  19.895
11167POPC   C4A28520   6.801  20.633  20.032
11167POPC   C1B28521   6.996  20.094  19.765
11167POPC   C2B28522   6.955  20.234  19.902
11167POPC   C3B28523   6.915  20.374  20.039
11167POPC   C4B28524   6.874  20.514  20.175
11168POPC   NC328525   0.379   9.580  -0.077
11168POPC   PO428526   0.241   9.576  -0.221
11168POPC   GL128527   0.103   9.572  -0.365
11168POPC   GL228528   0.073   9.664  -0.339
11168POPC   C1A28529  -0.036   9.569  -0.509
11168POPC   D2A28530  -0.174   9.565  -0.654
11168POPC   C3A28531  -0.313   9.562  -0.798
11168POPC   C4A28532  -0.451   9.558  -0.942
11168POPC   C1B28533  -0.167   9.489  -0.381
11168POPC   C2B28534  -0.306   9.486  -0.525
11168POPC   C3B28535  -0.444   9.482  -0.670
11168POPC   C4B28536  -0.582   9.478  -0.814
11169POPC   NC328537  10.445  -3.216  14.200
11169POPC   PO428538  10.456  -3.406  14.261
11169POPC   GL128539  10.467  -3.596  14.322
11169POPC   GL228540  10.545  -3.573  14.380
11169POPC   C1A28541  10.479  -3.786  14.383
11169POPC   D2A28542  10.490  -3.976  14.445
11169POPC   C3A28543  10.502  -4.166  14.506
11169POPC   C4A28544  10.513  -4.356  14.567
11169POPC   C1B28545  10.604  -3.827  14.233
11169POPC   C2B28546  10.615  -4.017  14.294
11169POPC   C3B28547  10.627  -4.207  14.355
11169POPC   C4B28548  10.638  -4.397  14.416
11170POPC   NC328549   9.803  -2.178   3.312
11170POPC   PO428550   9.798  -2.353   3.215
11170POPC   GL128551   9.793  -2.528   3.118
11170POPC   GL228552   9.833  -2.573   3.198
11170POPC   C1A28553   9.788  -2.703   3.022
11170POPC   D2A28554   9.784  -2.879   2.925
11170POPC   C3A28555   9.779  -3.054   2.829
11170POPC   C4A28556   9.774  -3.229   2.732
11170POPC   C1B28557   9.972  -2.668   2.949
11170POPC   C2B28558   9.967  -2.844   2.853
11170POPC   C3B28559   9.962  -3.019   2.756
11170POPC   C4B28560   9.957  -3.194   2.660
11171POPC   NC328561   3.415  14.971  -1.254
11171POPC   PO428562   3.320  15.042  -1.415
11171POPC   GL128563   3.225  15.113  -1.576
11171POPC   GL228564   3.143  15.128  -1.521
11171POPC   C1A28565   3.131  15.183  -1.738
11171POPC   D2A28566   3.036  15.254  -1.899
11171POPC   C3A28567   2.942  15.324  -2.061
11171POPC   C4A28568   2.847  15.395  -2.222
11171POPC   C1B28569   3.066  14.999  -1.781
11171POPC   C2B28570   2.972  15.069  -1.942
11171POPC   C3B28571   2.877  15.140  -2.104
11171POPC   C4B28572   2.783  15.211  -2.265
11172POPC   NC328573   2.643  21.716   9.467
11172POPC   PO428574   2.536  21.884   9.451
11172POPC   GL128575   2.429  22.052   9.435
11172POPC   GL228576   2.498  22.090   9.374
11172POPC   C1A28577   2.321  22.220   9.419
11172POPC   D2A28578   2.214  22.388   9.404
11172POPC   C3A28579   2.106  22.556   9.388
11172POPC   C4A28580   1.999  22.724   9.372
11172POPC   C1B28581   2.418  22.297   9.577
11172POPC   C2B28582   2.311  22.465   9.561
11172POPC   C3B28583   2.203  22.633   9.545
11172POPC   C4B28584   2.096  22.801   9.529
11173POPC   NC328585   4.413  21.583  15.151
11173POPC   PO428586   4.330  21.750  15.224
11173POPC   GL128587   4.247  21.917  15.297
11173POPC   GL228588   4.324  21.970  15.263
11173POPC   C1A28589   4.164  22.084  15.369
11173POPC   D2A28590   4.080  22.250  15.442
11173POPC   C3A28591   3.997  22.417  15.514
11173POPC   C4A28592   3.914  22.584  15.587
11173POPC   C1B28593   4.259  22.056  15.543
11173POPC   C2B28594   4.176  22.223  15.615
11173POPC   C3B28595   4.093  22.390  15.688
11173POPC   C4B28596   4.010  22.556  15.760
11174POPC   NC328597  20.793   9.110  18.361
11174POPC   PO428598  20.952   9.091  18.480
11174POPC   GL128599  21.111   9.072  18.599
11174POPC   GL228600  21.159   9.142  18.546
11174POPC   C1A28601  21.271   9.053  18.718
11174POPC   D2A28602  21.430   9.033  18.838
11174POPC   C3A28603  21.590   9.014  18.957
11174POPC   C4A28604  21.749   8.995  19.076
11174POPC   C1B28605  21.344   8.911  18.598
11174POPC   C2B28606  21.504   8.892  18.717
11174POPC   C3B28607  21.663   8.873  18.836
11174POPC   C4B28608  21.822   8.853  18.955
11175POPC   NC328609  23.400  12.718   8.609
11175POPC   PO428610  23.596  12.754   8.592
11175POPC   GL128611  23.792  12.790   8.575
11175POPC   GL228612  23.795  12.735   8.491
11175POPC   C1A28613  23.988  12.826   8.558
11175POPC   D2A28614  24.184  12.862   8.540
11175POPC   C3A28615  24.380  12.898   8.523
11175POPC   C4A28616  24.576  12.934   8.506
11175POPC   C1B28617  24.028  12.662   8.666
11175POPC   C2B28618  24.224  12.698   8.649
11175POPC   C3B28619  24.420  12.734   8.631
11175POPC   C4B28620  24.616  12.770   8.614
11176POPC   NC328621  -0.038   4.886  18.137
11176POPC   PO428622  -0.173   4.812  18.265
11176POPC   GL128623  -0.308   4.738  18.393
11176POPC   GL228624  -0.244   4.666  18.419
11176POPC   C1A28625  -0.443   4.664  18.521
11176POPC   D2A28626  -0.577   4.591  18.649
11176POPC   C3A28627  -0.712   4.517  18.777
11176POPC   C4A28628  -0.847   4.443  18.905
11176POPC   C1B28629  -0.515   4.547  18.376
11176POPC   C2B28630  -0.650   4.473  18.504
11176POPC   C3B28631  -0.785   4.399  18.632
11176POPC   C4B28632  -0.920   4.326  18.760
11177POPC   NC328633   9.830  -1.441   2.109
11177POPC   PO428634   9.827  -1.606   1.996
11177POPC   GL128635   9.824  -1.771   1.883
11177POPC   GL228636   9.908  -1.803   1.927
11177POPC   C1A28637   9.821  -1.936   1.770
11177POPC   D2A28638   9.818  -2.102   1.658
11177POPC   C3A28639   9.815  -2.267   1.545
11177POPC   C4A28640   9.812  -2.432   1.432
11177POPC   C1B28641   9.930  -1.843   1.631
11177POPC   C2B28642   9.927  -2.008   1.518
11177POPC   C3B28643   9.924  -2.174   1.405
11177POPC   C4B28644   9.921  -2.339   1.292
11178POPC   NC328645  21.314  17.096   7.071
11178POPC   PO428646  21.479  17.200   7.029
11178POPC   GL128647  21.644  17.304   6.987
11178POPC   GL228648  21.670  17.236   6.919
11178POPC   C1A28649  21.810  17.408   6.945
11178POPC   D2A28650  21.975  17.513   6.902
11178POPC   C3A28651  22.141  17.617   6.860
11178POPC   C4A28652  22.306  17.721   6.818
11178POPC   C1B28653  21.910  17.306   7.084
11178POPC   C2B28654  22.075  17.410   7.042
11178POPC   C3B28655  22.241  17.515   7.000
11178POPC   C4B28656  22.406  17.619   6.958
11179POPC   NC328657   6.320  17.256  21.203
11179POPC   PO428658   6.270  17.369  21.360
11179POPC   GL128659   6.220  17.482  21.517
11179POPC   GL228660   6.310  17.526  21.515
11179POPC   C1A28661   6.170  17.595  21.674
11179POPC   D2A28662   6.120  17.708  21.832
11179POPC   C3A28663   6.070  17.821  21.989
11179POPC   C4A28664   6.020  17.934  22.146
11179POPC   C1B28665   6.242  17.455  21.798
11179POPC   C2B28666   6.192  17.568  21.955
11179POPC   C3B28667   6.142  17.681  22.112
11179POPC   C4B28668   6.092  17.794  22.270
11180POPC   NC328669   4.584   4.562  21.584
11180POPC   PO428670   4.504   4.487  21.751
11180POPC   GL128671   4.424   4.412  21.918
11180POPC   GL228672   4.444   4.319  21.886
11180POPC   C1A28673   4.344   4.337  22.086
11180POPC   D2A28674   4.265   4.261  22.253
11180POPC   C3A28675   4.185   4.186  22.421
11180POPC   C4A28676   4.105   4.111  22.588
11180POPC   C1B28677   4.165   4.329  21.997
11180POPC   C2B28678   4.085   4.254  22.165
11180POPC   C3B28679   4.006   4.179  22.332
11180POPC   C4B28680   3.926   4.104  22.499
11181POPC   NC328681  -0.151  19.574  10.168
11181POPC   PO428682  -0.294  19.714  10.171
11181POPC   GL128683  -0.437  19.854  10.174
11181POPC   GL228684  -0.395  19.895  10.255
11181POPC   C1A28685  -0.580  19.994  10.177
11181POPC   D2A28686  -0.722  20.134  10.179
11181POPC   C3A28687  -0.865  20.274  10.182
11181POPC   C4A28688  -1.008  20.414  10.185
11181POPC   C1B28689  -0.693  19.876  10.293
11181POPC   C2B28690  -0.835  20.016  10.295
11181POPC   C3B28691  -0.978  20.156  10.298
11181POPC   C4B28692  -1.121  20.296  10.301
11182POPC   NC328693  14.824  19.586   1.208
11182POPC   PO428694  14.903  19.726   1.089
11182POPC   GL128695  14.982  19.866   0.970
11182POPC   GL228696  15.043  19.798   0.930
11182POPC   C1A28697  15.061  20.006   0.851
11182POPC   D2A28698  15.139  20.146   0.732
11182POPC   C3A28699  15.218  20.286   0.613
11182POPC   C4A28700  15.297  20.426   0.494
11182POPC   C1B28701  15.198  20.047   0.990
11182POPC   C2B28702  15.277  20.187   0.871
11182POPC   C3B28703  15.356  20.327   0.752
11182POPC   C4B28704  15.435  20.467   0.633
11183POPC   NC328705  19.639  12.635  19.268
11183POPC   PO428706  19.773  12.679  19.409
11183POPC   GL128707  19.907  12.723  19.550
11183POPC   GL228708  19.965  12.768  19.482
11183POPC   C1A28709  20.042  12.767  19.692
11183POPC   D2A28710  20.176  12.812  19.833
11183POPC   C3A28711  20.311  12.856  19.975
11183POPC   C4A28712  20.445  12.900  20.116
11183POPC   C1B28713  20.135  12.594  19.657
11183POPC   C2B28714  20.270  12.638  19.798
11183POPC   C3B28715  20.404  12.682  19.940
11183POPC   C4B28716  20.539  12.727  20.081
11184POPC   NC328717   2.845  19.893   3.392
11184POPC   PO428718   2.743  20.040   3.303
11184POPC   GL128719   2.641  20.187   3.214
11184POPC   GL228720   2.717  20.249   3.229
11184POPC   C1A28721   2.538  20.334   3.124
11184POPC   D2A28722   2.436  20.480   3.035
11184POPC   C3A28723   2.333  20.627   2.945
11184POPC   C4A28724   2.231  20.774   2.856
11184POPC   C1B28725   2.460  20.386   3.300
11184POPC   C2B28726   2.357  20.533   3.211
11184POPC   C3B28727   2.255  20.680   3.122
11184POPC   C4B28728   2.153  20.827   3.032
11185POPC   NC328729  16.961  20.874  14.541
11185POPC   PO428730  17.071  21.024  14.614
11185POPC   GL128731  17.181  21.174  14.687
11185POPC   GL228732  17.197  21.207  14.594
11185POPC   C1A28733  17.292  21.324  14.759
11185POPC   D2A28734  17.402  21.474  14.832
11185POPC   C3A28735  17.513  21.624  14.904
11185POPC   C4A28736  17.623  21.774  14.977
11185POPC   C1B28737  17.455  21.210  14.747
11185POPC   C2B28738  17.566  21.360  14.819
11185POPC   C3B28739  17.676  21.510  14.892
11185POPC   C4B28740  17.787  21.660  14.964
11186POPC   NC328741   3.563   0.220  17.505
11186POPC   PO428742   3.472   0.078  17.613
11186POPC   GL128743   3.381  -0.064  17.721
11186POPC   GL228744   3.470  -0.107  17.739
11186POPC   C1A28745   3.290  -0.205  17.829
11186POPC   D2A28746   3.200  -0.347  17.937
11186POPC   C3A28747   3.109  -0.488  18.045
11186POPC   C4A28748   3.018  -0.630  18.153
11186POPC   C1B28749   3.269  -0.317  17.665
11186POPC   C2B28750   3.178  -0.459  17.773
11186POPC   C3B28751   3.087  -0.600  17.881
11186POPC   C4B28752   2.997  -0.742  17.989
11187POPC   NC328753  21.836  10.823   3.081
11187POPC   PO428754  22.007  10.834   2.977
11187POPC   GL128755  22.178  10.845   2.873
11187POPC   GL228756  22.156  10.939   2.848
11187POPC   C1A28757  22.348  10.856   2.770
11187POPC   D2A28758  22.519  10.866   2.666
11187POPC   C3A28759  22.689  10.877   2.563
11187POPC   C4A28760  22.860  10.888   2.459
11187POPC   C1B28761  22.253  10.791   2.606
11187POPC   C2B28762  22.424  10.802   2.503
11187POPC   C3B28763  22.594  10.812   2.399
11187POPC   C4B28764  22.765  10.823   2.296
11188POPC   NC328765   8.994  -1.164  18.122
11188POPC   PO428766   8.983  -1.324  18.241
11188POPC   GL128767   8.972  -1.484  18.360
11188POPC   GL228768   9.052  -1.523  18.315
11188POPC   C1A28769   8.960  -1.645  18.479
11188POPC   D2A28770   8.949  -1.805  18.597
11188POPC   C3A28771   8.937  -1.966  18.716
11188POPC   C4A28772   8.926  -2.126  18.835
11188POPC   C1B28773   8.842  -1.735  18.345
11188POPC   C2B28774   8.830  -1.896  18.464
11188POPC   C3B28775   8.819  -2.056  18.583
11188POPC   C4B28776   8.807  -2.216  18.702
11189POPC   NC328777  21.494  12.603   2.906
11189POPC   PO428778  21.661  12.637   2.802
11189POPC   GL128779  21.828  12.671   2.698
11189POPC   GL228780  21.776  12.723   2.631
11189POPC   C1A28781  21.995  12.705   2.594
11189POPC   D2A28782  22.163  12.739   2.489
11189POPC   C3A28783  22.330  12.773   2.385
11189POPC   C4A28784  22.497  12.807   2.281
11189POPC   C1B28785  21.963  12.538   2.488
11189POPC   C2B28786  22.131  12.572   2.384
11189POPC   C3B28787  22.298  12.606   2.280
11189POPC   C4B28788  22.465  12.640   2.175
11190POPC   NC328789   1.880  16.891  18.854
11190POPC   PO428790   1.765  16.986  18.987
11190POPC   GL128791   1.650  17.081  19.120
11190POPC   GL228792   1.732  17.119  19.164
11190POPC   C1A28793   1.535  17.176  19.253
11190POPC   D2A28794   1.421  17.272  19.387
11190POPC   C3A28795   1.306  17.367  19.520
11190POPC   C4A28796   1.191  17.462  19.653
11190POPC   C1B28797   1.545  17.018  19.375
11190POPC   C2B28798   1.430  17.113  19.508
11190POPC   C3B28799   1.315  17.208  19.641
11190POPC   C4B28800   1.200  17.303  19.774
11191POPC   NC328801  18.799  19.456  14.307
11191POPC   PO428802  18.928  19.593  14.374
11191POPC   GL128803  19.057  19.730  14.441
11191POPC   GL228804  19.101  19.661  14.498
11191POPC   C1A28805  19.186  19.868  14.508
11191POPC   D2A28806  19.315  20.005  14.575
11191POPC   C3A28807  19.444  20.143  14.642
11191POPC   C4A28808  19.573  20.280  14.709
11191POPC   C1B28809  19.061  19.912  14.658
11191POPC   C2B28810  19.190  20.049  14.725
11191POPC   C3B28811  19.319  20.187  14.792
11191POPC   C4B28812  19.448  20.324  14.859
11192POPC   NC328813  14.806  18.616  19.635
11192POPC   PO428814  14.876  18.740  19.776
11192POPC   GL128815  14.946  18.864  19.917
11192POPC   GL228816  15.033  18.870  19.868
11192POPC   C1A28817  15.015  18.988  20.058
11192POPC   D2A28818  15.085  19.112  20.198
11192POPC   C3A28819  15.154  19.236  20.339
11192POPC   C4A28820  15.224  19.360  20.480
11192POPC   C1B28821  15.084  18.832  20.161
11192POPC   C2B28822  15.154  18.956  20.302
11192POPC   C3B28823  15.223  19.080  20.443
11192POPC   C4B28824  15.293  19.204  20.584
11193POPC   NC328825  16.729  19.142  17.728
11193POPC   PO428826  16.831  19.281  17.830
11193POPC   GL128827  16.933  19.420  17.932
11193POPC   GL228828  17.019  19.379  17.901
11193POPC   C1A28829  17.035  19.559  18.034
11193POPC   D2A28830  17.136  19.697  18.135
11193POPC   C3A28831  17.238  19.836  18.237
11193POPC   C4A28832  17.340  19.975  18.339
11193POPC   C1B28833  17.035  19.440  18.195
11193POPC   C2B28834  17.137  19.579  18.296
11193POPC   C3B28835  17.239  19.717  18.398
11193POPC   C4B28836  17.341  19.856  18.500
11194POPC   NC328837  -4.002  10.935  10.438
11194POPC   PO428838  -4.201  10.948  10.446
11194POPC   GL128839  -4.400  10.961  10.454
11194POPC   GL228840  -4.393  11.043  10.511
11194POPC   C1A28841  -4.600  10.974  10.461
11194POPC   D2A28842  -4.799  10.987  10.469
11194POPC   C3A28843  -4.999  11.000  10.476
11194POPC   C4A28844  -5.198  11.013  10.484
11194POPC   C1B28845  -4.601  10.860  10.625
11194POPC   C2B28846  -4.800  10.873  10.633
11194POPC   C3B28847  -5.000  10.886  10.641
11194POPC   C4B28848  -5.199  10.899  10.648
11195POPC   NC328849  23.118  12.742   6.795
11195POPC   PO428850  23.309  12.780   6.751
11195POPC   GL128851  23.500  12.818   6.707
11195POPC   GL228852  23.474  12.844   6.614
11195POPC   C1A28853  23.692  12.856   6.664
11195POPC   D2A28854  23.883  12.894   6.620
11195POPC   C3A28855  24.075  12.932   6.577
11195POPC   C4A28856  24.266  12.970   6.533
11195POPC   C1B28857  23.716  12.667   6.604
11195POPC   C2B28858  23.907  12.705   6.561
11195POPC   C3B28859  24.099  12.743   6.517
11195POPC   C4B28860  24.290  12.781   6.474
11196POPC   NC328861   1.793   8.989  21.198
11196POPC   PO428862   1.669   8.966  21.354
11196POPC   GL128863   1.545   8.943  21.510
11196POPC   GL228864   1.572   9.032  21.544
11196POPC   C1A28865   1.422   8.919  21.665
11196POPC   D2A28866   1.298   8.896  21.821
11196POPC   C3A28867   1.175   8.872  21.976
11196POPC   C4A28868   1.051   8.849  22.132
11196POPC   C1B28869   1.570   8.834  21.770
11196POPC   C2B28870   1.446   8.811  21.925
11196POPC   C3B28871   1.322   8.788  22.081
11196POPC   C4B28872   1.199   8.764  22.237
11197POPC   NC328873  21.558   7.736  16.889
11197POPC   PO428874  21.725   7.702  16.993
11197POPC   GL128875  21.892   7.668  17.097
11197POPC   GL228876  21.936   7.632  17.015
11197POPC   C1A28877  22.059   7.633  17.201
11197POPC   D2A28878  22.227   7.599  17.306
11197POPC   C3A28879  22.394   7.564  17.410
11197POPC   C4A28880  22.561   7.530  17.514
11197POPC   C1B28881  21.994   7.450  17.246
11197POPC   C2B28882  22.161   7.415  17.351
11197POPC   C3B28883  22.328   7.381  17.455
11197POPC   C4B28884  22.495   7.347  17.559
11198POPC   NC328885   5.378  19.875   1.354
11198POPC   PO428886   5.318  20.023   1.234
11198POPC   GL128887   5.258  20.171   1.114
11198POPC   GL228888   5.280  20.238   1.185
11198POPC   C1A28889   5.198  20.319   0.994
11198POPC   D2A28890   5.137  20.467   0.873
11198POPC   C3A28891   5.077  20.615   0.753
11198POPC   C4A28892   5.017  20.763   0.633
11198POPC   C1B28893   5.012  20.304   1.067
11198POPC   C2B28894   4.952  20.452   0.947
11198POPC   C3B28895   4.892  20.600   0.827
11198POPC   C4B28896   4.832  20.748   0.707
11199POPC   NC328897  19.599  18.086   4.399
11199POPC   PO428898  19.737  18.206   4.318
11199POPC   GL128899  19.875  18.326   4.237
11199POPC   GL228900  19.910  18.249   4.184
11199POPC   C1A28901  20.012  18.446   4.156
11199POPC   D2A28902  20.150  18.567   4.074
11199POPC   C3A28903  20.287  18.687   3.993
11199POPC   C4A28904  20.425  18.807   3.912
11199POPC   C1B28905  20.139  18.402   4.304
11199POPC   C2B28906  20.276  18.522   4.223
11199POPC   C3B28907  20.414  18.642   4.142
11199POPC   C4B28908  20.551  18.763   4.061
11200POPC   NC328909   7.596  -0.836   1.602
11200POPC   PO428910   7.565  -0.994   1.483
11200POPC   GL128911   7.534  -1.152   1.364
11200POPC   GL228912   7.622  -1.135   1.319
11200POPC   C1A28913   7.504  -1.309   1.245
11200POPC   D2A28914   7.473  -1.467   1.125
11200POPC   C3A28915   7.443  -1.624   1.006
11200POPC   C4A28916   7.412  -1.782   0.887
11200POPC   C1B28917   7.413  -1.191   1.111
11200POPC   C2B28918   7.383  -1.348   0.992
11200POPC   C3B28919   7.352  -1.506   0.873
11200POPC   C4B28920   7.322  -1.663   0.754
11201POPC   NC328921   3.875  15.898  20.933
11201POPC   PO428922   3.778  15.980  21.087
11201POPC   GL128923   3.681  16.062  21.241
11201POPC   GL228924   3.738  16.010  21.305
11201POPC   C1A28925   3.584  16.144  21.396
11201POPC   D2A28926   3.487  16.227  21.550
11201POPC   C3A28927   3.390  16.309  21.705
11201POPC   C4A28928   3.293  16.391  21.859
11201POPC   C1B28929   3.451  15.995  21.392
11201POPC   C2B28930   3.354  16.078  21.546
11201POPC   C3B28931   3.257  16.160  21.700
11201POPC   C4B28932   3.160  16.242  21.855
11202POPC   NC328933   3.642   0.584  18.019
11202POPC   PO428934   3.552   0.449  18.136
11202POPC   GL128935   3.462   0.314  18.253
11202POPC   GL228936   3.526   0.335  18.326
11202POPC   C1A28937   3.372   0.178  18.369
11202POPC   D2A28938   3.283   0.043  18.486
11202POPC   C3A28939   3.193  -0.093  18.602
11202POPC   C4A28940   3.103  -0.228  18.719
11202POPC   C1B28941   3.497   0.037  18.301
11202POPC   C2B28942   3.407  -0.098  18.418
11202POPC   C3B28943   3.317  -0.234  18.535
11202POPC   C4B28944   3.228  -0.369  18.651
11203POPC   NC328945  16.440  17.726   0.488
11203POPC   PO428946  16.539  17.836   0.354
11203POPC   GL128947  16.638  17.946   0.220
11203POPC   GL228948  16.721  17.893   0.237
11203POPC   C1A28949  16.737  18.057   0.085
11203POPC   D2A28950  16.835  18.167  -0.049
11203POPC   C3A28951  16.934  18.278  -0.184
11203POPC   C4A28952  17.033  18.388  -0.318
11203POPC   C1B28953  16.790  18.185   0.229
11203POPC   C2B28954  16.888  18.295   0.095
11203POPC   C3B28955  16.987  18.406  -0.040
11203POPC   C4B28956  17.086  18.516  -0.174
11204POPC   NC328957  11.016  -3.706  11.507
11204POPC   PO428958  11.029  -3.904  11.529
11204POPC   GL128959  11.042  -4.102  11.551
11204POPC   GL228960  11.129  -4.102  11.501
11204POPC   C1A28961  11.056  -4.301  11.573
11204POPC   D2A28962  11.069  -4.499  11.596
11204POPC   C3A28963  11.083  -4.698  11.618
11204POPC   C4A28964  11.096  -4.896  11.640
11204POPC   C1B28965  10.956  -4.327  11.402
11204POPC   C2B28966  10.969  -4.525  11.424
11204POPC   C3B28967  10.983  -4.723  11.447
11204POPC   C4B28968  10.996  -4.922  11.469
11205POPC   NC328969   2.484  21.165   6.832
11205POPC   PO428970   2.375  21.327   6.789
11205POPC   GL128971   2.266  21.489   6.746
11205POPC   GL228972   2.350  21.544   6.739
11205POPC   C1A28973   2.158  21.652   6.703
11205POPC   D2A28974   2.049  21.814   6.659
11205POPC   C3A28975   1.941  21.977   6.616
11205POPC   C4A28976   1.832  22.139   6.573
11205POPC   C1B28977   2.146  21.696   6.897
11205POPC   C2B28978   2.038  21.858   6.854
11205POPC   C3B28979   1.929  22.021   6.811
11205POPC   C4B28980   1.820  22.183   6.768
11206POPC   NC328981   0.853   2.945   2.117
11206POPC   PO428982   0.731   2.843   1.995
11206POPC   GL128983   0.609   2.741   1.873
11206POPC   GL228984   0.653   2.656   1.901
11206POPC   C1A28985   0.488   2.639   1.751
11206POPC   D2A28986   0.366   2.538   1.630
11206POPC   C3A28987   0.245   2.436   1.508
11206POPC   C4A28988   0.123   2.334   1.386
11206POPC   C1B28989   0.620   2.660   1.603
11206POPC   C2B28990   0.498   2.558   1.481
11206POPC   C3B28991   0.377   2.456   1.359
11206POPC   C4B28992   0.255   2.354   1.237
11207POPC   NC328993  12.069  22.514   4.603
11207POPC   PO428994  12.107  22.696   4.529
11207POPC   GL128995  12.145  22.878   4.455
11207POPC   GL228996  12.225  22.841   4.407
11207POPC   C1A28997  12.183  23.060   4.381
11207POPC   D2A28998  12.221  23.241   4.306
11207POPC   C3A28999  12.259  23.423   4.232
11207POPC   C4A29000  12.297  23.605   4.158
11207POPC   C1B29001  12.298  23.100   4.539
11207POPC   C2B29002  12.336  23.282   4.465
11207POPC   C3B29003  12.374  23.464   4.391
11207POPC   C4B29004  12.412  23.646   4.317
11208POPC   NC329005  21.007   3.692  15.369
11208POPC   PO429006  21.168   3.601  15.444
11208POPC   GL129007  21.329   3.510  15.519
11208POPC   GL229008  21.387   3.585  15.487
11208POPC   C1A29009  21.491   3.419  15.594
11208POPC   D2A29010  21.652   3.327  15.670
11208POPC   C3A29011  21.814   3.236  15.745
11208POPC   C4A29012  21.975   3.145  15.820
11208POPC   C1B29013  21.518   3.323  15.421
11208POPC   C2B29014  21.679   3.232  15.496
11208POPC   C3B29015  21.840   3.141  15.571
11208POPC   C4B29016  22.002   3.050  15.646
11209POPC   NC329017   8.902  -1.994   3.081
11209POPC   PO429018   8.885  -2.167   2.982
11209POPC   GL129019   8.868  -2.340   2.883
11209POPC   GL229020   8.967  -2.341   2.869
11209POPC   C1A29021   8.852  -2.513   2.785
11209POPC   D2A29022   8.835  -2.687   2.686
11209POPC   C3A29023   8.819  -2.860   2.588
11209POPC   C4A29024   8.802  -3.033   2.489
11209POPC   C1B29025   8.828  -2.413   2.613
11209POPC   C2B29026   8.811  -2.587   2.515
11209POPC   C3B29027   8.795  -2.760   2.416
11209POPC   C4B29028   8.778  -2.933   2.317
11210POPC   NC329029   4.682   8.815  22.782
11210POPC   PO429030   4.615   8.805  22.970
11210POPC   GL129031   4.548   8.795  23.158
11210POPC   GL229032   4.633   8.750  23.186
11210POPC   C1A29033   4.481   8.785  23.346
11210POPC   D2A29034   4.415   8.775  23.535
11210POPC   C3A29035   4.348   8.765  23.723
11210POPC   C4A29036   4.281   8.755  23.911
11210POPC   C1B29037   4.400   8.606  23.308
11210POPC   C2B29038   4.334   8.596  23.496
11210POPC   C3B29039   4.267   8.586  23.685
11210POPC   C4B29040   4.200   8.576  23.873
11211POPC   NC329041  11.716  13.810  -3.227
11211POPC   PO429042  11.743  13.868  -3.417
11211POPC   GL129043  11.770  13.926  -3.607
11211POPC   GL229044  11.859  13.880  -3.608
11211POPC   C1A29045  11.796  13.983  -3.796
11211POPC   D2A29046  11.823  14.041  -3.986
11211POPC   C3A29047  11.849  14.098  -4.175
11211POPC   C4A29048  11.876  14.156  -4.365
11211POPC   C1B29049  11.883  14.152  -3.733
11211POPC   C2B29050  11.909  14.210  -3.922
11211POPC   C3B29051  11.936  14.267  -4.112
11211POPC   C4B29052  11.962  14.325  -4.302
11212POPC   NC329053  22.686  14.742   7.959
11212POPC   PO429054  22.868  14.820   7.933
11212POPC   GL129055  23.050  14.898   7.907
11212POPC   GL229056  23.020  14.940   7.821
11212POPC   C1A29057  23.232  14.976   7.880
11212POPC   D2A29058  23.415  15.055   7.854
11212POPC   C3A29059  23.597  15.133   7.827
11212POPC   C4A29060  23.779  15.211   7.801
11212POPC   C1B29061  23.289  14.812   7.781
11212POPC   C2B29062  23.471  14.891   7.754
11212POPC   C3B29063  23.653  14.969   7.728
11212POPC   C4B29064  23.835  15.047   7.701
11213POPC   NC329065  -0.770  11.119   1.142
11213POPC   PO429066  -0.918  11.127   1.008
11213POPC   GL129067  -1.066  11.135   0.874
11213POPC   GL229068  -1.076  11.233   0.891
11213POPC   C1A29069  -1.214  11.142   0.739
11213POPC   D2A29070  -1.361  11.150   0.605
11213POPC   C3A29071  -1.509  11.157   0.470
11213POPC   C4A29072  -1.657  11.165   0.336
11213POPC   C1B29073  -1.347  11.103   0.883
11213POPC   C2B29074  -1.494  11.110   0.749
11213POPC   C3B29075  -1.642  11.118   0.614
11213POPC   C4B29076  -1.790  11.126   0.480
11214POPC   NC329077   9.288  -3.804  10.473
11214POPC   PO429078   9.279  -4.004  10.480
11214POPC   GL129079   9.270  -4.204  10.487
11214POPC   GL229080   9.354  -4.209  10.433
11214POPC   C1A29081   9.261  -4.403  10.494
11214POPC   D2A29082   9.252  -4.603  10.502
11214POPC   C3A29083   9.243  -4.802  10.509
11214POPC   C4A29084   9.234  -5.002  10.516
11214POPC   C1B29085   9.152  -4.404  10.327
11214POPC   C2B29086   9.143  -4.604  10.334
11214POPC   C3B29087   9.134  -4.804  10.341
11214POPC   C4B29088   9.125  -5.003  10.348
11215POPC   NC329089  23.580   8.900  10.633
11215POPC   PO429090  23.780   8.888  10.640
11215POPC   GL129091  23.980   8.876  10.647
11215POPC   GL229092  23.987   8.948  10.578
11215POPC   C1A29093  24.179   8.864  10.654
11215POPC   D2A29094  24.379   8.851  10.662
11215POPC   C3A29095  24.578   8.839  10.669
11215POPC   C4A29096  24.778   8.827  10.676
11215POPC   C1B29097  24.176   8.725  10.510
11215POPC   C2B29098  24.376   8.713  10.518
11215POPC   C3B29099  24.575   8.701  10.525
11215POPC   C4B29100  24.775   8.688  10.532
11216POPC   NC329101  20.506  17.917   6.224
11216POPC   PO429102  20.662  18.030   6.172
11216POPC   GL129103  20.818  18.143   6.120
11216POPC   GL229104  20.837  18.082   6.043
11216POPC   C1A29105  20.974  18.257   6.068
11216POPC   D2A29106  21.131  18.370   6.015
11216POPC   C3A29107  21.287  18.484   5.963
11216POPC   C4A29108  21.443  18.597   5.911
11216POPC   C1B29109  21.093  18.147   6.185
11216POPC   C2B29110  21.250  18.260   6.133
11216POPC   C3B29111  21.406  18.374   6.081
11216POPC   C4B29112  21.562  18.487   6.029
11217POPC   NC329113  13.473  -0.058  18.669
11217POPC   PO429114  13.518  -0.203  18.800
11217POPC   GL129115  13.563  -0.348  18.931
11217POPC   GL229116  13.572  -0.413  18.855
11217POPC   C1A29117  13.608  -0.492  19.061
11217POPC   D2A29118  13.653  -0.637  19.192
11217POPC   C3A29119  13.698  -0.781  19.322
11217POPC   C4A29120  13.743  -0.926  19.453
11217POPC   C1B29121  13.414  -0.537  19.078
11217POPC   C2B29122  13.459  -0.682  19.209
11217POPC   C3B29123  13.504  -0.826  19.339
11217POPC   C4B29124  13.549  -0.971  19.470
11218POPC   NC329125  12.876  17.012  21.465
11218POPC   PO429126  12.918  17.109  21.635
11218POPC   GL129127  12.960  17.206  21.805
11218POPC   GL229128  13.052  17.168  21.804
11218POPC   C1A29129  13.002  17.302  21.975
11218POPC   D2A29130  13.043  17.399  22.145
11218POPC   C3A29131  13.085  17.495  22.315
11218POPC   C4A29132  13.127  17.592  22.485
11218POPC   C1B29133  12.939  17.144  22.080
11218POPC   C2B29134  12.981  17.241  22.250
11218POPC   C3B29135  13.022  17.337  22.420
11218POPC   C4B29136  13.064  17.434  22.590
11219POPC   NC329137  18.764   0.185   5.800
11219POPC   PO429138  18.892   0.043   5.742
11219POPC   GL129139  19.020  -0.099   5.684
11219POPC   GL229140  18.997  -0.081   5.588
11219POPC   C1A29141  19.148  -0.241   5.625
11219POPC   D2A29142  19.276  -0.384   5.567
11219POPC   C3A29143  19.404  -0.526   5.508
11219POPC   C4A29144  19.532  -0.668   5.450
11219POPC   C1B29145  19.001  -0.377   5.634
11219POPC   C2B29146  19.129  -0.519   5.576
11219POPC   C3B29147  19.257  -0.661   5.517
11219POPC   C4B29148  19.385  -0.804   5.459
11220POPC   NC329149  -2.803  15.541  11.037
11220POPC   PO429150  -2.986  15.619  11.055
11220POPC   GL129151  -3.169  15.697  11.073
11220POPC   GL229152  -3.135  15.785  11.040
11220POPC   C1A29153  -3.352  15.775  11.090
11220POPC   D2A29154  -3.536  15.854  11.108
11220POPC   C3A29155  -3.719  15.932  11.125
11220POPC   C4A29156  -3.902  16.010  11.143
11220POPC   C1B29157  -3.312  15.828  11.279
11220POPC   C2B29158  -3.495  15.906  11.296
11220POPC   C3B29159  -3.678  15.985  11.314
11220POPC   C4B29160  -3.861  16.063  11.332
11221POPC   NC329161  21.166   9.388   2.049
11221POPC   PO429162  21.329   9.385   1.933
11221POPC   GL129163  21.492   9.382   1.817
11221POPC   GL229164  21.439   9.338   1.744
11221POPC   C1A29165  21.654   9.378   1.700
11221POPC   D2A29166  21.817   9.375   1.584
11221POPC   C3A29167  21.979   9.371   1.467
11221POPC   C4A29168  22.142   9.368   1.351
11221POPC   C1B29169  21.702   9.198   1.773
11221POPC   C2B29170  21.865   9.195   1.656
11221POPC   C3B29171  22.027   9.191   1.540
11221POPC   C4B29172  22.190   9.188   1.424
11222POPC   NC329173   1.024  15.769  18.837
11222POPC   PO429174   0.901  15.851  18.972
11222POPC   GL129175   0.778  15.933  19.107
11222POPC   GL229176   0.853  15.991  19.139
11222POPC   C1A29177   0.655  16.015  19.242
11222POPC   D2A29178   0.533  16.098  19.376
11222POPC   C3A29179   0.410  16.180  19.511
11222POPC   C4A29180   0.287  16.262  19.646
11222POPC   C1B29181   0.707  15.875  19.374
11222POPC   C2B29182   0.585  15.957  19.509
11222POPC   C3B29183   0.462  16.040  19.644
11222POPC   C4B29184   0.339  16.122  19.779
11223POPC   NC329185  18.131  -0.803   7.191
11223POPC   PO429186  18.250  -0.959   7.150
11223POPC   GL129187  18.369  -1.115   7.109
11223POPC   GL229188  18.429  -1.089   7.185
11223POPC   C1A29189  18.487  -1.271   7.069
11223POPC   D2A29190  18.606  -1.426   7.028
11223POPC   C3A29191  18.724  -1.582   6.988
11223POPC   C4A29192  18.843  -1.738   6.947
11223POPC   C1B29193  18.594  -1.156   6.944
11223POPC   C2B29194  18.713  -1.312   6.904
11223POPC   C3B29195  18.832  -1.468   6.863
11223POPC   C4B29196  18.950  -1.624   6.823
11224POPC   NC329197  20.498   1.428   7.630
11224POPC   PO429198  20.653   1.307   7.597
11224POPC   GL129199  20.808   1.186   7.564
11224POPC   GL229200  20.798   1.199   7.465
11224POPC   C1A29201  20.964   1.064   7.531
11224POPC   D2A29202  21.119   0.943   7.497
11224POPC   C3A29203  21.275   0.821   7.464
11224POPC   C4A29204  21.430   0.700   7.431
11224POPC   C1B29205  20.840   0.908   7.521
11224POPC   C2B29206  20.995   0.786   7.488
11224POPC   C3B29207  21.150   0.665   7.455
11224POPC   C4B29208  21.306   0.544   7.422
11225POPC   NC329209   8.640   2.754  -1.858
11225POPC   PO429210   8.629   2.653  -2.030
11225POPC   GL129211   8.618   2.552  -2.202
11225POPC   GL229212   8.698   2.497  -2.175
11225POPC   C1A29213   8.608   2.450  -2.374
11225POPC   D2A29214   8.597   2.349  -2.547
11225POPC   C3A29215   8.587   2.247  -2.719
11225POPC   C4A29216   8.576   2.146  -2.891
11225POPC   C1B29217   8.729   2.584  -2.460
11225POPC   C2B29218   8.719   2.482  -2.633
11225POPC   C3B29219   8.708   2.381  -2.805
11225POPC   C4B29220   8.697   2.280  -2.977
11226POPC   NC329221   1.458   9.352  -0.995
11226POPC   PO429222   1.336   9.348  -1.153
11226POPC   GL129223   1.214   9.344  -1.311
11226POPC   GL229224   1.140   9.382  -1.255
11226POPC   C1A29225   1.092   9.340  -1.470
11226POPC   D2A29226   0.969   9.337  -1.628
11226POPC   C3A29227   0.847   9.333  -1.787
11226POPC   C4A29228   0.725   9.329  -1.945
11226POPC   C1B29229   1.034   9.155  -1.421
11226POPC   C2B29230   0.912   9.151  -1.579
11226POPC   C3B29231   0.789   9.148  -1.738
11226POPC   C4B29232   0.667   9.144  -1.896
11227POPC   NC329233  -2.677  14.089   5.961
11227POPC   PO429234  -2.859  14.149   5.902
11227POPC   GL129235  -3.041  14.209   5.843
11227POPC   GL229236  -3.054  14.255   5.931
11227POPC   C1A29237  -3.222  14.268   5.784
11227POPC   D2A29238  -3.404  14.328   5.725
11227POPC   C3A29239  -3.585  14.387   5.666
11227POPC   C4A29240  -3.767  14.447   5.607
11227POPC   C1B29241  -3.302  14.101   5.860
11227POPC   C2B29242  -3.483  14.160   5.801
11227POPC   C3B29243  -3.665  14.220   5.742
11227POPC   C4B29244  -3.846  14.280   5.683
11228POPC   NC329245   6.678  17.705  20.978
11228POPC   PO429246   6.631  17.824  21.132
11228POPC   GL129247   6.584  17.943  21.286
11228POPC   GL229248   6.673  17.988  21.278
11228POPC   C1A29249   6.538  18.063  21.439
11228POPC   D2A29250   6.491  18.182  21.593
11228POPC   C3A29251   6.445  18.302  21.746
11228POPC   C4A29252   6.398  18.421  21.900
11228POPC   C1B29253   6.616  17.930  21.566
11228POPC   C2B29254   6.569  18.049  21.720
11228POPC   C3B29255   6.522  18.168  21.874
11228POPC   C4B29256   6.476  18.288  22.027
11229POPC   NC329257  17.243  16.467   0.162
11229POPC   PO429258  17.347  16.559   0.018
11229POPC   GL129259  17.451  16.651  -0.126
11229POPC   GL229260  17.526  16.587  -0.113
11229POPC   C1A29261  17.554  16.743  -0.270
11229POPC   D2A29262  17.658  16.835  -0.415
11229POPC   C3A29263  17.761  16.927  -0.559
11229POPC   C4A29264  17.865  17.019  -0.703
11229POPC   C1B29265  17.635  16.865  -0.134
11229POPC   C2B29266  17.738  16.957  -0.279
11229POPC   C3B29267  17.842  17.049  -0.423
11229POPC   C4B29268  17.946  17.141  -0.567
11230POPC   NC329269  -1.281  17.876  12.203
11230POPC   PO429270  -1.440  17.992  12.239
11230POPC   GL129271  -1.599  18.108  12.275
11230POPC   GL229272  -1.538  18.183  12.301
11230POPC   C1A29273  -1.757  18.225  12.311
11230POPC   D2A29274  -1.916  18.341  12.347
11230POPC   C3A29275  -2.074  18.458  12.383
11230POPC   C4A29276  -2.233  18.574  12.419
11230POPC   C1B29277  -1.761  18.161  12.500
11230POPC   C2B29278  -1.920  18.277  12.536
11230POPC   C3B29279  -2.078  18.394  12.572
11230POPC   C4B29280  -2.237  18.510  12.608
11231POPC   NC329281  14.633  22.888   8.740
11231POPC   PO429282  14.708  23.073   8.724
11231POPC   GL129283  14.783  23.258   8.708
11231POPC   GL229284  14.855  23.223   8.647
11231POPC   C1A29285  14.858  23.443   8.691
11231POPC   D2A29286  14.933  23.627   8.675
11231POPC   C3A29287  15.008  23.812   8.658
11231POPC   C4A29288  15.083  23.997   8.642
11231POPC   C1B29289  14.975  23.409   8.850
11231POPC   C2B29290  15.050  23.594   8.834
11231POPC   C3B29291  15.125  23.779   8.817
11231POPC   C4B29292  15.200  23.964   8.801
11232POPC   NC329293  10.613   8.964  23.758
11232POPC   PO429294  10.624   8.949  23.957
11232POPC   GL129295  10.635   8.934  24.156
11232POPC   GL229296  10.709   8.867  24.147
11232POPC   C1A29297  10.646   8.919  24.355
11232POPC   D2A29298  10.658   8.903  24.555
11232POPC   C3A29299  10.669   8.888  24.754
11232POPC   C4A29300  10.680   8.873  24.953
11232POPC   C1B29301  10.511   8.771  24.352
11232POPC   C2B29302  10.522   8.756  24.551
11232POPC   C3B29303  10.534   8.741  24.750
11232POPC   C4B29304  10.545   8.726  24.949
11233POPC   NC329305  -3.335  12.639  13.373
11233POPC   PO429306  -3.526  12.676  13.421
11233POPC   GL129307  -3.717  12.713  13.469
11233POPC   GL229308  -3.688  12.740  13.561
11233POPC   C1A29309  -3.907  12.749  13.518
11233POPC   D2A29310  -4.098  12.786  13.566
11233POPC   C3A29311  -4.288  12.822  13.615
11233POPC   C4A29312  -4.479  12.859  13.663
11233POPC   C1B29313  -3.928  12.560  13.580
11233POPC   C2B29314  -4.118  12.597  13.629
11233POPC   C3B29315  -4.309  12.633  13.677
11233POPC   C4B29316  -4.499  12.670  13.725
11234POPC   NC329317   3.914  21.186  15.455
11234POPC   PO429318   3.826  21.349  15.531
11234POPC   GL129319   3.738  21.512  15.607
11234POPC   GL229320   3.814  21.568  15.575
11234POPC   C1A29321   3.650  21.675  15.683
11234POPC   D2A29322   3.562  21.837  15.759
11234POPC   C3A29323   3.474  22.000  15.835
11234POPC   C4A29324   3.386  22.163  15.911
11234POPC   C1B29325   3.746  21.645  15.856
11234POPC   C2B29326   3.658  21.808  15.932
11234POPC   C3B29327   3.570  21.971  16.008
11234POPC   C4B29328   3.482  22.134  16.084
11235POPC   NC329329   7.595   2.699  21.483
11235POPC   PO429330   7.565   2.601  21.655
11235POPC   GL129331   7.535   2.503  21.827
11235POPC   GL229332   7.619   2.544  21.864
11235POPC   C1A29333   7.505   2.406  21.999
11235POPC   D2A29334   7.476   2.308  22.171
11235POPC   C3A29335   7.446   2.211  22.343
11235POPC   C4A29336   7.416   2.113  22.515
11235POPC   C1B29337   7.611   2.251  21.930
11235POPC   C2B29338   7.582   2.153  22.102
11235POPC   C3B29339   7.552   2.056  22.274
11235POPC   C4B29340   7.522   1.958  22.446
11236POPC   NC329341  -0.138  15.967   2.398
11236POPC   PO429342  -0.284  16.057   2.295
11236POPC   GL129343  -0.430  16.147   2.192
11236POPC   GL229344  -0.400  16.236   2.226
11236POPC   C1A29345  -0.577  16.237   2.090
11236POPC   D2A29346  -0.723  16.326   1.987
11236POPC   C3A29347  -0.870  16.416   1.885
11236POPC   C4A29348  -1.016  16.506   1.782
11236POPC   C1B29349  -0.698  16.219   2.248
11236POPC   C2B29350  -0.845  16.309   2.145
11236POPC   C3B29351  -0.991  16.399   2.043
11236POPC   C4B29352  -1.137  16.488   1.940
11237POPC   NC329353  18.241  20.810  12.129
11237POPC   PO429354  18.365  20.962  12.166
11237POPC   GL129355  18.489  21.114  12.203
11237POPC   GL229356  18.561  21.069  12.150
11237POPC   C1A29357  18.614  21.266  12.240
11237POPC   D2A29358  18.738  21.419  12.276
11237POPC   C3A29359  18.863  21.571  12.313
11237POPC   C4A29360  18.987  21.723  12.350
11237POPC   C1B29361  18.678  21.174  12.405
11237POPC   C2B29362  18.802  21.326  12.442
11237POPC   C3B29363  18.927  21.478  12.479
11237POPC   C4B29364  19.051  21.631  12.515
11238POPC   NC329365   3.056  21.999   9.892
11238POPC   PO429366   2.955  22.171   9.883
11238POPC   GL129367   2.854  22.343   9.874
11238POPC   GL229368   2.929  22.385   9.824
11238POPC   C1A29369   2.752  22.515   9.866
11238POPC   D2A29370   2.651  22.688   9.857
11238POPC   C3A29371   2.549  22.860   9.849
11238POPC   C4A29372   2.448  23.032   9.840
11238POPC   C1B29373   2.836  22.573  10.038
11238POPC   C2B29374   2.734  22.745  10.029
11238POPC   C3B29375   2.633  22.918  10.021
11238POPC   C4B29376   2.532  23.090  10.012
11239POPC   NC329377   7.028   7.498  23.242
11239POPC   PO429378   6.989   7.458  23.434
11239POPC   GL129379   6.950   7.418  23.626
11239POPC   GL229380   7.048   7.405  23.643
11239POPC   C1A29381   6.911   7.378  23.818
11239POPC   D2A29382   6.873   7.339  24.011
11239POPC   C3A29383   6.834   7.299  24.203
11239POPC   C4A29384   6.795   7.259  24.395
11239POPC   C1B29385   6.892   7.184  23.774
11239POPC   C2B29386   6.853   7.144  23.966
11239POPC   C3B29387   6.814   7.105  24.159
11239POPC   C4B29388   6.776   7.065  24.351
11240POPC   NC329389  19.586  18.850   5.716
11240POPC   PO429390  19.731  18.974   5.656
11240POPC   GL129391  19.876  19.098   5.596
11240POPC   GL229392  19.884  19.047   5.511
11240POPC   C1A29393  20.021  19.222   5.537
11240POPC   D2A29394  20.167  19.345   5.477
11240POPC   C3A29395  20.312  19.469   5.418
11240POPC   C4A29396  20.457  19.593   5.358
11240POPC   C1B29397  20.158  19.102   5.620
11240POPC   C2B29398  20.303  19.225   5.561
11240POPC   C3B29399  20.448  19.349   5.501
11240POPC   C4B29400  20.594  19.473   5.441
11241POPC   NC329401   3.576  22.099   8.027
11241POPC   PO429402   3.475  22.269   7.997
11241POPC   GL129403   3.374  22.439   7.967
11241POPC   GL229404   3.448  22.491   8.010
11241POPC   C1A29405   3.273  22.609   7.937
11241POPC   D2A29406   3.171  22.779   7.908
11241POPC   C3A29407   3.070  22.949   7.878
11241POPC   C4A29408   2.969  23.119   7.848
11241POPC   C1B29409   3.184  22.587   8.115
11241POPC   C2B29410   3.083  22.757   8.086
11241POPC   C3B29411   2.982  22.927   8.056
11241POPC   C4B29412   2.880  23.097   8.026
11242POPC   NC329413  15.454  13.316  22.215
11242POPC   PO429414  15.540  13.369  22.388
11242POPC   GL129415  15.626  13.422  22.561
11242POPC   GL229416  15.661  13.329  22.572
11242POPC   C1A29417  15.712  13.476  22.733
11242POPC   D2A29418  15.797  13.529  22.906
11242POPC   C3A29419  15.883  13.583  23.078
11242POPC   C4A29420  15.969  13.636  23.251
11242POPC   C1B29421  15.545  13.425  22.832
11242POPC   C2B29422  15.631  13.479  23.004
11242POPC   C3B29423  15.717  13.532  23.177
11242POPC   C4B29424  15.802  13.586  23.349
11243POPC   NC329425  13.887  -1.771  16.075
11243POPC   PO429426  13.946  -1.942  16.161
11243POPC   GL129427  14.005  -2.113  16.247
11243POPC   GL229428  14.100  -2.092  16.224
11243POPC   C1A29429  14.064  -2.283  16.334
11243POPC   D2A29430  14.123  -2.454  16.420
11243POPC   C3A29431  14.182  -2.624  16.507
11243POPC   C4A29432  14.241  -2.795  16.593
11243POPC   C1B29433  14.042  -2.379  16.160
11243POPC   C2B29434  14.101  -2.550  16.246
11243POPC   C3B29435  14.160  -2.720  16.332
11243POPC   C4B29436  14.219  -2.891  16.419
11244POPC   NC329437  16.295  12.945  21.833
11244POPC   PO429438  16.404  12.993  21.994
11244POPC   GL129439  16.513  13.041  22.155
11244POPC   GL229440  16.507  13.138  22.130
11244POPC   C1A29441  16.621  13.089  22.316
11244POPC   D2A29442  16.730  13.136  22.477
11244POPC   C3A29443  16.838  13.184  22.638
11244POPC   C4A29444  16.947  13.232  22.799
11244POPC   C1B29445  16.789  13.072  22.208
11244POPC   C2B29446  16.897  13.119  22.369
11244POPC   C3B29447  17.006  13.167  22.530
11244POPC   C4B29448  17.114  13.215  22.691
11245POPC   NC329449   5.641  23.226  10.154
11245POPC   PO429450   5.578  23.416  10.159
11245POPC   GL129451   5.515  23.606  10.164
11245POPC   GL229452   5.544  23.613  10.259
11245POPC   C1A29453   5.452  23.796  10.169
11245POPC   D2A29454   5.388  23.985  10.173
11245POPC   C3A29455   5.325  24.175  10.178
11245POPC   C4A29456   5.262  24.365  10.183
11245POPC   C1B29457   5.271  23.734  10.230
11245POPC   C2B29458   5.208  23.924  10.234
11245POPC   C3B29459   5.145  24.114  10.239
11245POPC   C4B29460   5.082  24.303  10.244
11246POPC   NC329461   2.380  18.077  18.347
11246POPC   PO429462   2.270  18.188  18.472
11246POPC   GL129463   2.160  18.299  18.597
11246POPC   GL229464   2.223  18.277  18.672
11246POPC   C1A29465   2.050  18.410  18.722
11246POPC   D2A29466   1.941  18.522  18.846
11246POPC   C3A29467   1.831  18.633  18.971
11246POPC   C4A29468   1.721  18.744  19.096
11246POPC   C1B29469   1.940  18.250  18.768
11246POPC   C2B29470   1.830  18.361  18.892
11246POPC   C3B29471   1.721  18.472  19.017
11246POPC   C4B29472   1.611  18.584  19.142
11247POPC   NC329473   6.159  18.255  -0.615
11247POPC   PO429474   6.111  18.377  -0.766
11247POPC   GL129475   6.063  18.499  -0.917
11247POPC   GL229476   6.148  18.475  -0.964
11247POPC   C1A29477   6.015  18.621  -1.068
11247POPC   D2A29478   5.967  18.744  -1.218
11247POPC   C3A29479   5.919  18.866  -1.369
11247POPC   C4A29480   5.871  18.988  -1.520
11247POPC   C1B29481   6.109  18.772  -0.976
11247POPC   C2B29482   6.061  18.894  -1.126
11247POPC   C3B29483   6.013  19.016  -1.277
11247POPC   C4B29484   5.965  19.139  -1.428
11248POPC   NC329485   5.385  -2.601  13.658
11248POPC   PO429486   5.319  -2.783  13.710
11248POPC   GL129487   5.253  -2.965  13.762
11248POPC   GL229488   5.347  -2.993  13.780
11248POPC   C1A29489   5.188  -3.146  13.814
11248POPC   D2A29490   5.122  -3.328  13.866
11248POPC   C3A29491   5.057  -3.509  13.918
11248POPC   C4A29492   4.991  -3.691  13.970
11248POPC   C1B29493   5.206  -3.207  13.624
11248POPC   C2B29494   5.140  -3.389  13.676
11248POPC   C3B29495   5.075  -3.570  13.728
11248POPC   C4B29496   5.009  -3.752  13.780
11249POPC   NC329497  13.709  21.719   3.703
11249POPC   PO429498  13.761  21.893   3.620
11249POPC   GL129499  13.813  22.067   3.537
11249POPC   GL229500  13.909  22.047   3.554
11249POPC   C1A29501  13.865  22.241   3.453
11249POPC   D2A29502  13.917  22.416   3.370
11249POPC   C3A29503  13.969  22.590   3.286
11249POPC   C4A29504  14.021  22.764   3.203
11249POPC   C1B29505  13.852  22.331   3.632
11249POPC   C2B29506  13.904  22.505   3.548
11249POPC   C3B29507  13.956  22.679   3.465
11249POPC   C4B29508  14.008  22.854   3.381
11250POPC   NC329509  14.232  -2.436   5.747
11250POPC   PO429510  14.300  -2.614   5.687
11250POPC   GL129511  14.368  -2.792   5.627
11250POPC   GL229512  14.456  -2.773   5.671
11250POPC   C1A29513  14.437  -2.970   5.567
11250POPC   D2A29514  14.505  -3.148   5.506
11250POPC   C3A29515  14.574  -3.326   5.446
11250POPC   C4A29516  14.642  -3.504   5.386
11250POPC   C1B29517  14.504  -2.887   5.398
11250POPC   C2B29518  14.572  -3.065   5.337
11250POPC   C3B29519  14.641  -3.243   5.277
11250POPC   C4B29520  14.709  -3.421   5.217
11251POPC   NC329521  -3.453  13.475   8.459
11251POPC   PO429522  -3.645  13.523   8.429
11251POPC   GL129523  -3.837  13.571   8.399
11251POPC   GL229524  -3.843  13.606   8.493
11251POPC   C1A29525  -4.029  13.619   8.369
11251POPC   D2A29526  -4.220  13.666   8.340
11251POPC   C3A29527  -4.412  13.714   8.310
11251POPC   C4A29528  -4.604  13.762   8.280
11251POPC   C1B29529  -4.084  13.438   8.435
11251POPC   C2B29530  -4.276  13.486   8.405
11251POPC   C3B29531  -4.467  13.533   8.375
11251POPC   C4B29532  -4.659  13.581   8.345
11252POPC   NC329533   9.656  -2.625  15.740
11252POPC   PO429534   9.649  -2.807  15.823
11252POPC   GL129535   9.642  -2.989  15.906
11252POPC   GL229536   9.742  -2.996  15.899
11252POPC   C1A29537   9.636  -3.171  15.989
11252POPC   D2A29538   9.629  -3.352  16.073
11252POPC   C3A29539   9.623  -3.534  16.156
11252POPC   C4A29540   9.616  -3.716  16.239
11252POPC   C1B29541   9.617  -3.253  15.808
11252POPC   C2B29542   9.610  -3.435  15.891
11252POPC   C3B29543   9.604  -3.617  15.975
11252POPC   C4B29544   9.597  -3.798  16.058
11253POPC   NC329545  10.038  18.629  20.769
11253POPC   PO429546  10.039  18.755  20.924
11253POPC   GL129547  10.040  18.881  21.079
11253POPC   GL229548  10.089  18.949  21.024
11253POPC   C1A29549  10.041  19.007  21.235
11253POPC   D2A29550  10.042  19.133  21.390
11253POPC   C3A29551  10.043  19.259  21.546
11253POPC   C4A29552  10.044  19.385  21.701
11253POPC   C1B29553  10.216  18.931  21.295
11253POPC   C2B29554  10.217  19.057  21.451
11253POPC   C3B29555  10.218  19.183  21.606
11253POPC   C4B29556  10.219  19.309  21.761
11254POPC   NC329557  21.565  17.314  10.999
11254POPC   PO429558  21.734  17.420  11.014
11254POPC   GL129559  21.903  17.526  11.029
11254POPC   GL229560  21.949  17.447  11.068
11254POPC   C1A29561  22.072  17.633  11.044
11254POPC   D2A29562  22.240  17.739  11.059
11254POPC   C3A29563  22.409  17.846  11.074
11254POPC   C4A29564  22.578  17.952  11.089
11254POPC   C1B29565  22.018  17.691  11.228
11254POPC   C2B29566  22.187  17.798  11.243
11254POPC   C3B29567  22.356  17.904  11.258
11254POPC   C4B29568  22.525  18.010  11.273
11255POPC   NC329569   8.503  13.858  -3.318
11255POPC   PO429570   8.487  13.914  -3.509
11255POPC   GL129571   8.471  13.970  -3.700
11255POPC   GL229572   8.459  14.065  -3.671
11255POPC   C1A29573   8.455  14.026  -3.891
11255POPC   D2A29574   8.438  14.083  -4.083
11255POPC   C3A29575   8.422  14.139  -4.274
11255POPC   C4A29576   8.406  14.195  -4.465
11255POPC   C1B29577   8.257  13.999  -3.883
11255POPC   C2B29578   8.240  14.055  -4.074
11255POPC   C3B29579   8.224  14.112  -4.265
11255POPC   C4B29580   8.208  14.168  -4.456
11256POPC   NC329581   8.013  23.180   5.987
11256POPC   PO429582   7.987  23.371   5.932
11256POPC   GL129583   7.961  23.562   5.877
11256POPC   GL229584   8.037  23.553   5.812
11256POPC   C1A29585   7.936  23.752   5.823
11256POPC   D2A29586   7.910  23.943   5.768
11256POPC   C3A29587   7.885  24.133   5.714
11256POPC   C4A29588   7.859  24.324   5.659
11256POPC   C1B29589   8.065  23.810   5.964
11256POPC   C2B29590   8.040  24.001   5.909
11256POPC   C3B29591   8.014  24.191   5.855
11256POPC   C4B29592   7.989  24.382   5.800
11257POPC   NC329593   7.400   0.051   0.613
11257POPC   PO429594   7.363  -0.093   0.479
11257POPC   GL129595   7.326  -0.237   0.345
11257POPC   GL229596   7.393  -0.195   0.283
11257POPC   C1A29597   7.289  -0.380   0.211
11257POPC   D2A29598   7.253  -0.524   0.076
11257POPC   C3A29599   7.216  -0.667  -0.058
11257POPC   C4A29600   7.179  -0.811  -0.192
11257POPC   C1B29601   7.145  -0.268   0.130
11257POPC   C2B29602   7.108  -0.411  -0.004
11257POPC   C3B29603   7.071  -0.555  -0.138
11257POPC   C4B29604   7.035  -0.699  -0.273
11258POPC   NC329605   7.187  18.005  20.886
11258POPC   PO429606   7.146  18.128  21.038
11258POPC   GL129607   7.105  18.251  21.190
11258POPC   GL229608   7.190  18.300  21.173
11258POPC   C1A29609   7.064  18.374  21.343
11258POPC   D2A29610   7.023  18.496  21.495
11258POPC   C3A29611   6.982  18.619  21.648
11258POPC   C4A29612   6.941  18.742  21.800
11258POPC   C1B29613   7.161  18.251  21.468
11258POPC   C2B29614   7.120  18.374  21.620
11258POPC   C3B29615   7.079  18.496  21.772
11258POPC   C4B29616   7.038  18.619  21.925
11259POPC   NC329617   9.863  22.753  15.396
11259POPC   PO429618   9.862  22.936  15.476
11259POPC   GL129619   9.861  23.119  15.556
11259POPC   GL229620   9.879  23.080  15.646
11259POPC   C1A29621   9.860  23.303  15.635
11259POPC   D2A29622   9.860  23.486  15.715
11259POPC   C3A29623   9.859  23.670  15.794
11259POPC   C4A29624   9.858  23.853  15.874
11259POPC   C1B29625   9.664  23.288  15.668
11259POPC   C2B29626   9.663  23.471  15.747
11259POPC   C3B29627   9.662  23.655  15.827
11259POPC   C4B29628   9.661  23.838  15.907
11260POPC   NC329629   3.329  -1.138  15.074
11260POPC   PO429630   3.237  -1.299  15.149
11260POPC   GL129631   3.145  -1.460  15.224
11260POPC   GL229632   3.229  -1.486  15.272
11260POPC   C1A29633   3.052  -1.621  15.299
11260POPC   D2A29634   2.960  -1.781  15.374
11260POPC   C3A29635   2.867  -1.942  15.449
11260POPC   C4A29636   2.775  -2.103  15.524
11260POPC   C1B29637   3.110  -1.728  15.140
11260POPC   C2B29638   3.017  -1.889  15.215
11260POPC   C3B29639   2.925  -2.049  15.290
11260POPC   C4B29640   2.832  -2.210  15.365
11261POPC   NC329641  23.353  10.454   6.976
11261POPC   PO429642  23.549  10.456   6.936
11261POPC   GL129643  23.745  10.458   6.896
11261POPC   GL229644  23.742  10.359   6.879
11261POPC   C1A29645  23.941  10.460   6.855
11261POPC   D2A29646  24.136  10.461   6.815
11261POPC   C3A29647  24.332  10.463   6.774
11261POPC   C4A29648  24.528  10.465   6.734
11261POPC   C1B29649  23.981  10.425   7.048
11261POPC   C2B29650  24.176  10.427   7.008
11261POPC   C3B29651  24.372  10.429   6.967
11261POPC   C4B29652  24.568  10.431   6.927
11262POPC   NC329653   8.191  22.339  16.017
11262POPC   PO429654   8.165  22.518  16.103
11262POPC   GL129655   8.139  22.697  16.189
11262POPC   GL229656   8.198  22.668  16.265
11262POPC   C1A29657   8.113  22.875  16.275
11262POPC   D2A29658   8.088  23.054  16.362
11262POPC   C3A29659   8.062  23.232  16.448
11262POPC   C4A29660   8.036  23.411  16.534
11262POPC   C1B29661   7.953  22.805  16.372
11262POPC   C2B29662   7.927  22.984  16.459
11262POPC   C3B29663   7.902  23.162  16.545
11262POPC   C4B29664   7.876  23.341  16.631
11263POPC   NC329665   9.325  16.470  -2.310
11263POPC   PO429666   9.321  16.562  -2.488
11263POPC   GL129667   9.317  16.654  -2.666
11263POPC   GL229668   9.413  16.682  -2.653
11263POPC   C1A29669   9.314  16.745  -2.844
11263POPC   D2A29670   9.310  16.837  -3.021
11263POPC   C3A29671   9.307  16.928  -3.199
11263POPC   C4A29672   9.303  17.020  -3.377
11263POPC   C1B29673   9.252  16.914  -2.756
11263POPC   C2B29674   9.248  17.005  -2.933
11263POPC   C3B29675   9.245  17.097  -3.111
11263POPC   C4B29676   9.241  17.189  -3.289
11264POPC   NC329677  10.145  20.313   0.755
11264POPC   PO429678  10.145  20.461   0.621
11264POPC   GL129679  10.145  20.609   0.487
11264POPC   GL229680  10.234  20.640   0.521
11264POPC   C1A29681  10.146  20.757   0.353
11264POPC   D2A29682  10.146  20.906   0.218
11264POPC   C3A29683  10.147  21.054   0.084
11264POPC   C4A29684  10.147  21.202  -0.050
11264POPC   C1B29685  10.055  20.877   0.485
11264POPC   C2B29686  10.055  21.025   0.350
11264POPC   C3B29687  10.056  21.174   0.216
11264POPC   C4B29688  10.056  21.322   0.082
11265POPC   NC329689   0.493  13.277  19.546
11265POPC   PO429690   0.364  13.327  19.691
11265POPC   GL129691   0.235  13.377  19.836
11265POPC   GL229692   0.297  13.338  19.904
11265POPC   C1A29693   0.107  13.427  19.981
11265POPC   D2A29694  -0.022  13.476  20.125
11265POPC   C3A29695  -0.150  13.526  20.270
11265POPC   C4A29696  -0.279  13.576  20.415
11265POPC   C1B29697   0.016  13.249  19.961
11265POPC   C2B29698  -0.112  13.299  20.106
11265POPC   C3B29699  -0.241  13.349  20.251
11265POPC   C4B29700  -0.369  13.399  20.396
11266POPC   NC329701   7.454   0.701  19.981
11266POPC   PO429702   7.420   0.564  20.123
11266POPC   GL129703   7.386   0.427  20.265
11266POPC   GL229704   7.477   0.387  20.248
11266POPC   C1A29705   7.353   0.290  20.407
11266POPC   D2A29706   7.319   0.154  20.549
11266POPC   C3A29707   7.286   0.017  20.691
11266POPC   C4A29708   7.252  -0.120  20.833
11266POPC   C1B29709   7.273   0.168  20.270
11266POPC   C2B29710   7.240   0.031  20.412
11266POPC   C3B29711   7.206  -0.106  20.554
11266POPC   C4B29712   7.172  -0.242  20.696
11267POPC   NC329713  18.777  19.761   5.769
11267POPC   PO429714  18.911  19.892   5.700
11267POPC   GL129715  19.045  20.023   5.631
11267POPC   GL229716  19.113  19.949   5.622
11267POPC   C1A29717  19.180  20.154   5.561
11267POPC   D2A29718  19.314  20.285   5.492
11267POPC   C3A29719  19.449  20.416   5.422
11267POPC   C4A29720  19.583  20.547   5.353
11267POPC   C1B29721  19.242  20.190   5.748
11267POPC   C2B29722  19.376  20.321   5.679
11267POPC   C3B29723  19.511  20.452   5.609
11267POPC   C4B29724  19.645  20.583   5.540
11268POPC   NC329725   7.373  23.376  12.681
11268POPC   PO429726   7.337  23.568  12.723
11268POPC   GL129727   7.301  23.760  12.765
11268POPC   GL229728   7.369  23.757  12.838
11268POPC   C1A29729   7.265  23.952  12.807
11268POPC   D2A29730   7.228  24.145  12.849
11268POPC   C3A29731   7.192  24.337  12.891
11268POPC   C4A29732   7.156  24.529  12.933
11268POPC   C1B29733   7.123  23.897  12.937
11268POPC   C2B29734   7.086  24.089  12.979
11268POPC   C3B29735   7.050  24.282  13.021
11268POPC   C4B29736   7.014  24.474  13.063
11269POPC   NC329737  22.482  13.728   5.467
11269POPC   PO429738  22.663  13.783   5.402
11269POPC   GL129739  22.844  13.838   5.337
11269POPC   GL229740  22.802  13.890   5.263
11269POPC   C1A29741  23.025  13.894   5.272
11269POPC   D2A29742  23.206  13.949   5.208
11269POPC   C3A29743  23.387  14.005   5.143
11269POPC   C4A29744  23.568  14.060   5.078
11269POPC   C1B29745  23.033  13.731   5.156
11269POPC   C2B29746  23.214  13.787   5.091
11269POPC   C3B29747  23.395  13.842   5.027
11269POPC   C4B29748  23.576  13.897   4.962
11270POPC   NC329749  20.208   0.927   8.271
11270POPC   PO429750  20.359   0.798   8.246
11270POPC   GL129751  20.510   0.669   8.221
11270POPC   GL229752  20.479   0.651   8.128
11270POPC   C1A29753  20.661   0.540   8.196
11270POPC   D2A29754  20.811   0.410   8.172
11270POPC   C3A29755  20.962   0.281   8.147
11270POPC   C4A29756  21.113   0.152   8.122
11270POPC   C1B29757  20.544   0.391   8.263
11270POPC   C2B29758  20.695   0.262   8.238
11270POPC   C3B29759  20.846   0.133   8.214
11270POPC   C4B29760  20.997   0.004   8.189
11271POPC   NC329761  -1.131   4.754   3.122
11271POPC   PO429762  -1.288   4.680   3.022
11271POPC   GL129763  -1.445   4.606   2.922
11271POPC   GL229764  -1.399   4.518   2.915
11271POPC   C1A29765  -1.602   4.532   2.822
11271POPC   D2A29766  -1.758   4.458   2.723
11271POPC   C3A29767  -1.915   4.384   2.623
11271POPC   C4A29768  -2.072   4.310   2.523
11271POPC   C1B29769  -1.519   4.589   2.650
11271POPC   C2B29770  -1.675   4.515   2.550
11271POPC   C3B29771  -1.832   4.441   2.450
11271POPC   C4B29772  -1.989   4.367   2.350
11272POPC   NC329773  -0.683  18.984  10.388
11272POPC   PO429774  -0.834  19.115  10.397
11272POPC   GL129775  -0.985  19.246  10.406
11272POPC   GL229776  -0.943  19.289  10.486
11272POPC   C1A29777  -1.136  19.376  10.415
11272POPC   D2A29778  -1.288  19.507  10.424
11272POPC   C3A29779  -1.439  19.637  10.433
11272POPC   C4A29780  -1.590  19.768  10.442
11272POPC   C1B29781  -1.237  19.252  10.535
11272POPC   C2B29782  -1.388  19.382  10.544
11272POPC   C3B29783  -1.539  19.513  10.553
11272POPC   C4B29784  -1.690  19.644  10.562
11273POPC   NC329785  -2.291   5.053   5.361
11273POPC   PO429786  -2.467   4.977   5.304
11273POPC   GL129787  -2.643   4.901   5.247
11273POPC   GL229788  -2.690   4.970   5.301
11273POPC   C1A29789  -2.819   4.824   5.190
11273POPC   D2A29790  -2.994   4.748   5.133
11273POPC   C3A29791  -3.170   4.671   5.076
11273POPC   C4A29792  -3.346   4.595   5.019
11273POPC   C1B29793  -2.817   4.702   5.349
11273POPC   C2B29794  -2.993   4.626   5.292
11273POPC   C3B29795  -3.169   4.550   5.235
11273POPC   C4B29796  -3.345   4.473   5.178
11274POPC   NC329797  15.023  16.830  20.822
11274POPC   PO429798  15.097  16.927  20.981
11274POPC   GL129799  15.171  17.024  21.140
11274POPC   GL229800  15.189  16.936  21.184
11274POPC   C1A29801  15.245  17.120  21.299
11274POPC   D2A29802  15.318  17.217  21.457
11274POPC   C3A29803  15.392  17.313  21.616
11274POPC   C4A29804  15.466  17.410  21.775
11274POPC   C1B29805  15.062  17.124  21.381
11274POPC   C2B29806  15.136  17.220  21.540
11274POPC   C3B29807  15.210  17.317  21.699
11274POPC   C4B29808  15.284  17.414  21.858
11275POPC   NC329809  12.270  18.130  -1.001
11275POPC   PO429810  12.302  18.246  -1.161
11275POPC   GL129811  12.334  18.362  -1.321
11275POPC   GL229812  12.412  18.404  -1.275
11275POPC   C1A29813  12.365  18.479  -1.480
11275POPC   D2A29814  12.397  18.595  -1.640
11275POPC   C3A29815  12.428  18.712  -1.799
11275POPC   C4A29816  12.460  18.828  -1.959
11275POPC   C1B29817  12.245  18.619  -1.402
11275POPC   C2B29818  12.277  18.735  -1.562
11275POPC   C3B29819  12.309  18.851  -1.721
11275POPC   C4B29820  12.340  18.968  -1.881
11276POPC   NC329821  15.694  22.410   8.709
11276POPC   PO429822  15.781  22.589   8.694
11276POPC   GL129823  15.868  22.768   8.679
11276POPC   GL229824  15.942  22.728   8.624
11276POPC   C1A29825  15.955  22.948   8.663
11276POPC   D2A29826  16.043  23.127   8.648
11276POPC   C3A29827  16.130  23.307   8.632
11276POPC   C4A29828  16.217  23.486   8.617
11276POPC   C1B29829  16.059  22.912   8.830
11276POPC   C2B29830  16.146  23.091   8.815
11276POPC   C3B29831  16.234  23.270   8.799
11276POPC   C4B29832  16.321  23.450   8.784
11277POPC   NC329833  21.342   2.295  11.194
11277POPC   PO429834  21.508   2.185  11.212
11277POPC   GL129835  21.674   2.075  11.230
11277POPC   GL229836  21.720   2.152  11.275
11277POPC   C1A29837  21.840   1.965  11.248
11277POPC   D2A29838  22.006   1.855  11.267
11277POPC   C3A29839  22.172   1.745  11.285
11277POPC   C4A29840  22.338   1.635  11.303
11277POPC   C1B29841  21.903   2.031  11.070
11277POPC   C2B29842  22.069   1.921  11.089
11277POPC   C3B29843  22.235   1.811  11.107
11277POPC   C4B29844  22.401   1.701  11.125
11278POPC   NC329845  22.433   4.131   9.915
11278POPC   PO429846  22.613   4.044   9.912
11278POPC   GL129847  22.793   3.957   9.909
11278POPC   GL229848  22.830   4.037   9.860
11278POPC   C1A29849  22.973   3.871   9.906
11278POPC   D2A29850  23.154   3.784   9.902
11278POPC   C3A29851  23.334   3.698   9.899
11278POPC   C4A29852  23.514   3.611   9.896
11278POPC   C1B29853  22.929   3.785   9.730
11278POPC   C2B29854  23.109   3.698   9.727
11278POPC   C3B29855  23.289   3.612   9.724
11278POPC   C4B29856  23.470   3.525   9.721
11279POPC   NC329857   8.222   5.411  22.813
11279POPC   PO429858   8.194   5.342  22.999
11279POPC   GL129859   8.166   5.273  23.185
11279POPC   GL229860   8.200   5.184  23.157
11279POPC   C1A29861   8.138   5.204  23.370
11279POPC   D2A29862   8.110   5.136  23.556
11279POPC   C3A29863   8.082   5.067  23.741
11279POPC   C4A29864   8.054   4.998  23.927
11279POPC   C1B29865   7.952   5.149  23.321
11279POPC   C2B29866   7.924   5.080  23.507
11279POPC   C3B29867   7.896   5.011  23.693
11279POPC   C4B29868   7.868   4.942  23.878
11280POPC   NC329869  -1.516  13.321  17.178
11280POPC   PO429870  -1.681  13.365  17.282
11280POPC   GL129871  -1.846  13.409  17.386
11280POPC   GL229872  -1.796  13.482  17.434
11280POPC   C1A29873  -2.011  13.453  17.491
11280POPC   D2A29874  -2.175  13.498  17.595
11280POPC   C3A29875  -2.340  13.542  17.700
11280POPC   C4A29876  -2.505  13.586  17.804
11280POPC   C1B29877  -1.955  13.324  17.633
11280POPC   C2B29878  -2.120  13.368  17.737
11280POPC   C3B29879  -2.285  13.412  17.842
11280POPC   C4B29880  -2.450  13.457  17.946
11281POPC   NC329881   1.160  20.545  12.494
11281POPC   PO429882   1.035  20.696  12.532
11281POPC   GL129883   0.910  20.847  12.570
11281POPC   GL229884   0.982  20.913  12.548
11281POPC   C1A29885   0.784  20.998  12.607
11281POPC   D2A29886   0.659  21.150  12.645
11281POPC   C3A29887   0.533  21.301  12.682
11281POPC   C4A29888   0.408  21.452  12.720
11281POPC   C1B29889   0.842  20.998  12.799
11281POPC   C2B29890   0.716  21.150  12.836
11281POPC   C3B29891   0.591  21.301  12.874
11281POPC   C4B29892   0.465  21.452  12.912
11282POPC   NC329893  15.151  14.023  22.119
11282POPC   PO429894  15.229  14.087  22.292
11282POPC   GL129895  15.307  14.151  22.465
11282POPC   GL229896  15.319  14.242  22.426
11282POPC   C1A29897  15.385  14.214  22.638
11282POPC   D2A29898  15.463  14.278  22.810
11282POPC   C3A29899  15.541  14.341  22.983
11282POPC   C4A29900  15.619  14.405  23.156
11282POPC   C1B29901  15.567  14.163  22.574
11282POPC   C2B29902  15.645  14.226  22.747
11282POPC   C3B29903  15.723  14.290  22.920
11282POPC   C4B29904  15.801  14.353  23.093
11283POPC   NC329905   9.317  17.499  -1.703
11283POPC   PO429906   9.313  17.612  -1.868
11283POPC   GL129907   9.309  17.725  -2.033
11283POPC   GL229908   9.408  17.735  -2.029
11283POPC   C1A29909   9.305  17.838  -2.198
11283POPC   D2A29910   9.300  17.951  -2.363
11283POPC   C3A29911   9.296  18.064  -2.528
11283POPC   C4A29912   9.292  18.177  -2.693
11283POPC   C1B29913   9.284  18.002  -2.085
11283POPC   C2B29914   9.280  18.115  -2.250
11283POPC   C3B29915   9.276  18.228  -2.415
11283POPC   C4B29916   9.272  18.341  -2.580
11284POPC   NC329917  11.949  21.679  17.027
11284POPC   PO429918  11.982  21.845  17.133
11284POPC   GL129919  12.015  22.011  17.239
11284POPC   GL229920  12.113  22.001  17.224
11284POPC   C1A29921  12.047  22.178  17.345
11284POPC   D2A29922  12.080  22.344  17.452
11284POPC   C3A29923  12.112  22.511  17.558
11284POPC   C4A29924  12.145  22.677  17.664
11284POPC   C1B29925  12.061  22.069  17.512
11284POPC   C2B29926  12.094  22.235  17.619
11284POPC   C3B29927  12.126  22.401  17.725
11284POPC   C4B29928  12.159  22.568  17.831
11285POPC   NC329929   1.002  14.201  19.632
11285POPC   PO429930   0.879  14.263  19.777
11285POPC   GL129931   0.756  14.325  19.922
11285POPC   GL229932   0.834  14.335  19.984
11285POPC   C1A29933   0.633  14.388  20.067
11285POPC   D2A29934   0.510  14.450  20.211
11285POPC   C3A29935   0.387  14.513  20.356
11285POPC   C4A29936   0.264  14.575  20.501
11285POPC   C1B29937   0.608  14.199  20.127
11285POPC   C2B29938   0.485  14.261  20.271
11285POPC   C3B29939   0.362  14.323  20.416
11285POPC   C4B29940   0.239  14.386  20.561
11286POPC   NC329941  15.440  -0.739  16.775
11286POPC   PO429942  15.517  -0.894  16.875
11286POPC   GL129943  15.594  -1.049  16.975
11286POPC   GL229944  15.650  -1.073  16.895
11286POPC   C1A29945  15.671  -1.205  17.075
11286POPC   D2A29946  15.747  -1.360  17.174
11286POPC   C3A29947  15.824  -1.516  17.274
11286POPC   C4A29948  15.901  -1.671  17.374
11286POPC   C1B29949  15.524  -1.322  17.005
11286POPC   C2B29950  15.601  -1.477  17.105
11286POPC   C3B29951  15.678  -1.633  17.205
11286POPC   C4B29952  15.754  -1.788  17.305
11287POPC   NC329953  19.896  15.229   1.882
11287POPC   PO429954  20.043  15.304   1.769
11287POPC   GL129955  20.190  15.379   1.656
11287POPC   GL229956  20.126  15.443   1.614
11287POPC   C1A29957  20.337  15.454   1.543
11287POPC   D2A29958  20.485  15.529   1.431
11287POPC   C3A29959  20.632  15.604   1.318
11287POPC   C4A29960  20.779  15.679   1.205
11287POPC   C1B29961  20.297  15.319   1.401
11287POPC   C2B29962  20.444  15.394   1.288
11287POPC   C3B29963  20.591  15.469   1.175
11287POPC   C4B29964  20.738  15.544   1.063
11288POPC   NC329965  21.370   6.765  16.822
11288POPC   PO429966  21.535   6.721  16.927
11288POPC   GL129967  21.700   6.677  17.032
11288POPC   GL229968  21.713   6.594  16.977
11288POPC   C1A29969  21.865   6.633  17.136
11288POPC   D2A29970  22.029   6.589  17.241
11288POPC   C3A29971  22.194   6.545  17.345
11288POPC   C4A29972  22.359   6.501  17.450
11288POPC   C1B29973  21.754   6.529  17.267
11288POPC   C2B29974  21.919   6.485  17.371
11288POPC   C3B29975  22.084   6.441  17.476
11288POPC   C4B29976  22.249   6.397  17.580
11289POPC   NC329977  21.541  15.045   4.379
11289POPC   PO429978  21.709  15.118   4.299
11289POPC   GL129979  21.877  15.191   4.219
11289POPC   GL229980  21.823  15.249   4.157
11289POPC   C1A29981  22.045  15.265   4.139
11289POPC   D2A29982  22.213  15.338   4.059
11289POPC   C3A29983  22.381  15.412   3.979
11289POPC   C4A29984  22.549  15.485   3.899
11289POPC   C1B29985  22.045  15.118   4.003
11289POPC   C2B29986  22.213  15.191   3.923
11289POPC   C3B29987  22.381  15.265   3.843
11289POPC   C4B29988  22.549  15.338   3.763
11290POPC   NC329989   3.770  19.560   1.993
11290POPC   PO429990   3.683  19.703   1.884
11290POPC   GL129991   3.596  19.846   1.775
11290POPC   GL229992   3.616  19.913   1.847
11290POPC   C1A29993   3.508  19.989   1.667
11290POPC   D2A29994   3.421  20.133   1.558
11290POPC   C3A29995   3.333  20.276   1.450
11290POPC   C4A29996   3.246  20.419   1.341
11290POPC   C1B29997   3.333  19.949   1.755
11290POPC   C2B29998   3.246  20.092   1.646
11290POPC   C3B29999   3.158  20.236   1.538
11290POPC   C4B30000   3.071  20.379   1.429
11291POPC   NC330001   4.459   9.727  -2.834
11291POPC   PO430002   4.380   9.724  -3.018
11291POPC   GL130003   4.301   9.721  -3.202
11291POPC   GL230004   4.258   9.633  -3.182
11291POPC   C1A30005   4.222   9.719  -3.386
11291POPC   D2A30006   4.144   9.716  -3.569
11291POPC   C3A30007   4.065   9.714  -3.753
11291POPC   C4A30008   3.986   9.711  -3.937
11291POPC   C1B30009   4.385   9.624  -3.454
11291POPC   C2B30010   4.306   9.621  -3.638
11291POPC   C3B30011   4.227   9.619  -3.821
11291POPC   C4B30012   4.148   9.616  -4.005
11292POPC   NC330013  -2.672  12.469   4.697
11292POPC   PO430014  -2.856  12.507   4.627
11292POPC   GL130015  -3.040  12.545   4.557
11292POPC   GL230016  -3.071  12.565   4.650
11292POPC   C1A30017  -3.223  12.583   4.488
11292POPC   D2A30018  -3.407  12.622   4.418
11292POPC   C3A30019  -3.590  12.660   4.349
11292POPC   C4A30020  -3.774  12.698   4.279
11292POPC   C1B30021  -3.272  12.391   4.512
11292POPC   C2B30022  -3.456  12.429   4.443
11292POPC   C3B30023  -3.640  12.467   4.373
11292POPC   C4B30024  -3.823  12.506   4.303
11293POPC   NC330025  16.020  13.310  21.899
11293POPC   PO430026  16.122  13.362  22.063
11293POPC   GL130027  16.224  13.414  22.227
11293POPC   GL230028  16.223  13.510  22.197
11293POPC   C1A30029  16.326  13.467  22.391
11293POPC   D2A30030  16.427  13.519  22.555
11293POPC   C3A30031  16.529  13.572  22.719
11293POPC   C4A30032  16.631  13.624  22.883
11293POPC   C1B30033  16.498  13.437  22.294
11293POPC   C2B30034  16.600  13.489  22.458
11293POPC   C3B30035  16.701  13.542  22.622
11293POPC   C4B30036  16.803  13.594  22.786
11294POPC   NC330037  -1.167   9.734  18.255
11294POPC   PO430038  -1.326   9.735  18.376
11294POPC   GL130039  -1.485   9.736  18.497
11294POPC   GL230040  -1.425   9.722  18.576
11294POPC   C1A30041  -1.644   9.736  18.618
11294POPC   D2A30042  -1.804   9.737  18.739
11294POPC   C3A30043  -1.963   9.737  18.860
11294POPC   C4A30044  -2.122   9.738  18.981
11294POPC   C1B30045  -1.661   9.538  18.597
11294POPC   C2B30046  -1.820   9.539  18.718
11294POPC   C3B30047  -1.979   9.539  18.839
11294POPC   C4B30048  -2.139   9.540  18.960
11295POPC   NC330049   8.853  16.119  -2.465
11295POPC   PO430050   8.841  16.205  -2.645
11295POPC   GL130051   8.829  16.291  -2.825
11295POPC   GL230052   8.869  16.209  -2.867
11295POPC   C1A30053   8.818  16.376  -3.006
11295POPC   D2A30054   8.806  16.462  -3.186
11295POPC   C3A30055   8.795  16.547  -3.367
11295POPC   C4A30056   8.783  16.633  -3.547
11295POPC   C1B30057   9.001  16.453  -2.981
11295POPC   C2B30058   8.989  16.539  -3.161
11295POPC   C3B30059   8.978  16.624  -3.342
11295POPC   C4B30060   8.966  16.710  -3.522
11296POPC   NC330061  14.553  17.971  -0.421
11296POPC   PO430062  14.620  18.080  -0.575
11296POPC   GL130063  14.687  18.189  -0.729
11296POPC   GL230064  14.704  18.105  -0.781
11296POPC   C1A30065  14.754  18.298  -0.883
11296POPC   D2A30066  14.821  18.406  -1.036
11296POPC   C3A30067  14.888  18.515  -1.190
11296POPC   C4A30068  14.955  18.624  -1.344
11296POPC   C1B30069  14.939  18.289  -0.808
11296POPC   C2B30070  15.006  18.398  -0.962
11296POPC   C3B30071  15.073  18.507  -1.115
11296POPC   C4B30072  15.140  18.616  -1.269
11297POPC   NC330073  15.072  21.758  14.992
11297POPC   PO430074  15.147  21.927  15.068
11297POPC   GL130075  15.222  22.096  15.144
11297POPC   GL230076  15.281  22.106  15.065
11297POPC   C1A30077  15.296  22.265  15.220
11297POPC   D2A30078  15.371  22.435  15.297
11297POPC   C3A30079  15.445  22.604  15.373
11297POPC   C4A30080  15.520  22.773  15.449
11297POPC   C1B30081  15.438  22.161  15.314
11297POPC   C2B30082  15.513  22.330  15.390
11297POPC   C3B30083  15.588  22.499  15.467
11297POPC   C4B30084  15.662  22.668  15.543
11298POPC   NC330085   5.295  22.817  12.474
11298POPC   PO430086   5.227  23.001  12.513
11298POPC   GL130087   5.159  23.185  12.552
11298POPC   GL230088   5.230  23.224  12.493
11298POPC   C1A30089   5.091  23.369  12.591
11298POPC   D2A30090   5.023  23.553  12.631
11298POPC   C3A30091   4.955  23.737  12.670
11298POPC   C4A30092   4.887  23.921  12.709
11298POPC   C1B30093   5.214  23.381  12.748
11298POPC   C2B30094   5.146  23.565  12.787
11298POPC   C3B30095   5.078  23.749  12.827
11298POPC   C4B30096   5.010  23.933  12.866
11299POPC   NC330097   0.775  11.030  -0.386
11299POPC   PO430098   0.646  11.044  -0.538
11299POPC   GL130099   0.517  11.058  -0.690
11299POPC   GL230100   0.473  11.136  -0.646
11299POPC   C1A30101   0.388  11.072  -0.843
11299POPC   D2A30102   0.260  11.087  -0.995
11299POPC   C3A30103   0.131  11.101  -1.148
11299POPC   C4A30104   0.002  11.115  -1.300
11299POPC   C1B30105   0.263  10.948  -0.748
11299POPC   C2B30106   0.134  10.963  -0.901
11299POPC   C3B30107   0.005  10.977  -1.053
11299POPC   C4B30108  -0.123  10.991  -1.206
11300POPC   NC330109  23.396  12.836  10.501
11300POPC   PO430110  23.593  12.871  10.513
11300POPC   GL130111  23.790  12.906  10.525
11300POPC   GL230112  23.791  12.933  10.428
11300POPC   C1A30113  23.986  12.941  10.536
11300POPC   D2A30114  24.183  12.977  10.548
11300POPC   C3A30115  24.379  13.012  10.559
11300POPC   C4A30116  24.576  13.047  10.571
11300POPC   C1B30117  24.023  12.752  10.484
11300POPC   C2B30118  24.220  12.787  10.496
11300POPC   C3B30119  24.416  12.822  10.508
11300POPC   C4B30120  24.613  12.857  10.519
11301POPC   NC330121   4.112  22.585  10.447
11301POPC   PO430122   4.025  22.765  10.453
11301POPC   GL130123   3.938  22.945  10.459
11301POPC   GL230124   4.006  22.980  10.395
11301POPC   C1A30125   3.851  23.125  10.465
11301POPC   D2A30126   3.764  23.305  10.471
11301POPC   C3A30127   3.677  23.485  10.477
11301POPC   C4A30128   3.590  23.665  10.483
11301POPC   C1B30129   3.969  23.177  10.618
11301POPC   C2B30130   3.882  23.357  10.624
11301POPC   C3B30131   3.795  23.537  10.630
11301POPC   C4B30132   3.708  23.717  10.636
11302POPC   NC330133  22.192  16.239   9.848
11302POPC   PO430134  22.371  16.327   9.842
11302POPC   GL130135  22.550  16.415   9.836
11302POPC   GL230136  22.593  16.330   9.865
11302POPC   C1A30137  22.730  16.504   9.829
11302POPC   D2A30138  22.909  16.592   9.823
11302POPC   C3A30139  23.089  16.681   9.816
11302POPC   C4A30140  23.268  16.769   9.810
11302POPC   C1B30141  22.709  16.560  10.020
11302POPC   C2B30142  22.888  16.648  10.014
11302POPC   C3B30143  23.068  16.736  10.007
11302POPC   C4B30144  23.247  16.825  10.001
11303POPC   NC330145  22.314  14.991  13.419
11303POPC   PO430146  22.495  15.058  13.471
11303POPC   GL130147  22.676  15.125  13.523
11303POPC   GL230148  22.712  15.098  13.434
11303POPC   C1A30149  22.857  15.192  13.575
11303POPC   D2A30150  23.039  15.258  13.628
11303POPC   C3A30151  23.220  15.325  13.680
11303POPC   C4A30152  23.401  15.392  13.732
11303POPC   C1B30153  22.903  15.011  13.648
11303POPC   C2B30154  23.084  15.078  13.700
11303POPC   C3B30155  23.266  15.144  13.752
11303POPC   C4B30156  23.447  15.211  13.804
11304POPC   NC330157  15.284  -0.560  17.153
11304POPC   PO430158  15.359  -0.711  17.260
11304POPC   GL130159  15.434  -0.862  17.367
11304POPC   GL230160  15.488  -0.891  17.289
11304POPC   C1A30161  15.508  -1.014  17.475
11304POPC   D2A30162  15.583  -1.165  17.582
11304POPC   C3A30163  15.657  -1.317  17.690
11304POPC   C4A30164  15.732  -1.468  17.797
11304POPC   C1B30165  15.359  -1.131  17.413
11304POPC   C2B30166  15.433  -1.283  17.520
11304POPC   C3B30167  15.508  -1.434  17.628
11304POPC   C4B30168  15.582  -1.585  17.735
11305POPC   NC330169  11.280   8.548  -3.807
11305POPC   PO430170  11.294   8.525  -4.005
11305POPC   GL130171  11.308   8.502  -4.203
11305POPC   GL230172  11.299   8.601  -4.215
11305POPC   C1A30173  11.322   8.479  -4.401
11305POPC   D2A30174  11.336   8.456  -4.600
11305POPC   C3A30175  11.350   8.433  -4.798
11305POPC   C4A30176  11.364   8.410  -4.996
11305POPC   C1B30177  11.123   8.460  -4.413
11305POPC   C2B30178  11.137   8.437  -4.611
11305POPC   C3B30179  11.151   8.414  -4.810
11305POPC   C4B30180  11.165   8.391  -5.008
11306POPC   NC330181  16.572  -0.534  16.028
11306POPC   PO430182  16.671  -0.684  16.114
11306POPC   GL130183  16.770  -0.834  16.200
11306POPC   GL230184  16.855  -0.781  16.197
11306POPC   C1A30185  16.870  -0.985  16.287
11306POPC   D2A30186  16.969  -1.135  16.373
11306POPC   C3A30187  17.069  -1.286  16.460
11306POPC   C4A30188  17.168  -1.436  16.546
11306POPC   C1B30189  16.911  -1.061  16.107
11306POPC   C2B30190  17.010  -1.211  16.193
11306POPC   C3B30191  17.110  -1.362  16.279
11306POPC   C4B30192  17.209  -1.512  16.366
11307POPC   NC330193   4.976  13.093  22.504
11307POPC   PO430194   4.909  13.127  22.690
11307POPC   GL130195   4.842  13.161  22.876
11307POPC   GL230196   4.901  13.242  22.882
11307POPC   C1A30197   4.776  13.195  23.061
11307POPC   D2A30198   4.709  13.229  23.247
11307POPC   C3A30199   4.643  13.263  23.432
11307POPC   C4A30200   4.576  13.297  23.618
11307POPC   C1B30201   4.924  13.083  23.135
11307POPC   C2B30202   4.857  13.117  23.321
11307POPC   C3B30203   4.791  13.151  23.506
11307POPC   C4B30204   4.724  13.185  23.692
11308POPC   NC330205   7.928   2.468  21.403
11308POPC   PO430206   7.903   2.367  21.574
11308POPC   GL130207   7.878   2.266  21.745
11308POPC   GL230208   7.923   2.340  21.795
11308POPC   C1A30209   7.852   2.165  21.916
11308POPC   D2A30210   7.827   2.065  22.086
11308POPC   C3A30211   7.801   1.964  22.257
11308POPC   C4A30212   7.776   1.863  22.428
11308POPC   C1B30213   8.029   2.075  21.888
11308POPC   C2B30214   8.003   1.974  22.059
11308POPC   C3B30215   7.978   1.873  22.230
11308POPC   C4B30216   7.952   1.773  22.401
11309POPC   NC330217  10.255  23.763  11.095
11309POPC   PO430218  10.261  23.962  11.111
11309POPC   GL130219  10.267  24.161  11.127
11309POPC   GL230220  10.362  24.161  11.097
11309POPC   C1A30221  10.273  24.360  11.143
11309POPC   D2A30222  10.278  24.560  11.158
11309POPC   C3A30223  10.284  24.759  11.174
11309POPC   C4A30224  10.290  24.958  11.190
11309POPC   C1B30225  10.332  24.344  11.333
11309POPC   C2B30226  10.338  24.543  11.349
11309POPC   C3B30227  10.344  24.742  11.364
11309POPC   C4B30228  10.350  24.941  11.380
11310POPC   NC330229  10.028   1.054  -0.671
11310POPC   PO430230  10.035   0.926  -0.825
11310POPC   GL130231  10.042   0.798  -0.979
11310POPC   GL230232  10.134   0.771  -0.952
11310POPC   C1A30233  10.049   0.670  -1.133
11310POPC   D2A30234  10.056   0.543  -1.286
11310POPC   C3A30235  10.063   0.415  -1.440
11310POPC   C4A30236  10.070   0.287  -1.594
11310POPC   C1B30237  10.125   0.814  -1.249
11310POPC   C2B30238  10.132   0.687  -1.402
11310POPC   C3B30239  10.139   0.559  -1.556
11310POPC   C4B30240  10.146   0.431  -1.710
11311POPC   NC330241  15.363  13.138  22.310
11311POPC   PO430242  15.445  13.187  22.486
11311POPC   GL130243  15.527  13.236  22.662
11311POPC   GL230244  15.558  13.142  22.674
11311POPC   C1A30245  15.610  13.285  22.837
11311POPC   D2A30246  15.692  13.335  23.013
11311POPC   C3A30247  15.775  13.384  23.188
11311POPC   C4A30248  15.857  13.433  23.364
11311POPC   C1B30249  15.438  13.242  22.930
11311POPC   C2B30250  15.520  13.291  23.106
11311POPC   C3B30251  15.603  13.340  23.281
11311POPC   C4B30252  15.685  13.389  23.457
11312POPC   NC330253  19.326  17.671  16.465
11312POPC   PO430254  19.461  17.791  16.551
11312POPC   GL130255  19.596  17.911  16.637
11312POPC   GL230256  19.670  17.861  16.592
11312POPC   C1A30257  19.731  18.032  16.722
11312POPC   D2A30258  19.865  18.152  16.808
11312POPC   C3A30259  20.000  18.273  16.893
11312POPC   C4A30260  20.135  18.393  16.979
11312POPC   C1B30261  19.741  17.908  16.879
11312POPC   C2B30262  19.876  18.029  16.965
11312POPC   C3B30263  20.011  18.149  17.050
11312POPC   C4B30264  20.146  18.269  17.136
11313POPC   NC330265   1.340  18.424  16.896
11313POPC   PO430266   1.214  18.543  16.996
11313POPC   GL130267   1.088  18.662  17.096
11313POPC   GL230268   1.164  18.725  17.115
11313POPC   C1A30269   0.963  18.781  17.196
11313POPC   D2A30270   0.837  18.901  17.295
11313POPC   C3A30271   0.712  19.020  17.395
11313POPC   C4A30272   0.586  19.139  17.495
11313POPC   C1B30273   1.003  18.683  17.365
11313POPC   C2B30274   0.878  18.802  17.464
11313POPC   C3B30275   0.752  18.921  17.564
11313POPC   C4B30276   0.626  19.040  17.664
11314POPC   NC330277   6.670   6.433  22.874
11314POPC   PO430278   6.629   6.374  23.061
11314POPC   GL130279   6.588   6.315  23.248
11314POPC   GL230280   6.678   6.348  23.278
11314POPC   C1A30281   6.547   6.257  23.435
11314POPC   D2A30282   6.505   6.198  23.621
11314POPC   C3A30283   6.464   6.140  23.808
11314POPC   C4A30284   6.423   6.081  23.995
11314POPC   C1B30285   6.625   6.077  23.395
11314POPC   C2B30286   6.584   6.018  23.582
11314POPC   C3B30287   6.542   5.960  23.769
11314POPC   C4B30288   6.501   5.901  23.956
11315POPC   NC330289  18.998   4.810   0.988
11315POPC   PO430290  19.128   4.730   0.859
11315POPC   GL130291  19.258   4.650   0.730
11315POPC   GL230292  19.325   4.720   0.754
11315POPC   C1A30293  19.388   4.571   0.600
11315POPC   D2A30294  19.519   4.491   0.471
11315POPC   C3A30295  19.649   4.412   0.341
11315POPC   C4A30296  19.779   4.332   0.212
11315POPC   C1B30297  19.318   4.690   0.456
11315POPC   C2B30298  19.448   4.610   0.327
11315POPC   C3B30299  19.578   4.531   0.197
11315POPC   C4B30300  19.708   4.451   0.068
11316POPC   NC330301  22.547  14.879  12.655
11316POPC   PO430302  22.731  14.947  12.694
11316POPC   GL130303  22.915  15.015  12.733
11316POPC   GL230304  22.946  14.982  12.644
11316POPC   C1A30305  23.099  15.083  12.772
11316POPC   D2A30306  23.283  15.151  12.812
11316POPC   C3A30307  23.467  15.219  12.851
11316POPC   C4A30308  23.651  15.287  12.890
11316POPC   C1B30309  23.147  14.907  12.854
11316POPC   C2B30310  23.331  14.975  12.893
11316POPC   C3B30311  23.515  15.043  12.933
11316POPC   C4B30312  23.699  15.111  12.972
11317POPC   NC330313  22.877   6.627   6.617
11317POPC   PO430314  23.066   6.583   6.570
11317POPC   GL130315  23.255   6.539   6.523
11317POPC   GL230316  23.239   6.571   6.429
11317POPC   C1A30317  23.445   6.495   6.476
11317POPC   D2A30318  23.634   6.452   6.428
11317POPC   C3A30319  23.824   6.408   6.381
11317POPC   C4A30320  24.013   6.364   6.334
11317POPC   C1B30321  23.389   6.311   6.423
11317POPC   C2B30322  23.578   6.267   6.375
11317POPC   C3B30323  23.768   6.223   6.328
11317POPC   C4B30324  23.957   6.179   6.281
11318POPC   NC330325   9.655   6.304  23.257
11318POPC   PO430326   9.647   6.245  23.448
11318POPC   GL130327   9.639   6.186  23.639
11318POPC   GL230328   9.663   6.093  23.611
11318POPC   C1A30329   9.631   6.127  23.830
11318POPC   D2A30330   9.623   6.069  24.021
11318POPC   C3A30331   9.615   6.010  24.212
11318POPC   C4A30332   9.607   5.951  24.403
11318POPC   C1B30333   9.437   6.083  23.808
11318POPC   C2B30334   9.429   6.024  23.999
11318POPC   C3B30335   9.421   5.966  24.190
11318POPC   C4B30336   9.413   5.907  24.381
11319POPC   NC330337  18.445   1.398  16.594
11319POPC   PO430338  18.566   1.274  16.693
11319POPC   GL130339  18.687   1.150  16.792
11319POPC   GL230340  18.745   1.227  16.818
11319POPC   C1A30341  18.808   1.025  16.892
11319POPC   D2A30342  18.929   0.901  16.991
11319POPC   C3A30343  19.050   0.776  17.091
11319POPC   C4A30344  19.171   0.652  17.190
11319POPC   C1B30345  18.916   0.998  16.726
11319POPC   C2B30346  19.037   0.874  16.825
11319POPC   C3B30347  19.158   0.749  16.925
11319POPC   C4B30348  19.279   0.625  17.024
11320POPC   NC330349  20.051  15.706   2.448
11320POPC   PO430350  20.200  15.790   2.344
11320POPC   GL130351  20.349  15.874   2.240
11320POPC   GL230352  20.290  15.877   2.159
11320POPC   C1A30353  20.497  15.958   2.136
11320POPC   D2A30354  20.646  16.043   2.031
11320POPC   C3A30355  20.794  16.127   1.927
11320POPC   C4A30356  20.943  16.211   1.823
11320POPC   C1B30357  20.563  15.777   2.083
11320POPC   C2B30358  20.711  15.861   1.978
11320POPC   C3B30359  20.860  15.945   1.874
11320POPC   C4B30360  21.009  16.030   1.770
11321POPC   NC330361  18.932  -0.449   8.755
11321POPC   PO430362  19.064  -0.598   8.737
11321POPC   GL130363  19.196  -0.747   8.719
11321POPC   GL230364  19.249  -0.693   8.654
11321POPC   C1A30365  19.328  -0.896   8.702
11321POPC   D2A30366  19.460  -1.046   8.684
11321POPC   C3A30367  19.592  -1.195   8.667
11321POPC   C4A30368  19.724  -1.344   8.649
11321POPC   C1B30369  19.221  -0.973   8.551
11321POPC   C2B30370  19.353  -1.122   8.533
11321POPC   C3B30371  19.485  -1.271   8.516
11321POPC   C4B30372  19.617  -1.421   8.498
11322POPC   NC330373   1.572  20.236   5.958
11322POPC   PO430374   1.456  20.388   5.900
11322POPC   GL130375   1.340  20.540   5.842
11322POPC   GL230376   1.421  20.599   5.835
11322POPC   C1A30377   1.224  20.692   5.784
11322POPC   D2A30378   1.108  20.845   5.725
11322POPC   C3A30379   0.992  20.997   5.667
11322POPC   C4A30380   0.876  21.149   5.609
11322POPC   C1B30381   1.201  20.747   5.974
11322POPC   C2B30382   1.085  20.900   5.916
11322POPC   C3B30383   0.969  21.052   5.858
11322POPC   C4B30384   0.853  21.204   5.800
11323POPC   NC330385   7.208  -3.043  13.912
11323POPC   PO430386   7.171  -3.231  13.969
11323POPC   GL130387   7.134  -3.419  14.026
11323POPC   GL230388   7.232  -3.436  14.034
11323POPC   C1A30389   7.097  -3.607  14.084
11323POPC   D2A30390   7.059  -3.795  14.141
11323POPC   C3A30391   7.022  -3.983  14.199
11323POPC   C4A30392   6.985  -4.171  14.256
11323POPC   C1B30393   7.101  -3.666  13.893
11323POPC   C2B30394   7.064  -3.854  13.950
11323POPC   C3B30395   7.027  -4.042  14.008
11323POPC   C4B30396   6.989  -4.230  14.065
11324POPC   NC330397  16.599  -0.200  16.533
11324POPC   PO430398  16.698  -0.344  16.631
11324POPC   GL130399  16.797  -0.488  16.729
11324POPC   GL230400  16.884  -0.445  16.703
11324POPC   C1A30401  16.897  -0.631  16.826
11324POPC   D2A30402  16.996  -0.775  16.924
11324POPC   C3A30403  17.096  -0.918  17.021
11324POPC   C4A30404  17.195  -1.062  17.119
11324POPC   C1B30405  16.901  -0.741  16.659
11324POPC   C2B30406  17.001  -0.885  16.757
11324POPC   C3B30407  17.100  -1.029  16.855
11324POPC   C4B30408  17.199  -1.172  16.952
11325POPC   NC330409  15.363   0.880  18.796
11325POPC   PO430410  15.442   0.748  18.924
11325POPC   GL130411  15.521   0.616  19.052
11325POPC   GL230412  15.513   0.544  18.983
11325POPC   C1A30413  15.600   0.485  19.181
11325POPC   D2A30414  15.678   0.353  19.309
11325POPC   C3A30415  15.757   0.222  19.438
11325POPC   C4A30416  15.836   0.090  19.566
11325POPC   C1B30417  15.416   0.441  19.248
11325POPC   C2B30418  15.495   0.309  19.377
11325POPC   C3B30419  15.574   0.178  19.505
11325POPC   C4B30420  15.653   0.046  19.633
11326POPC   NC330421   6.955  23.421   7.876
11326POPC   PO430422   6.919  23.616   7.849
11326POPC   GL130423   6.883  23.811   7.822
11326POPC   GL230424   6.883  23.824   7.921
11326POPC   C1A30425   6.847  24.006   7.795
11326POPC   D2A30426   6.810  24.200   7.769
11326POPC   C3A30427   6.774  24.395   7.742
11326POPC   C4A30428   6.738  24.590   7.715
11326POPC   C1B30429   6.650  23.970   7.800
11326POPC   C2B30430   6.614  24.164   7.773
11326POPC   C3B30431   6.578  24.359   7.747
11326POPC   C4B30432   6.541  24.554   7.720
11327POPC   NC330433   5.334  22.598  13.414
11327POPC   PO430434   5.269  22.780  13.465
11327POPC   GL130435   5.204  22.962  13.516
11327POPC   GL230436   5.194  22.931  13.611
11327POPC   C1A30437   5.138  23.144  13.567
11327POPC   D2A30438   5.073  23.325  13.619
11327POPC   C3A30439   5.007  23.507  13.670
11327POPC   C4A30440   4.942  23.689  13.721
11327POPC   C1B30441   4.950  23.087  13.530
11327POPC   C2B30442   4.885  23.268  13.581
11327POPC   C3B30443   4.819  23.450  13.632
11327POPC   C4B30444   4.754  23.632  13.683
11328POPC   NC330445   4.188  21.543  14.980
11328POPC   PO430446   4.102  21.709  15.050
11328POPC   GL130447   4.016  21.875  15.120
11328POPC   GL230448   4.102  21.925  15.106
11328POPC   C1A30449   3.930  22.042  15.190
11328POPC   D2A30450   3.845  22.208  15.261
11328POPC   C3A30451   3.759  22.375  15.331
11328POPC   C4A30452   3.673  22.541  15.401
11328POPC   C1B30453   3.989  21.994  15.376
11328POPC   C2B30454   3.903  22.161  15.446
11328POPC   C3B30455   3.818  22.327  15.516
11328POPC   C4B30456   3.732  22.493  15.586
11329POPC   NC330457  15.170   7.546  -2.547
11329POPC   PO430458  15.249   7.511  -2.727
11329POPC   GL130459  15.328   7.476  -2.907
11329POPC   GL230460  15.238   7.490  -2.949
11329POPC   C1A30461  15.407   7.441  -3.088
11329POPC   D2A30462  15.486   7.406  -3.268
11329POPC   C3A30463  15.565   7.371  -3.449
11329POPC   C4A30464  15.644   7.336  -3.629
11329POPC   C1B30465  15.367   7.246  -3.068
11329POPC   C2B30466  15.446   7.211  -3.248
11329POPC   C3B30467  15.525   7.176  -3.428
11329POPC   C4B30468  15.604   7.141  -3.609
11330POPC   NC330469  11.793   0.158   0.366
11330POPC   PO430470  11.824   0.017   0.227
11330POPC   GL130471  11.855  -0.124   0.088
11330POPC   GL230472  11.903  -0.057   0.031
11330POPC   C1A30473  11.886  -0.265  -0.051
11330POPC   D2A30474  11.916  -0.405  -0.189
11330POPC   C3A30475  11.947  -0.546  -0.328
11330POPC   C4A30476  11.978  -0.687  -0.467
11330POPC   C1B30477  11.714  -0.215  -0.139
11330POPC   C2B30478  11.744  -0.355  -0.278
11330POPC   C3B30479  11.775  -0.496  -0.417
11330POPC   C4B30480  11.806  -0.637  -0.556
11331POPC   NC330481  11.059  16.754  21.959
11331POPC   PO430482  11.083  16.847  22.134
11331POPC   GL130483  11.107  16.940  22.309
11331POPC   GL230484  11.206  16.925  22.304
11331POPC   C1A30485  11.131  17.034  22.484
11331POPC   D2A30486  11.155  17.127  22.660
11331POPC   C3A30487  11.179  17.221  22.835
11331POPC   C4A30488  11.203  17.314  23.010
11331POPC   C1B30489  11.109  16.860  22.580
11331POPC   C2B30490  11.133  16.953  22.755
11331POPC   C3B30491  11.157  17.046  22.931
11331POPC   C4B30492  11.181  17.140  23.106
11332POPC   NC330493  22.192  10.173  16.277
11332POPC   PO430494  22.368  10.175  16.372
11332POPC   GL130495  22.544  10.177  16.467
11332POPC   GL230496  22.585  10.123  16.393
11332POPC   C1A30497  22.720  10.178  16.562
11332POPC   D2A30498  22.897  10.180  16.656
11332POPC   C3A30499  23.073  10.181  16.751
11332POPC   C4A30500  23.249  10.183  16.846
11332POPC   C1B30501  22.671  10.009  16.657
11332POPC   C2B30502  22.847  10.011  16.751
11332POPC   C3B30503  23.023  10.013  16.846
11332POPC   C4B30504  23.199  10.014  16.941
11333POPC   NC330505   8.142   5.739  22.919
11333POPC   PO430506   8.113   5.673  23.106
11333POPC   GL130507   8.084   5.607  23.293
11333POPC   GL230508   8.181   5.621  23.312
11333POPC   C1A30509   8.055   5.542  23.479
11333POPC   D2A30510   8.027   5.476  23.666
11333POPC   C3A30511   7.998   5.411  23.852
11333POPC   C4A30512   7.969   5.345  24.039
11333POPC   C1B30513   8.093   5.355  23.419
11333POPC   C2B30514   8.064   5.289  23.606
11333POPC   C3B30515   8.035   5.224  23.792
11333POPC   C4B30516   8.006   5.158  23.979
11334POPC   NC330517   3.647  11.210  22.271
11334POPC   PO430518   3.566  11.233  22.452
11334POPC   GL130519   3.485  11.256  22.633
11334POPC   GL230520   3.491  11.355  22.624
11334POPC   C1A30521   3.403  11.278  22.814
11334POPC   D2A30522   3.322  11.301  22.996
11334POPC   C3A30523   3.240  11.323  23.177
11334POPC   C4A30524   3.159  11.346  23.358
11334POPC   C1B30525   3.585  11.273  22.897
11334POPC   C2B30526   3.504  11.296  23.078
11334POPC   C3B30527   3.423  11.319  23.259
11334POPC   C4B30528   3.341  11.341  23.440
11335POPC   NC330529   1.345  19.464  15.406
11335POPC   PO430530   1.220  19.600  15.483
11335POPC   GL130531   1.095  19.736  15.560
11335POPC   GL230532   1.153  19.743  15.641
11335POPC   C1A30533   0.971  19.872  15.638
11335POPC   D2A30534   0.846  20.008  15.715
11335POPC   C3A30535   0.722  20.144  15.793
11335POPC   C4A30536   0.597  20.280  15.870
11335POPC   C1B30537   0.866  19.726  15.726
11335POPC   C2B30538   0.741  19.862  15.803
11335POPC   C3B30539   0.617  19.998  15.880
11335POPC   C4B30540   0.492  20.134  15.958
11336POPC   NC330541  16.745   8.833  -1.976
11336POPC   PO430542  16.841   8.813  -2.150
11336POPC   GL130543  16.937   8.793  -2.324
11336POPC   GL230544  16.856   8.823  -2.373
11336POPC   C1A30545  17.034   8.773  -2.498
11336POPC   D2A30546  17.130   8.752  -2.673
11336POPC   C3A30547  17.227   8.732  -2.847
11336POPC   C4A30548  17.323   8.712  -3.021
11336POPC   C1B30549  16.971   8.583  -2.511
11336POPC   C2B30550  17.067   8.563  -2.685
11336POPC   C3B30551  17.164   8.543  -2.860
11336POPC   C4B30552  17.260   8.523  -3.034
11337POPC   NC330553  -3.131  13.216  13.668
11337POPC   PO430554  -3.319  13.262  13.719
11337POPC   GL130555  -3.507  13.308  13.770
11337POPC   GL230556  -3.474  13.345  13.857
11337POPC   C1A30557  -3.695  13.354  13.821
11337POPC   D2A30558  -3.882  13.401  13.872
11337POPC   C3A30559  -4.070  13.447  13.923
11337POPC   C4A30560  -4.258  13.493  13.974
11337POPC   C1B30561  -3.716  13.174  13.905
11337POPC   C2B30562  -3.904  13.220  13.956
11337POPC   C3B30563  -4.092  13.267  14.007
11337POPC   C4B30564  -4.279  13.313  14.058
11338POPC   NC330565   2.568   4.864  -0.634
11338POPC   PO430566   2.460   4.784  -0.782
11338POPC   GL130567   2.352   4.704  -0.930
11338POPC   GL230568   2.272   4.704  -0.872
11338POPC   C1A30569   2.245   4.624  -1.079
11338POPC   D2A30570   2.137   4.544  -1.227
11338POPC   C3A30571   2.030   4.464  -1.376
11338POPC   C4A30572   1.922   4.384  -1.524
11338POPC   C1B30573   2.292   4.441  -1.014
11338POPC   C2B30574   2.185   4.361  -1.163
11338POPC   C3B30575   2.077   4.281  -1.311
11338POPC   C4B30576   1.970   4.201  -1.460
11339POPC   NC330577  19.455  16.997   2.848
11339POPC   PO430578  19.590  17.106   2.748
11339POPC   GL130579  19.725  17.215   2.648
11339POPC   GL230580  19.681  17.189   2.561
11339POPC   C1A30581  19.859  17.323   2.547
11339POPC   D2A30582  19.994  17.432   2.447
11339POPC   C3A30583  20.128  17.540   2.346
11339POPC   C4A30584  20.263  17.649   2.246
11339POPC   C1B30585  19.979  17.163   2.535
11339POPC   C2B30586  20.113  17.272   2.434
11339POPC   C3B30587  20.248  17.381   2.334
11339POPC   C4B30588  20.383  17.489   2.233
11340POPC   NC330589  12.315  -0.503   1.235
11340POPC   PO430590  12.355  -0.653   1.108
11340POPC   GL130591  12.395  -0.803   0.981
11340POPC   GL230592  12.356  -0.749   0.906
11340POPC   C1A30593  12.434  -0.953   0.855
11340POPC   D2A30594  12.474  -1.102   0.728
11340POPC   C3A30595  12.513  -1.252   0.602
11340POPC   C4A30596  12.553  -1.402   0.475
11340POPC   C1B30597  12.254  -1.031   0.891
11340POPC   C2B30598  12.293  -1.181   0.764
11340POPC   C3B30599  12.333  -1.330   0.638
11340POPC   C4B30600  12.373  -1.480   0.511
11341POPC   NC330601  11.787   8.481  23.571
11341POPC   PO430602  11.823   8.458  23.766
11341POPC   GL130603  11.859   8.435  23.961
11341POPC   GL230604  11.890   8.341  23.944
11341POPC   C1A30605  11.896   8.412  24.156
11341POPC   D2A30606  11.932   8.389  24.352
11341POPC   C3A30607  11.969   8.366  24.547
11341POPC   C4A30608  12.005   8.343  24.742
11341POPC   C1B30609  11.709   8.346  24.183
11341POPC   C2B30610  11.745   8.323  24.379
11341POPC   C3B30611  11.782   8.300  24.574
11341POPC   C4B30612  11.818   8.277  24.769
11342POPC   NC330613  -2.863  15.199   8.203
11342POPC   PO430614  -3.047  15.270   8.169
11342POPC   GL130615  -3.231  15.341   8.135
11342POPC   GL230616  -3.192  15.430   8.111
11342POPC   C1A30617  -3.415  15.412   8.101
11342POPC   D2A30618  -3.598  15.483   8.067
11342POPC   C3A30619  -3.782  15.554   8.033
11342POPC   C4A30620  -3.966  15.625   7.999
11342POPC   C1B30621  -3.428  15.469   8.292
11342POPC   C2B30622  -3.612  15.540   8.258
11342POPC   C3B30623  -3.796  15.611   8.224
11342POPC   C4B30624  -3.979  15.682   8.190
11343POPC   NC330625  10.647  23.694   8.178
11343POPC   PO430626  10.658  23.892   8.153
11343POPC   GL130627  10.669  24.090   8.128
11343POPC   GL230628  10.752  24.093   8.183
11343POPC   C1A30629  10.679  24.288   8.103
11343POPC   D2A30630  10.690  24.487   8.078
11343POPC   C3A30631  10.700  24.685   8.053
11343POPC   C4A30632  10.711  24.883   8.028
11343POPC   C1B30633  10.571  24.315   8.269
11343POPC   C2B30634  10.581  24.513   8.244
11343POPC   C3B30635  10.592  24.712   8.219
11343POPC   C4B30636  10.602  24.910   8.194
11344POPC   NC330637  17.806  19.118   3.363
11344POPC   PO430638  17.922  19.249   3.266
11344POPC   GL130639  18.038  19.380   3.169
11344POPC   GL230640  18.030  19.325   3.086
11344POPC   C1A30641  18.154  19.511   3.071
11344POPC   D2A30642  18.269  19.642   2.974
11344POPC   C3A30643  18.385  19.773   2.876
11344POPC   C4A30644  18.501  19.904   2.779
11344POPC   C1B30645  18.316  19.407   3.125
11344POPC   C2B30646  18.432  19.538   3.028
11344POPC   C3B30647  18.548  19.669   2.930
11344POPC   C4B30648  18.663  19.800   2.833
11345POPC   NC330649  14.470  -0.021   1.570
11345POPC   PO430650  14.533  -0.166   1.447
11345POPC   GL130651  14.596  -0.311   1.324
11345POPC   GL230652  14.676  -0.256   1.301
11345POPC   C1A30653  14.658  -0.456   1.201
11345POPC   D2A30654  14.721  -0.600   1.079
11345POPC   C3A30655  14.783  -0.745   0.956
11345POPC   C4A30656  14.846  -0.890   0.833
11345POPC   C1B30657  14.556  -0.372   1.051
11345POPC   C2B30658  14.619  -0.517   0.928
11345POPC   C3B30659  14.682  -0.662   0.805
11345POPC   C4B30660  14.744  -0.806   0.682
11346POPC   NC330661  -3.982  10.803   9.204
11346POPC   PO430662  -4.181  10.818   9.185
11346POPC   GL130663  -4.380  10.833   9.166
11346POPC   GL230664  -4.375  10.929   9.192
11346POPC   C1A30665  -4.578  10.848   9.147
11346POPC   D2A30666  -4.777  10.863   9.128
11346POPC   C3A30667  -4.975  10.878   9.109
11346POPC   C4A30668  -5.174  10.893   9.090
11346POPC   C1B30669  -4.600  10.798   9.339
11346POPC   C2B30670  -4.799  10.813   9.320
11346POPC   C3B30671  -4.998  10.828   9.301
11346POPC   C4B30672  -5.196  10.843   9.282
11347POPC   NC330673   8.606  16.996  -1.984
11347POPC   PO430674   8.592  17.097  -2.156
11347POPC   GL130675   8.578  17.198  -2.328
11347POPC   GL230676   8.676  17.189  -2.342
11347POPC   C1A30677   8.564  17.299  -2.500
11347POPC   D2A30678   8.549  17.401  -2.672
11347POPC   C3A30679   8.535  17.502  -2.844
11347POPC   C4A30680   8.521  17.603  -3.016
11347POPC   C1B30681   8.593  17.471  -2.402
11347POPC   C2B30682   8.579  17.572  -2.574
11347POPC   C3B30683   8.565  17.673  -2.746
11347POPC   C4B30684   8.551  17.775  -2.918
11348POPC   NC330685  14.967  -0.948   3.124
11348POPC   PO430686  15.041  -1.107   3.028
11348POPC   GL130687  15.115  -1.266   2.932
11348POPC   GL230688  15.194  -1.212   2.903
11348POPC   C1A30689  15.188  -1.425   2.836
11348POPC   D2A30690  15.262  -1.585   2.739
11348POPC   C3A30691  15.335  -1.744   2.643
11348POPC   C4A30692  15.409  -1.903   2.547
11348POPC   C1B30693  15.091  -1.370   2.670
11348POPC   C2B30694  15.165  -1.529   2.573
11348POPC   C3B30695  15.238  -1.688   2.477
11348POPC   C4B30696  15.312  -1.848   2.381
11349POPC   NC330697  23.464  12.556   9.292
11349POPC   PO430698  23.662  12.586   9.287
11349POPC   GL130699  23.860  12.616   9.282
11349POPC   GL230700  23.857  12.619   9.182
11349POPC   C1A30701  24.058  12.645   9.277
11349POPC   D2A30702  24.255  12.675   9.271
11349POPC   C3A30703  24.453  12.704   9.266
11349POPC   C4A30704  24.651  12.734   9.261
11349POPC   C1B30705  24.087  12.448   9.270
11349POPC   C2B30706  24.285  12.477   9.265
11349POPC   C3B30707  24.483  12.507   9.259
11349POPC   C4B30708  24.680  12.536   9.254
11350POPC   NC330709  10.072  23.799  10.558
11350POPC   PO430710  10.075  23.999  10.566
11350POPC   GL130711  10.078  24.199  10.574
11350POPC   GL230712  10.170  24.199  10.535
11350POPC   C1A30713  10.082  24.399  10.583
11350POPC   D2A30714  10.085  24.598  10.591
11350POPC   C3A30715  10.089  24.798  10.600
11350POPC   C4A30716  10.092  24.998  10.608
11350POPC   C1B30717  10.161  24.389  10.766
11350POPC   C2B30718  10.164  24.589  10.775
11350POPC   C3B30719  10.168  24.789  10.783
11350POPC   C4B30720  10.171  24.989  10.792
11351POPC   NC330721  22.618   6.475   5.778
11351POPC   PO430722  22.805   6.428   5.723
11351POPC   GL130723  22.992   6.381   5.668
11351POPC   GL230724  22.958   6.297   5.625
11351POPC   C1A30725  23.178   6.335   5.613
11351POPC   D2A30726  23.365   6.288   5.559
11351POPC   C3A30727  23.551   6.242   5.504
11351POPC   C4A30728  23.738   6.195   5.449
11351POPC   C1B30729  23.204   6.236   5.786
11351POPC   C2B30730  23.391   6.190   5.731
11351POPC   C3B30731  23.577   6.143   5.676
11351POPC   C4B30732  23.764   6.097   5.621
11352POPC   NC330733   9.928  -3.776  11.187
11352POPC   PO430734   9.928  -3.975  11.203
11352POPC   GL130735   9.928  -4.174  11.219
11352POPC   GL230736   9.976  -4.182  11.132
11352POPC   C1A30737   9.928  -4.374  11.236
11352POPC   D2A30738   9.929  -4.573  11.252
11352POPC   C3A30739   9.929  -4.773  11.269
11352POPC   C4A30740   9.929  -4.972  11.285
11352POPC   C1B30741   9.753  -4.382  11.140
11352POPC   C2B30742   9.753  -4.581  11.156
11352POPC   C3B30743   9.753  -4.781  11.173
11352POPC   C4B30744   9.754  -4.980  11.189
11353POPC   NC330745  23.337   6.901  10.722
11353POPC   PO430746  23.533   6.862  10.733
11353POPC   GL130747  23.729   6.823  10.744
11353POPC   GL230748  23.722   6.765  10.662
11353POPC   C1A30749  23.925   6.784  10.754
11353POPC   D2A30750  24.120   6.745  10.765
11353POPC   C3A30751  24.316   6.706  10.775
11353POPC   C4A30752  24.512   6.667  10.786
11353POPC   C1B30753  23.887   6.626  10.870
11353POPC   C2B30754  24.083   6.587  10.881
11353POPC   C3B30755  24.278   6.548  10.891
11353POPC   C4B30756  24.474   6.509  10.902
11354POPC   NC330757   0.774   4.988   0.752
11354POPC   PO430758   0.649   4.911   0.616
11354POPC   GL130759   0.524   4.834   0.480
11354POPC   GL230760   0.495   4.764   0.546
11354POPC   C1A30761   0.399   4.757   0.345
11354POPC   D2A30762   0.273   4.680   0.209
11354POPC   C3A30763   0.148   4.603   0.074
11354POPC   C4A30764   0.023   4.526  -0.062
11354POPC   C1B30765   0.544   4.636   0.279
11354POPC   C2B30766   0.419   4.559   0.144
11354POPC   C3B30767   0.293   4.482   0.008
11354POPC   C4B30768   0.168   4.405  -0.128
11355POPC   NC330769  -1.812  12.563  16.984
11355POPC   PO430770  -1.980  12.595  17.087
11355POPC   GL130771  -2.148  12.627  17.190
11355POPC   GL230772  -2.099  12.689  17.251
11355POPC   C1A30773  -2.316  12.659  17.294
11355POPC   D2A30774  -2.485  12.691  17.397
11355POPC   C3A30775  -2.653  12.723  17.501
11355POPC   C4A30776  -2.821  12.755  17.604
11355POPC   C1B30777  -2.272  12.506  17.414
11355POPC   C2B30778  -2.440  12.538  17.518
11355POPC   C3B30779  -2.608  12.570  17.621
11355POPC   C4B30780  -2.776  12.602  17.725
11356POPC   NC330781   9.512   0.822  -0.483
11356POPC   PO430782   9.510   0.690  -0.633
11356POPC   GL130783   9.508   0.558  -0.783
11356POPC   GL230784   9.556   0.492  -0.725
11356POPC   C1A30785   9.506   0.425  -0.933
11356POPC   D2A30786   9.505   0.293  -1.083
11356POPC   C3A30787   9.503   0.160  -1.233
11356POPC   C4A30788   9.501   0.028  -1.383
11356POPC   C1B30789   9.682   0.496  -0.998
11356POPC   C2B30790   9.680   0.364  -1.148
11356POPC   C3B30791   9.678   0.231  -1.298
11356POPC   C4B30792   9.677   0.099  -1.448
11357POPC   NC330793   9.786  21.099  18.244
11357POPC   PO430794   9.788  21.256  18.368
11357POPC   GL130795   9.790  21.413  18.492
11357POPC   GL230796   9.797  21.352  18.570
11357POPC   C1A30797   9.792  21.570  18.615
11357POPC   D2A30798   9.795  21.728  18.739
11357POPC   C3A30799   9.797  21.885  18.862
11357POPC   C4A30800   9.799  22.042  18.986
11357POPC   C1B30801   9.593  21.564  18.627
11357POPC   C2B30802   9.595  21.721  18.751
11357POPC   C3B30803   9.597  21.878  18.874
11357POPC   C4B30804   9.599  22.035  18.998
11358POPC   NC330805   6.089  22.348   4.792
11358POPC   PO430806   6.031  22.522   4.712
11358POPC   GL130807   5.973  22.696   4.632
11358POPC   GL230808   5.934  22.724   4.720
11358POPC   C1A30809   5.915  22.870   4.552
11358POPC   D2A30810   5.857  23.044   4.472
11358POPC   C3A30811   5.799  23.218   4.392
11358POPC   C4A30812   5.741  23.392   4.312
11358POPC   C1B30813   5.740  22.788   4.501
11358POPC   C2B30814   5.682  22.962   4.421
11358POPC   C3B30815   5.624  23.136   4.341
11358POPC   C4B30816   5.566  23.310   4.261
11359POPC   NC330817  18.414  19.402   4.566
11359POPC   PO430818  18.538  19.534   4.481
11359POPC   GL130819  18.662  19.666   4.396
11359POPC   GL230820  18.714  19.591   4.356
11359POPC   C1A30821  18.786  19.798   4.311
11359POPC   D2A30822  18.909  19.931   4.227
11359POPC   C3A30823  19.033  20.063   4.142
11359POPC   C4A30824  19.157  20.195   4.057
11359POPC   C1B30825  18.903  19.793   4.473
11359POPC   C2B30826  19.026  19.925   4.389
11359POPC   C3B30827  19.150  20.057   4.304
11359POPC   C4B30828  19.274  20.190   4.219
11360POPC   NC330829   8.709  21.996   3.126
11360POPC   PO430830   8.689  22.163   3.018
11360POPC   GL130831   8.669  22.330   2.910
11360POPC   GL230832   8.751  22.307   2.859
11360POPC   C1A30833   8.648  22.497   2.802
11360POPC   D2A30834   8.628  22.665   2.694
11360POPC   C3A30835   8.607  22.832   2.586
11360POPC   C4A30836   8.587  22.999   2.478
11360POPC   C1B30837   8.759  22.597   2.936
11360POPC   C2B30838   8.738  22.764   2.828
11360POPC   C3B30839   8.718  22.932   2.720
11360POPC   C4B30840   8.697  23.099   2.612
11361POPC   NC330841  14.984   2.404  20.352
11361POPC   PO430842  15.058   2.292  20.500
11361POPC   GL130843  15.132   2.180  20.648
11361POPC   GL230844  15.174   2.119  20.581
11361POPC   C1A30845  15.206   2.068  20.797
11361POPC   D2A30846  15.279   1.956  20.945
11361POPC   C3A30847  15.353   1.844  21.094
11361POPC   C4A30848  15.427   1.732  21.242
11361POPC   C1B30849  15.040   1.956  20.794
11361POPC   C2B30850  15.114   1.844  20.943
11361POPC   C3B30851  15.188   1.732  21.091
11361POPC   C4B30852  15.262   1.620  21.239
11362POPC   NC330853  13.728  23.199   8.530
11362POPC   PO430854  13.788  23.388   8.508
11362POPC   GL130855  13.848  23.577   8.486
11362POPC   GL230856  13.906  23.550   8.409
11362POPC   C1A30857  13.908  23.767   8.464
11362POPC   D2A30858  13.969  23.956   8.441
11362POPC   C3A30859  14.029  24.146   8.419
11362POPC   C4A30860  14.089  24.335   8.397
11362POPC   C1B30861  14.061  23.733   8.589
11362POPC   C2B30862  14.121  23.922   8.567
11362POPC   C3B30863  14.181  24.112   8.544
11362POPC   C4B30864  14.241  24.301   8.522
11363POPC   NC330865  19.129   5.080   0.957
11363POPC   PO430866  19.260   5.003   0.827
11363POPC   GL130867  19.391   4.926   0.697
11363POPC   GL230868  19.456   5.000   0.719
11363POPC   C1A30869  19.523   4.849   0.567
11363POPC   D2A30870  19.654   4.773   0.438
11363POPC   C3A30871  19.786   4.696   0.308
11363POPC   C4A30872  19.917   4.619   0.178
11363POPC   C1B30873  19.444   4.961   0.421
11363POPC   C2B30874  19.575   4.884   0.292
11363POPC   C3B30875  19.706   4.807   0.162
11363POPC   C4B30876  19.838   4.731   0.032
11364POPC   NC330877   9.184   7.744  -3.683
11364POPC   PO430878   9.173   7.708  -3.879
11364POPC   GL130879   9.162   7.672  -4.075
11364POPC   GL230880   9.261   7.682  -4.083
11364POPC   C1A30881   9.151   7.635  -4.272
11364POPC   D2A30882   9.141   7.599  -4.468
11364POPC   C3A30883   9.130   7.562  -4.665
11364POPC   C4A30884   9.119   7.526  -4.861
11364POPC   C1B30885   9.128   7.831  -4.307
11364POPC   C2B30886   9.118   7.794  -4.503
11364POPC   C3B30887   9.107   7.758  -4.700
11364POPC   C4B30888   9.096   7.722  -4.896
11365POPC   NC330889   0.888  16.679   1.702
11365POPC   PO430890   0.757  16.775   1.585
11365POPC   GL130891   0.626  16.871   1.468
11365POPC   GL230892   0.692  16.944   1.454
11365POPC   C1A30893   0.495  16.966   1.351
11365POPC   D2A30894   0.363  17.062   1.235
11365POPC   C3A30895   0.232  17.157   1.118
11365POPC   C4A30896   0.101  17.253   1.001
11365POPC   C1B30897   0.422  17.061   1.511
11365POPC   C2B30898   0.290  17.157   1.395
11365POPC   C3B30899   0.159  17.253   1.278
11365POPC   C4B30900   0.028  17.348   1.161
11366POPC   NC330901  12.082  21.896   3.259
11366POPC   PO430902  12.116  22.070   3.167
11366POPC   GL130903  12.150  22.244   3.075
11366POPC   GL230904  12.239  22.210   3.044
11366POPC   C1A30905  12.184  22.418   2.983
11366POPC   D2A30906  12.218  22.593   2.891
11366POPC   C3A30907  12.252  22.767   2.799
11366POPC   C4A30908  12.286  22.941   2.707
11366POPC   C1B30909  12.269  22.490   3.150
11366POPC   C2B30910  12.303  22.664   3.058
11366POPC   C3B30911  12.337  22.838   2.966
11366POPC   C4B30912  12.371  23.012   2.874
11367POPC   NC330913  -1.548  17.934   9.475
11367POPC   PO430914  -1.711  18.050   9.473
11367POPC   GL130915  -1.874  18.166   9.471
11367POPC   GL230916  -1.911  18.116   9.549
11367POPC   C1A30917  -2.036  18.283   9.469
11367POPC   D2A30918  -2.199  18.399   9.467
11367POPC   C3A30919  -2.361  18.516   9.465
11367POPC   C4A30920  -2.524  18.632   9.463
11367POPC   C1B30921  -2.126  18.155   9.344
11367POPC   C2B30922  -2.288  18.272   9.342
11367POPC   C3B30923  -2.451  18.388   9.340
11367POPC   C4B30924  -2.614  18.504   9.338
11368POPC   NC330925   6.441   5.114  -2.636
11368POPC   PO430926   6.397   5.047  -2.819
11368POPC   GL130927   6.353   4.980  -3.002
11368POPC   GL230928   6.374   4.887  -2.973
11368POPC   C1A30929   6.309   4.913  -3.185
11368POPC   D2A30930   6.265   4.845  -3.369
11368POPC   C3A30931   6.221   4.778  -3.552
11368POPC   C4A30932   6.177   4.711  -3.735
11368POPC   C1B30933   6.499   4.939  -3.241
11368POPC   C2B30934   6.455   4.872  -3.424
11368POPC   C3B30935   6.411   4.805  -3.607
11368POPC   C4B30936   6.367   4.738  -3.791
11369POPC   NC330937  22.481   5.431   6.443
11369POPC   PO430938  22.665   5.366   6.399
11369POPC   GL130939  22.849   5.301   6.355
11369POPC   GL230940  22.822   5.291   6.259
11369POPC   C1A30941  23.033   5.236   6.310
11369POPC   D2A30942  23.216   5.170   6.266
11369POPC   C3A30943  23.400   5.105   6.221
11369POPC   C4A30944  23.584   5.040   6.177
11369POPC   C1B30945  22.975   5.048   6.346
11369POPC   C2B30946  23.158   4.982   6.302
11369POPC   C3B30947  23.342   4.917   6.257
11369POPC   C4B30948  23.526   4.852   6.213
11370POPC   NC330949  21.165   5.039  16.258
11370POPC   PO430950  21.328   4.977  16.356
11370POPC   GL130951  21.491   4.915  16.454
11370POPC   GL230952  21.519   5.011  16.468
11370POPC   C1A30953  21.654   4.854  16.552
11370POPC   D2A30954  21.817   4.792  16.651
11370POPC   C3A30955  21.980   4.731  16.749
11370POPC   C4A30956  22.143   4.669  16.847
11370POPC   C1B30957  21.756   4.848  16.380
11370POPC   C2B30958  21.919   4.787  16.478
11370POPC   C3B30959  22.082   4.725  16.577
11370POPC   C4B30960  22.245   4.663  16.675
11371POPC   NC330961  -2.797  12.498   5.054
11371POPC   PO430962  -2.982  12.536   4.988
11371POPC   GL130963  -3.167  12.574   4.922
11371POPC   GL230964  -3.196  12.596   5.016
11371POPC   C1A30965  -3.352  12.612   4.857
11371POPC   D2A30966  -3.537  12.651   4.791
11371POPC   C3A30967  -3.722  12.689   4.726
11371POPC   C4A30968  -3.907  12.727   4.660
11371POPC   C1B30969  -3.402  12.421   4.886
11371POPC   C2B30970  -3.587  12.459   4.820
11371POPC   C3B30971  -3.772  12.497   4.754
11371POPC   C4B30972  -3.957  12.535   4.689
11372POPC   NC330973   8.727  20.034  19.365
11372POPC   PO430974   8.704  20.176  19.504
11372POPC   GL130975   8.681  20.318  19.643
11372POPC   GL230976   8.681  20.248  19.715
11372POPC   C1A30977   8.658  20.459  19.783
11372POPC   D2A30978   8.636  20.601  19.922
11372POPC   C3A30979   8.613  20.742  20.062
11372POPC   C4A30980   8.590  20.884  20.201
11372POPC   C1B30981   8.460  20.443  19.767
11372POPC   C2B30982   8.437  20.584  19.906
11372POPC   C3B30983   8.414  20.726  20.046
11372POPC   C4B30984   8.391  20.868  20.185
11373POPC   NC330985   9.635   1.026  20.503
11373POPC   PO430986   9.638   0.894  20.653
11373POPC   GL130987   9.641   0.762  20.803
11373POPC   GL230988   9.719   0.809  20.844
11373POPC   C1A30989   9.643   0.630  20.953
11373POPC   D2A30990   9.646   0.497  21.103
11373POPC   C3A30991   9.648   0.365  21.253
11373POPC   C4A30992   9.651   0.233  21.403
11373POPC   C1B30993   9.768   0.514  20.849
11373POPC   C2B30994   9.771   0.381  20.999
11373POPC   C3B30995   9.773   0.249  21.149
11373POPC   C4B30996   9.776   0.117  21.299
11374POPC   NC330997   4.832  13.971  22.249
11374POPC   PO430998   4.755  14.020  22.427
11374POPC   GL130999   4.678  14.069  22.605
11374POPC   GL231000   4.741  14.147  22.610
11374POPC   C1A31001   4.602  14.118  22.783
11374POPC   D2A31002   4.525  14.167  22.962
11374POPC   C3A31003   4.449  14.216  23.140
11374POPC   C4A31004   4.372  14.265  23.318
11374POPC   C1B31005   4.738  14.003  22.874
11374POPC   C2B31006   4.662  14.052  23.052
11374POPC   C3B31007   4.585  14.101  23.230
11374POPC   C4B31008   4.509  14.150  23.408
11375POPC   NC331009   0.192  17.380   3.287
11375POPC   PO431010   0.051  17.486   3.192
11375POPC   GL131011  -0.090  17.592   3.097
11375POPC   GL231012  -0.128  17.620   3.186
11375POPC   C1A31013  -0.230  17.698   3.003
11375POPC   D2A31014  -0.371  17.805   2.908
11375POPC   C3A31015  -0.511  17.911   2.814
11375POPC   C4A31016  -0.652  18.017   2.719
11375POPC   C1B31017  -0.350  17.538   3.002
11375POPC   C2B31018  -0.491  17.645   2.907
11375POPC   C3B31019  -0.632  17.751   2.812
11375POPC   C4B31020  -0.772  17.857   2.718
11376POPC   NC331021  17.347  15.913  -0.099
11376POPC   PO431022  17.452  15.997  -0.247
11376POPC   GL131023  17.557  16.081  -0.395
11376POPC   GL231024  17.472  16.099  -0.445
11376POPC   C1A31025  17.662  16.166  -0.543
11376POPC   D2A31026  17.766  16.250  -0.691
11376POPC   C3A31027  17.871  16.335  -0.839
11376POPC   C4A31028  17.976  16.419  -0.987
11376POPC   C1B31029  17.678  15.988  -0.633
11376POPC   C2B31030  17.783  16.072  -0.781
11376POPC   C3B31031  17.888  16.157  -0.929
11376POPC   C4B31032  17.993  16.241  -1.077
11377POPC   NC331033   2.934  -0.305  16.133
11377POPC   PO431034   2.835  -0.453  16.225
11377POPC   GL131035   2.736  -0.601  16.317
11377POPC   GL231036   2.748  -0.554  16.405
11377POPC   C1A31037   2.638  -0.748  16.409
11377POPC   D2A31038   2.539  -0.896  16.502
11377POPC   C3A31039   2.441  -1.043  16.594
11377POPC   C4A31040   2.342  -1.191  16.686
11377POPC   C1B31041   2.810  -0.846  16.438
11377POPC   C2B31042   2.712  -0.993  16.530
11377POPC   C3B31043   2.613  -1.141  16.622
11377POPC   C4B31044   2.514  -1.289  16.714
11378POPC   NC331045  19.411   2.161   3.637
11378POPC   PO431046  19.548   2.050   3.542
11378POPC   GL131047  19.685   1.939   3.447
11378POPC   GL231048  19.753   2.010   3.462
11378POPC   C1A31049  19.821   1.828   3.352
11378POPC   D2A31050  19.958   1.717   3.258
11378POPC   C3A31051  20.094   1.606   3.163
11378POPC   C4A31052  20.231   1.495   3.068
11378POPC   C1B31053  19.771   1.914   3.179
11378POPC   C2B31054  19.907   1.803   3.084
11378POPC   C3B31055  20.044   1.692   2.989
11378POPC   C4B31056  20.180   1.581   2.895
11379POPC   NC331057  15.915  13.221  -2.145
11379POPC   PO431058  16.004  13.265  -2.319
11379POPC   GL131059  16.093  13.309  -2.493
11379POPC   GL231060  16.003  13.319  -2.536
11379POPC   C1A31061  16.182  13.353  -2.666
11379POPC   D2A31062  16.270  13.396  -2.840
11379POPC   C3A31063  16.359  13.440  -3.013
11379POPC   C4A31064  16.448  13.484  -3.187
11379POPC   C1B31065  16.183  13.159  -2.715
11379POPC   C2B31066  16.272  13.202  -2.888
11379POPC   C3B31067  16.361  13.246  -3.062
11379POPC   C4B31068  16.449  13.290  -3.235
11380POPC   NC331069   1.636  10.335  -1.117
11380POPC   PO431070   1.517  10.343  -1.277
11380POPC   GL131071   1.398  10.351  -1.437
11380POPC   GL231072   1.339  10.416  -1.390
11380POPC   C1A31073   1.278  10.359  -1.597
11380POPC   D2A31074   1.159  10.366  -1.758
11380POPC   C3A31075   1.039  10.374  -1.918
11380POPC   C4A31076   0.920  10.382  -2.078
11380POPC   C1B31077   1.169  10.208  -1.524
11380POPC   C2B31078   1.050  10.216  -1.684
11380POPC   C3B31079   0.931  10.223  -1.844
11380POPC   C4B31080   0.811  10.231  -2.004
11381POPC   NC331081  18.949   3.310  17.947
11381POPC   PO431082  19.078   3.217  18.068
11381POPC   GL131083  19.207   3.124  18.189
11381POPC   GL231084  19.283   3.151  18.130
11381POPC   C1A31085  19.336   3.030  18.310
11381POPC   D2A31086  19.465   2.937  18.431
11381POPC   C3A31087  19.594   2.843  18.552
11381POPC   C4A31088  19.723   2.750  18.673
11381POPC   C1B31089  19.313   2.862  18.204
11381POPC   C2B31090  19.442   2.769  18.325
11381POPC   C3B31091  19.571   2.675  18.446
11381POPC   C4B31092  19.700   2.582  18.567
11382POPC   NC331093  15.719  20.282   2.803
11382POPC   PO431094  15.808  20.428   2.699
11382POPC   GL131095  15.897  20.574   2.595
11382POPC   GL231096  15.847  20.546   2.513
11382POPC   C1A31097  15.986  20.720   2.492
11382POPC   D2A31098  16.075  20.866   2.388
11382POPC   C3A31099  16.164  21.012   2.285
11382POPC   C4A31100  16.253  21.158   2.181
11382POPC   C1B31101  16.134  20.595   2.443
11382POPC   C2B31102  16.223  20.741   2.340
11382POPC   C3B31103  16.312  20.887   2.236
11382POPC   C4B31104  16.401  21.033   2.132
11383POPC   NC331105   3.008  21.882   8.889
11383POPC   PO431106   2.903  22.051   8.868
11383POPC   GL131107   2.798  22.220   8.847
11383POPC   GL231108   2.869  22.256   8.787
11383POPC   C1A31109   2.693  22.389   8.826
11383POPC   D2A31110   2.588  22.557   8.804
11383POPC   C3A31111   2.483  22.726   8.783
11383POPC   C4A31112   2.378  22.895   8.762
11383POPC   C1B31113   2.787  22.467   8.984
11383POPC   C2B31114   2.682  22.636   8.963
11383POPC   C3B31115   2.577  22.804   8.942
11383POPC   C4B31116   2.472  22.973   8.920
11384POPC   NC331117  17.759  20.190   4.869
11384POPC   PO431118  17.877  20.328   4.784
11384POPC   GL131119  17.995  20.466   4.699
11384POPC   GL231120  17.953  20.446   4.610
11384POPC   C1A31121  18.112  20.604   4.614
11384POPC   D2A31122  18.230  20.741   4.530
11384POPC   C3A31123  18.347  20.879   4.445
11384POPC   C4A31124  18.465  21.017   4.360
11384POPC   C1B31125  18.251  20.464   4.580
11384POPC   C2B31126  18.369  20.602   4.495
11384POPC   C3B31127  18.486  20.740   4.411
11384POPC   C4B31128  18.604  20.877   4.326
11385POPC   NC331129  20.532   7.149  18.201
11385POPC   PO431130  20.688   7.107  18.318
11385POPC   GL131131  20.844   7.065  18.435
11385POPC   GL231132  20.864   6.984  18.380
11385POPC   C1A31133  21.000   7.023  18.553
11385POPC   D2A31134  21.157   6.980  18.670
11385POPC   C3A31135  21.313   6.938  18.788
11385POPC   C4A31136  21.469   6.896  18.905
11385POPC   C1B31137  20.882   6.913  18.671
11385POPC   C2B31138  21.038   6.871  18.789
11385POPC   C3B31139  21.194   6.829  18.906
11385POPC   C4B31140  21.350   6.787  19.023
11386POPC   NC331141   7.337  15.921  -2.344
11386POPC   PO431142   7.300  16.005  -2.522
11386POPC   GL131143   7.263  16.089  -2.700
11386POPC   GL231144   7.265  16.179  -2.657
11386POPC   C1A31145   7.225  16.173  -2.877
11386POPC   D2A31146   7.188  16.256  -3.055
11386POPC   C3A31147   7.150  16.340  -3.232
11386POPC   C4A31148   7.113  16.424  -3.410
11386POPC   C1B31149   7.029  16.161  -2.841
11386POPC   C2B31150   6.991  16.245  -3.019
11386POPC   C3B31151   6.954  16.329  -3.197
11386POPC   C4B31152   6.917  16.413  -3.374
11387POPC   NC331153  21.833  13.632  15.921
11387POPC   PO431154  22.009  13.682  16.002
11387POPC   GL131155  22.185  13.732  16.083
11387POPC   GL231156  22.171  13.827  16.055
11387POPC   C1A31157  22.361  13.782  16.164
11387POPC   D2A31158  22.536  13.831  16.246
11387POPC   C3A31159  22.712  13.881  16.327
11387POPC   C4A31160  22.888  13.931  16.408
11387POPC   C1B31161  22.452  13.744  15.990
11387POPC   C2B31162  22.627  13.794  16.071
11387POPC   C3B31163  22.803  13.844  16.153
11387POPC   C4B31164  22.979  13.893  16.234
11388POPC   NC331165   1.126  14.485  19.611
11388POPC   PO431166   1.004  14.551  19.755
11388POPC   GL131167   0.882  14.617  19.899
11388POPC   GL231168   0.959  14.617  19.964
11388POPC   C1A31169   0.761  14.683  20.043
11388POPC   D2A31170   0.639  14.750  20.188
11388POPC   C3A31171   0.518  14.816  20.332
11388POPC   C4A31172   0.396  14.882  20.476
11388POPC   C1B31173   0.718  14.495  20.094
11388POPC   C2B31174   0.596  14.561  20.238
11388POPC   C3B31175   0.474  14.627  20.382
11388POPC   C4B31176   0.353  14.693  20.526
11389POPC   NC331177  17.003   0.093  16.532
11389POPC   PO431178  17.108  -0.046  16.631
11389POPC   GL131179  17.213  -0.185  16.730
11389POPC   GL231180  17.296  -0.130  16.717
11389POPC   C1A31181  17.319  -0.323  16.828
11389POPC   D2A31182  17.424  -0.462  16.927
11389POPC   C3A31183  17.530  -0.600  17.025
11389POPC   C4A31184  17.635  -0.739  17.124
11389POPC   C1B31185  17.355  -0.418  16.656
11389POPC   C2B31186  17.461  -0.557  16.755
11389POPC   C3B31187  17.566  -0.695  16.853
11389POPC   C4B31188  17.671  -0.834  16.952
11390POPC   NC331189  17.247  -1.482  12.236
11390POPC   PO431190  17.353  -1.648  12.269
11390POPC   GL131191  17.459  -1.814  12.302
11390POPC   GL231192  17.543  -1.765  12.281
11390POPC   C1A31193  17.565  -1.981  12.335
11390POPC   D2A31194  17.670  -2.147  12.369
11390POPC   C3A31195  17.776  -2.314  12.402
11390POPC   C4A31196  17.882  -2.480  12.435
11390POPC   C1B31197  17.545  -2.032  12.143
11390POPC   C2B31198  17.651  -2.198  12.176
11390POPC   C3B31199  17.757  -2.364  12.209
11390POPC   C4B31200  17.862  -2.531  12.243
11391POPC   NC331201  16.398   7.387  -1.928
11391POPC   PO431202  16.490   7.351  -2.102
11391POPC   GL131203  16.582   7.315  -2.276
11391POPC   GL231204  16.575   7.412  -2.300
11391POPC   C1A31205  16.674   7.279  -2.450
11391POPC   D2A31206  16.765   7.242  -2.624
11391POPC   C3A31207  16.857   7.206  -2.798
11391POPC   C4A31208  16.949   7.170  -2.972
11391POPC   C1B31209  16.496   7.246  -2.537
11391POPC   C2B31210  16.588   7.210  -2.711
11391POPC   C3B31211  16.680   7.173  -2.885
11391POPC   C4B31212  16.772   7.137  -3.059
11392POPC   NC331213  15.888  18.785  18.855
11392POPC   PO431214  15.975  18.913  18.981
11392POPC   GL131215  16.062  19.041  19.107
11392POPC   GL231216  16.142  18.980  19.114
11392POPC   C1A31217  16.150  19.169  19.234
11392POPC   D2A31218  16.237  19.297  19.360
11392POPC   C3A31219  16.325  19.425  19.487
11392POPC   C4A31220  16.412  19.553  19.613
11392POPC   C1B31221  16.064  19.075  19.388
11392POPC   C2B31222  16.151  19.203  19.515
11392POPC   C3B31223  16.239  19.331  19.641
11392POPC   C4B31224  16.326  19.459  19.767
11393POPC   NC331225  13.459  18.864  19.980
11393POPC   PO431226  13.508  18.994  20.124
11393POPC   GL131227  13.557  19.124  20.268
11393POPC   GL231228  13.650  19.128  20.233
11393POPC   C1A31229  13.605  19.254  20.412
11393POPC   D2A31230  13.654  19.385  20.555
11393POPC   C3A31231  13.702  19.515  20.699
11393POPC   C4A31232  13.751  19.645  20.843
11393POPC   C1B31233  13.657  19.103  20.531
11393POPC   C2B31234  13.705  19.233  20.675
11393POPC   C3B31235  13.754  19.363  20.819
11393POPC   C4B31236  13.803  19.493  20.963
11394POPC   NC331237  20.851   2.067  12.786
11394POPC   PO431238  21.007   1.950  12.830
11394POPC   GL131239  21.163   1.833  12.874
11394POPC   GL231240  21.146   1.779  12.791
11394POPC   C1A31241  21.319   1.715  12.918
11394POPC   D2A31242  21.474   1.598  12.962
11394POPC   C3A31243  21.630   1.480  13.006
11394POPC   C4A31244  21.786   1.363  13.050
11394POPC   C1B31245  21.198   1.594  13.021
11394POPC   C2B31246  21.354   1.476  13.065
11394POPC   C3B31247  21.509   1.359  13.109
11394POPC   C4B31248  21.665   1.241  13.153
11395POPC   NC331249   4.912  -1.185   3.309
11395POPC   PO431250   4.842  -1.345   3.212
11395POPC   GL131251   4.772  -1.505   3.115
11395POPC   GL231252   4.838  -1.490   3.042
11395POPC   C1A31253   4.701  -1.665   3.018
11395POPC   D2A31254   4.631  -1.825   2.921
11395POPC   C3A31255   4.560  -1.985   2.824
11395POPC   C4A31256   4.490  -2.145   2.727
11395POPC   C1B31257   4.569  -1.549   2.923
11395POPC   C2B31258   4.498  -1.709   2.826
11395POPC   C3B31259   4.428  -1.869   2.729
11395POPC   C4B31260   4.357  -2.029   2.632
11396POPC   NC331261  20.359  16.936  15.740
11396POPC   PO431262  20.505  17.047  15.819
11396POPC   GL131263  20.651  17.158  15.898
11396POPC   GL231264  20.627  17.234  15.836
11396POPC   C1A31265  20.797  17.270  15.976
11396POPC   D2A31266  20.944  17.381  16.055
11396POPC   C3A31267  21.090  17.493  16.133
11396POPC   C4A31268  21.236  17.604  16.212
11396POPC   C1B31269  20.925  17.199  15.839
11396POPC   C2B31270  21.071  17.310  15.918
11396POPC   C3B31271  21.217  17.422  15.997
11396POPC   C4B31272  21.363  17.533  16.075
11397POPC   NC331273  13.959   9.568  -3.299
11397POPC   PO431274  14.029   9.558  -3.486
11397POPC   GL131275  14.099   9.548  -3.673
11397POPC   GL231276  14.009   9.518  -3.705
11397POPC   C1A31277  14.169   9.539  -3.860
11397POPC   D2A31278  14.238   9.529  -4.048
11397POPC   C3A31279  14.308   9.520  -4.235
11397POPC   C4A31280  14.378   9.510  -4.422
11397POPC   C1B31281  14.222   9.348  -3.831
11397POPC   C2B31282  14.292   9.339  -4.018
11397POPC   C3B31283  14.361   9.329  -4.205
11397POPC   C4B31284  14.431   9.319  -4.392
11398POPC   NC331285   1.239  10.705  20.746
11398POPC   PO431286   1.115  10.720  20.902
11398POPC   GL131287   0.991  10.735  21.058
11398POPC   GL231288   1.065  10.707  21.119
11398POPC   C1A31289   0.867  10.751  21.214
11398POPC   D2A31290   0.744  10.766  21.371
11398POPC   C3A31291   0.620  10.782  21.527
11398POPC   C4A31292   0.496  10.797  21.683
11398POPC   C1B31293   0.814  10.560  21.191
11398POPC   C2B31294   0.690  10.575  21.347
11398POPC   C3B31295   0.566  10.590  21.503
11398POPC   C4B31296   0.442  10.606  21.659
11399POPC   NC331297  19.675   0.186  10.115
11399POPC   PO431298  19.815   0.043  10.116
11399POPC   GL131299  19.955  -0.100  10.117
11399POPC   GL231300  19.921  -0.134  10.030
11399POPC   C1A31301  20.095  -0.242  10.118
11399POPC   D2A31302  20.236  -0.385  10.118
11399POPC   C3A31303  20.376  -0.527  10.119
11399POPC   C4A31304  20.516  -0.670  10.120
11399POPC   C1B31305  19.971  -0.364  10.215
11399POPC   C2B31306  20.111  -0.507  10.216
11399POPC   C3B31307  20.251  -0.650  10.217
11399POPC   C4B31308  20.391  -0.792  10.218
11400POPC   NC331309   7.886  19.116  -0.258
11400POPC   PO431310   7.860  19.253  -0.402
11400POPC   GL131311   7.834  19.390  -0.546
11400POPC   GL231312   7.910  19.443  -0.508
11400POPC   C1A31313   7.808  19.526  -0.690
11400POPC   D2A31314   7.783  19.663  -0.833
11400POPC   C3A31315   7.757  19.799  -0.977
11400POPC   C4A31316   7.731  19.936  -1.121
11400POPC   C1B31317   7.680  19.625  -0.573
11400POPC   C2B31318   7.654  19.762  -0.716
11400POPC   C3B31319   7.628  19.898  -0.860
11400POPC   C4B31320   7.602  20.035  -1.004
11401POPC   NC331321   7.685  15.898  22.330
11401POPC   PO431322   7.657  15.982  22.509
11401POPC   GL131323   7.629  16.066  22.688
11401POPC   GL231324   7.715  16.116  22.678
11401POPC   C1A31325   7.601  16.151  22.867
11401POPC   D2A31326   7.572  16.235  23.046
11401POPC   C3A31327   7.544  16.320  23.225
11401POPC   C4A31328   7.516  16.404  23.404
11401POPC   C1B31329   7.698  15.999  22.954
11401POPC   C2B31330   7.670  16.084  23.133
11401POPC   C3B31331   7.642  16.168  23.312
11401POPC   C4B31332   7.614  16.253  23.491
11402POPC   NC331333  22.306   9.621  16.044
11402POPC   PO431334  22.482   9.611  16.139
11402POPC   GL131335  22.658   9.601  16.234
11402POPC   GL231336  22.696   9.548  16.158
11402POPC   C1A31337  22.834   9.592  16.328
11402POPC   D2A31338  23.009   9.582  16.423
11402POPC   C3A31339  23.185   9.573  16.517
11402POPC   C4A31340  23.361   9.563  16.612
11402POPC   C1B31341  22.776   9.423  16.418
11402POPC   C2B31342  22.952   9.413  16.513
11402POPC   C3B31343  23.127   9.404  16.608
11402POPC   C4B31344  23.303   9.394  16.702
11403POPC   NC331345  10.012  -2.259   3.454
11403POPC   PO431346  10.010  -2.435   3.359
11403POPC   GL131347  10.008  -2.611   3.264
11403POPC   GL231348  10.044  -2.656   3.347
11403POPC   C1A31349  10.007  -2.787   3.170
11403POPC   D2A31350  10.005  -2.964   3.075
11403POPC   C3A31351  10.004  -3.140   2.981
11403POPC   C4A31352  10.002  -3.316   2.886
11403POPC   C1B31353  10.194  -2.755   3.107
11403POPC   C2B31354  10.192  -2.932   3.013
11403POPC   C3B31355  10.191  -3.108   2.918
11403POPC   C4B31356  10.189  -3.284   2.823
11404POPC   NC331357   1.610  10.449  21.057
11404POPC   PO431358   1.488  10.462  21.215
11404POPC   GL131359   1.366  10.475  21.373
11404POPC   GL231360   1.440  10.443  21.432
11404POPC   C1A31361   1.244  10.487  21.531
11404POPC   D2A31362   1.121  10.500  21.688
11404POPC   C3A31363   0.999  10.512  21.846
11404POPC   C4A31364   0.877  10.525  22.004
11404POPC   C1B31365   1.187  10.298  21.502
11404POPC   C2B31366   1.065  10.310  21.660
11404POPC   C3B31367   0.943  10.323  21.818
11404POPC   C4B31368   0.820  10.335  21.975
11405POPC   NC331369  21.778   4.014  13.787
11405POPC   PO431370  21.950   3.927  13.841
11405POPC   GL131371  22.122   3.840  13.895
11405POPC   GL231372  22.160   3.860  13.804
11405POPC   C1A31373  22.294   3.753  13.948
11405POPC   D2A31374  22.466   3.667  14.002
11405POPC   C3A31375  22.638   3.580  14.055
11405POPC   C4A31376  22.810   3.493  14.109
11405POPC   C1B31377  22.226   3.578  13.881
11405POPC   C2B31378  22.398   3.491  13.935
11405POPC   C3B31379  22.570   3.404  13.988
11405POPC   C4B31380  22.742   3.317  14.042
11406POPC   NC331381  19.472   0.926  14.108
11406POPC   PO431382  19.613   0.797  14.166
11406POPC   GL131383  19.754   0.668  14.224
11406POPC   GL231384  19.743   0.617  14.139
11406POPC   C1A31385  19.895   0.538  14.283
11406POPC   D2A31386  20.035   0.409  14.341
11406POPC   C3A31387  20.176   0.279  14.400
11406POPC   C4A31388  20.317   0.150  14.458
11406POPC   C1B31389  19.754   0.424  14.368
11406POPC   C2B31390  19.895   0.295  14.426
11406POPC   C3B31391  20.036   0.165  14.485
11406POPC   C4B31392  20.177   0.036  14.543
11407POPC   NC331393   0.119   0.318  11.921
11407POPC   PO431394  -0.019   0.176  11.948
11407POPC   GL131395  -0.157   0.034  11.975
11407POPC   GL231396  -0.101  -0.007  12.047
11407POPC   C1A31397  -0.295  -0.108  12.001
11407POPC   D2A31398  -0.434  -0.251  12.028
11407POPC   C3A31399  -0.572  -0.393  12.054
11407POPC   C4A31400  -0.710  -0.535  12.081
11407POPC   C1B31401  -0.203  -0.223  11.866
11407POPC   C2B31402  -0.342  -0.365  11.892
11407POPC   C3B31403  -0.480  -0.508  11.919
11407POPC   C4B31404  -0.618  -0.650  11.946
11408POPC   NC331405   5.146  22.948   8.220
11408POPC   PO431406   5.072  23.132   8.196
11408POPC   GL131407   4.998  23.316   8.172
11408POPC   GL231408   4.982  23.323   8.270
11408POPC   C1A31409   4.925  23.501   8.147
11408POPC   D2A31410   4.851  23.685   8.123
11408POPC   C3A31411   4.778  23.870   8.098
11408POPC   C4A31412   4.704  24.054   8.074
11408POPC   C1B31413   4.742  23.424   8.122
11408POPC   C2B31414   4.668  23.609   8.097
11408POPC   C3B31415   4.595  23.793   8.073
11408POPC   C4B31416   4.521  23.977   8.048
11409POPC   NC331417  -2.321   3.887  12.294
11409POPC   PO431418  -2.498   3.801  12.329
11409POPC   GL131419  -2.675   3.715  12.364
11409POPC   GL231420  -2.691   3.780  12.439
11409POPC   C1A31421  -2.852   3.630  12.399
11409POPC   D2A31422  -3.030   3.544  12.435
11409POPC   C3A31423  -3.207   3.459  12.470
11409POPC   C4A31424  -3.384   3.373  12.505
11409POPC   C1B31425  -2.766   3.503  12.527
11409POPC   C2B31426  -2.943   3.417  12.563
11409POPC   C3B31427  -3.120   3.332  12.598
11409POPC   C4B31428  -3.297   3.246  12.633
11410POPC   NC331429  11.658  14.553  22.810
11410POPC   PO431430  11.684  14.622  22.996
11410POPC   GL131431  11.710  14.691  23.182
11410POPC   GL231432  11.743  14.778  23.145
11410POPC   C1A31433  11.737  14.760  23.368
11410POPC   D2A31434  11.763  14.830  23.553
11410POPC   C3A31435  11.790  14.899  23.739
11410POPC   C4A31436  11.816  14.968  23.925
11410POPC   C1B31437  11.924  14.689  23.368
11410POPC   C2B31438  11.950  14.759  23.553
11410POPC   C3B31439  11.977  14.828  23.739
11410POPC   C4B31440  12.003  14.897  23.925
11411POPC   NC331441  15.983  21.003  15.572
11411POPC   PO431442  16.077  21.159  15.655
11411POPC   GL131443  16.171  21.315  15.738
11411POPC   GL231444  16.185  21.355  15.647
11411POPC   C1A31445  16.264  21.471  15.821
11411POPC   D2A31446  16.358  21.628  15.903
11411POPC   C3A31447  16.451  21.784  15.986
11411POPC   C4A31448  16.545  21.940  16.069
11411POPC   C1B31449  16.439  21.375  15.805
11411POPC   C2B31450  16.532  21.531  15.888
11411POPC   C3B31451  16.626  21.687  15.971
11411POPC   C4B31452  16.720  21.844  16.054
11412POPC   NC331453  10.833  23.784   9.907
11412POPC   PO431454  10.845  23.984   9.907
11412POPC   GL131455  10.857  24.184   9.907
11412POPC   GL231456  10.945  24.178   9.860
11412POPC   C1A31457  10.869  24.383   9.908
11412POPC   D2A31458  10.881  24.583   9.908
11412POPC   C3A31459  10.893  24.782   9.909
11412POPC   C4A31460  10.905  24.982   9.909
11412POPC   C1B31461  10.964  24.377  10.084
11412POPC   C2B31462  10.976  24.577  10.084
11412POPC   C3B31463  10.988  24.776  10.085
11412POPC   C4B31464  11.000  24.976  10.085
11413POPC   NC331465   1.725   6.492  -0.732
11413POPC   PO431466   1.609   6.438  -0.885
11413POPC   GL131467   1.493   6.384  -1.038
11413POPC   GL231468   1.411   6.401  -0.983
11413POPC   C1A31469   1.377   6.330  -1.192
11413POPC   D2A31470   1.260   6.275  -1.345
11413POPC   C3A31471   1.144   6.221  -1.499
11413POPC   C4A31472   1.028   6.167  -1.652
11413POPC   C1B31473   1.381   6.140  -1.128
11413POPC   C2B31474   1.265   6.086  -1.281
11413POPC   C3B31475   1.148   6.032  -1.435
11413POPC   C4B31476   1.032   5.977  -1.588
11414POPC   NC331477   7.762  -3.646  10.929
11414POPC   PO431478   7.735  -3.844  10.941
11414POPC   GL131479   7.708  -4.042  10.953
11414POPC   GL231480   7.806  -4.056  10.938
11414POPC   C1A31481   7.681  -4.240  10.966
11414POPC   D2A31482   7.653  -4.437  10.978
11414POPC   C3A31483   7.626  -4.635  10.991
11414POPC   C4A31484   7.599  -4.833  11.003
11414POPC   C1B31485   7.648  -4.248  10.769
11414POPC   C2B31486   7.621  -4.445  10.781
11414POPC   C3B31487   7.594  -4.643  10.793
11414POPC   C4B31488   7.567  -4.841  10.806
11415POPC   NC331489   4.477  16.956  -0.824
11415POPC   PO431490   4.398  17.048  -0.983
11415POPC   GL131491   4.319  17.140  -1.142
11415POPC   GL231492   4.411  17.149  -1.182
11415POPC   C1A31493   4.241  17.233  -1.301
11415POPC   D2A31494   4.162  17.325  -1.460
11415POPC   C3A31495   4.084  17.418  -1.619
11415POPC   C4A31496   4.005  17.510  -1.778
11415POPC   C1B31497   4.264  17.409  -1.210
11415POPC   C2B31498   4.186  17.502  -1.369
11415POPC   C3B31499   4.107  17.594  -1.528
11415POPC   C4B31500   4.029  17.687  -1.687
11416POPC   NC331501   0.045   1.683   4.670
11416POPC   PO431502  -0.099   1.563   4.600
11416POPC   GL131503  -0.243   1.443   4.530
11416POPC   GL231504  -0.188   1.363   4.554
11416POPC   C1A31505  -0.387   1.323   4.461
11416POPC   D2A31506  -0.532   1.203   4.391
11416POPC   C3A31507  -0.676   1.083   4.322
11416POPC   C4A31508  -0.820   0.963   4.252
11416POPC   C1B31509  -0.304   1.328   4.279
11416POPC   C2B31510  -0.448   1.208   4.210
11416POPC   C3B31511  -0.592   1.088   4.140
11416POPC   C4B31512  -0.736   0.968   4.070
11417POPC   NC331513  -1.504  17.940  10.494
11417POPC   PO431514  -1.666  18.057  10.508
11417POPC   GL131515  -1.828  18.174  10.522
11417POPC   GL231516  -1.812  18.183  10.621
11417POPC   C1A31517  -1.989  18.291  10.536
11417POPC   D2A31518  -2.151  18.408  10.551
11417POPC   C3A31519  -2.312  18.525  10.565
11417POPC   C4A31520  -2.474  18.642  10.579
11417POPC   C1B31521  -2.103  18.130  10.569
11417POPC   C2B31522  -2.265  18.247  10.583
11417POPC   C3B31523  -2.426  18.364  10.597
11417POPC   C4B31524  -2.588  18.481  10.611
11418POPC   NC331525   0.440  18.653   4.650
11418POPC   PO431526   0.309  18.783   4.573
11418POPC   GL131527   0.178  18.913   4.496
11418POPC   GL231528   0.127  18.913   4.582
11418POPC   C1A31529   0.047  19.043   4.419
11418POPC   D2A31530  -0.083  19.174   4.342
11418POPC   C3A31531  -0.214  19.304   4.265
11418POPC   C4A31532  -0.345  19.434   4.188
11418POPC   C1B31533  -0.064  18.892   4.351
11418POPC   C2B31534  -0.195  19.022   4.274
11418POPC   C3B31535  -0.325  19.152   4.197
11418POPC   C4B31536  -0.456  19.282   4.120
11419POPC   NC331537  19.905   1.924   4.775
11419POPC   PO431538  20.050   1.808   4.701
11419POPC   GL131539  20.195   1.692   4.627
11419POPC   GL231540  20.258   1.769   4.630
11419POPC   C1A31541  20.340   1.575   4.553
11419POPC   D2A31542  20.484   1.459   4.479
11419POPC   C3A31543  20.629   1.342   4.405
11419POPC   C4A31544  20.774   1.226   4.331
11419POPC   C1B31545  20.286   1.627   4.367
11419POPC   C2B31546  20.431   1.510   4.293
11419POPC   C3B31547  20.576   1.394   4.219
11419POPC   C4B31548  20.720   1.278   4.145
11420POPC   NC331549  11.069  12.190  23.559
11420POPC   PO431550  11.088  12.227  23.755
11420POPC   GL131551  11.107  12.264  23.951
11420POPC   GL231552  11.166  12.185  23.960
11420POPC   C1A31553  11.125  12.302  24.146
11420POPC   D2A31554  11.144  12.339  24.342
11420POPC   C3A31555  11.162  12.377  24.537
11420POPC   C4A31556  11.181  12.414  24.733
11420POPC   C1B31557  10.966  12.187  24.183
11420POPC   C2B31558  10.984  12.225  24.379
11420POPC   C3B31559  11.003  12.262  24.574
11420POPC   C4B31560  11.021  12.299  24.770
11421POPC   NC331561  16.079  22.179  11.856
11421POPC   PO431562  16.163  22.360  11.869
11421POPC   GL131563  16.247  22.541  11.882
11421POPC   GL231564  16.303  22.510  11.958
11421POPC   C1A31565  16.331  22.722  11.894
11421POPC   D2A31566  16.415  22.903  11.907
11421POPC   C3A31567  16.499  23.084  11.919
11421POPC   C4A31568  16.583  23.265  11.932
11421POPC   C1B31569  16.188  22.779  12.022
11421POPC   C2B31570  16.272  22.960  12.035
11421POPC   C3B31571  16.356  23.141  12.047
11421POPC   C4B31572  16.440  23.322  12.060
11422POPC   NC331573  21.773  10.601   2.960
11422POPC   PO431574  21.942  10.609   2.854
11422POPC   GL131575  22.111  10.617   2.748
11422POPC   GL231576  22.095  10.714   2.729
11422POPC   C1A31577  22.280  10.624   2.641
11422POPC   D2A31578  22.450  10.632   2.535
11422POPC   C3A31579  22.619  10.639   2.428
11422POPC   C4A31580  22.788  10.647   2.322
11422POPC   C1B31581  22.179  10.576   2.476
11422POPC   C2B31582  22.348  10.583   2.370
11422POPC   C3B31583  22.517  10.591   2.263
11422POPC   C4B31584  22.686  10.599   2.157
11423POPC   NC331585   5.637  21.818   4.064
11423POPC   PO431586   5.572  21.984   3.974
11423POPC   GL131587   5.507  22.150   3.884
11423POPC   GL231588   5.553  22.206   3.953
11423POPC   C1A31589   5.442  22.317   3.794
11423POPC   D2A31590   5.378  22.483   3.704
11423POPC   C3A31591   5.313  22.650   3.614
11423POPC   C4A31592   5.248  22.816   3.524
11423POPC   C1B31593   5.277  22.313   3.906
11423POPC   C2B31594   5.212  22.480   3.816
11423POPC   C3B31595   5.147  22.646   3.726
11423POPC   C4B31596   5.083  22.813   3.636
11424POPC   NC331597  21.934  16.390   8.054
11424POPC   PO431598  22.109  16.483   8.025
11424POPC   GL131599  22.284  16.576   7.996
11424POPC   GL231600  22.292  16.532   7.906
11424POPC   C1A31601  22.459  16.668   7.967
11424POPC   D2A31602  22.634  16.761   7.939
11424POPC   C3A31603  22.809  16.853   7.910
11424POPC   C4A31604  22.984  16.946   7.881
11424POPC   C1B31605  22.555  16.513   8.051
11424POPC   C2B31606  22.730  16.606   8.022
11424POPC   C3B31607  22.905  16.699   7.993
11424POPC   C4B31608  23.080  16.791   7.964
11425POPC   NC331609  19.052  18.761   4.534
11425POPC   PO431610  19.181  18.889   4.451
11425POPC   GL131611  19.310  19.017   4.368
11425POPC   GL231612  19.360  18.940   4.327
11425POPC   C1A31613  19.440  19.144   4.284
11425POPC   D2A31614  19.569  19.272   4.201
11425POPC   C3A31615  19.699  19.399   4.117
11425POPC   C4A31616  19.828  19.527   4.034
11425POPC   C1B31617  19.556  19.133   4.447
11425POPC   C2B31618  19.685  19.260   4.363
11425POPC   C3B31619  19.815  19.388   4.280
11425POPC   C4B31620  19.944  19.515   4.197
11426CHOL   ROH31621   5.171   2.350  -0.876
11426CHOL    R131622   5.108   2.263  -0.995
11426CHOL    R231623   5.048   2.040  -0.961
11426CHOL    R331624   5.038   2.165  -1.128
11426CHOL    R431625   4.993   1.964  -1.065
11426CHOL    R531626   4.976   2.077  -1.247
11426CHOL    C131627   4.882   1.947  -1.425
11426CHOL    C231628   4.788   1.816  -1.603
11427CHOL   ROH31629  -0.158   8.176  19.626
11427CHOL    R131630  -0.271   8.156  19.737
11427CHOL    R231631  -0.248   8.247  19.951
11427CHOL    R331632  -0.399   8.133  19.862
11427CHOL    R431633  -0.347   8.229  20.048
11427CHOL    R531634  -0.513   8.113  19.973
11427CHOL    C131635  -0.683   8.083  20.140
11427CHOL    C231636  -0.853   8.053  20.306
11428CHOL   ROH31637  17.188  -1.969  10.585
11428CHOL    R131638  17.270  -2.106  10.595
11428CHOL    R231639  17.459  -2.142  10.462
11428CHOL    R331640  17.363  -2.260  10.606
11428CHOL    R431641  17.531  -2.262  10.471
11428CHOL    R531642  17.445  -2.397  10.616
11428CHOL    C131643  17.569  -2.602  10.630
11428CHOL    C231644  17.693  -2.807  10.645
11429CHOL   ROH31645  11.883  23.886  10.080
11429CHOL    R131646  11.903  24.045  10.082
11429CHOL    R231647  11.987  24.153  10.271
11429CHOL    R331648  11.927  24.223  10.084
11429CHOL    R431649  12.005  24.291  10.273
11429CHOL    R531650  11.947  24.382  10.086
11429CHOL    C131651  11.978  24.620  10.090
11429CHOL    C231652  12.008  24.858  10.093
11430CHOL   ROH31653   5.613  23.415  10.497
11430CHOL    R131654   5.563  23.567  10.505
11430CHOL    R231655   5.605  23.698  10.693
11430CHOL    R331656   5.506  23.737  10.513
11430CHOL    R431657   5.561  23.831  10.700
11430CHOL    R531658   5.456  23.889  10.521
11430CHOL    C131659   5.380  24.117  10.533
11430CHOL    C231660   5.304  24.344  10.544
11431CHOL   ROH31661   8.033   6.006  23.208
11431CHOL    R131662   8.009   5.956  23.358
11431CHOL    R231663   8.178   5.846  23.476
11431CHOL    R331664   7.983   5.900  23.527
11431CHOL    R431665   8.157   5.802  23.607
11431CHOL    R531666   7.959   5.850  23.677
11431CHOL    C131667   7.923   5.775  23.902
11431CHOL    C231668   7.888   5.700  24.127
11432CHOL   ROH31669  -2.924   8.939  15.654
11432CHOL    R131670  -3.069   8.930  15.720
11432CHOL    R231671  -3.104   8.987  15.943
11432CHOL    R331672  -3.233   8.920  15.794
11432CHOL    R431673  -3.231   8.980  16.001
11432CHOL    R531674  -3.379   8.912  15.860
11432CHOL    C131675  -3.597   8.898  15.959
11432CHOL    C231676  -3.815   8.885  16.058
11433CHOL   ROH31677  21.018   9.380   1.504
11433CHOL    R131678  21.146   9.378   1.409
11433CHOL    R231679  21.169   9.219   1.240
11433CHOL    R331680  21.291   9.377   1.301
11433CHOL    R431681  21.281   9.218   1.156
11433CHOL    R531682  21.420   9.375   1.206
11433CHOL    C131683  21.612   9.373   1.063
11433CHOL    C231684  21.805   9.370   0.920
11434CHOL   ROH31685  12.357  -3.838   8.601
11434CHOL    R131686  12.385  -3.995   8.587
11434CHOL    R231687  12.477  -4.116   8.764
11434CHOL    R331688  12.417  -4.172   8.572
11434CHOL    R431689  12.502  -4.254   8.752
11434CHOL    R531690  12.445  -4.328   8.558
11434CHOL    C131691  12.487  -4.564   8.537
11434CHOL    C231692  12.529  -4.799   8.517
11435CHOL   ROH31693   7.192  23.202   5.786
11435CHOL    R131694   7.166  23.353   5.739
11435CHOL    R231695   7.340  23.484   5.656
11435CHOL    R331696   7.137  23.522   5.686
11435CHOL    R431697   7.317  23.616   5.615
11435CHOL    R531698   7.110  23.673   5.639
11435CHOL    C131699   7.071  23.899   5.568
11435CHOL    C231700   7.032  24.125   5.498
11436CHOL   ROH31701  -3.605   7.191   6.837
11436CHOL    R131702  -3.758   7.159   6.801
11436CHOL    R231703  -3.931   7.239   6.935
11436CHOL    R331704  -3.929   7.124   6.761
11436CHOL    R431705  -4.065   7.211   6.904
11436CHOL    R531706  -4.082   7.092   6.725
11436CHOL    C131707  -4.311   7.044   6.671
11436CHOL    C231708  -4.540   6.997   6.617
11437CHOL   ROH31709  12.382  -2.649   4.203
11437CHOL    R131710  12.413  -2.791   4.136
11437CHOL    R231711  12.542  -2.807   3.942
11437CHOL    R331712  12.447  -2.951   4.060
11437CHOL    R431713  12.569  -2.931   3.883
11437CHOL    R531714  12.478  -3.093   3.993
11437CHOL    C131715  12.524  -3.305   3.892
11437CHOL    C231716  12.570  -3.518   3.791
11438CHOL   ROH31717  17.528   3.238   0.320
11438CHOL    R131718  17.622   3.164   0.213
11438CHOL    R231719  17.536   3.093   0.008
11438CHOL    R331720  17.727   3.082   0.093
11438CHOL    R431721  17.618   3.028  -0.085
11438CHOL    R531722  17.821   3.008  -0.013
11438CHOL    C131723  17.961   2.898  -0.174
11438CHOL    C231724  18.101   2.787  -0.334
11439CHOL   ROH31725   5.593  23.099   6.916
11439CHOL    R131726   5.541  23.247   6.883
11439CHOL    R231727   5.439  23.377   7.048
11439CHOL    R331728   5.482  23.413   6.847
11439CHOL    R431729   5.393  23.506   7.019
11439CHOL    R531730   5.429  23.560   6.814
11439CHOL    C131731   5.351  23.782   6.765
11439CHOL    C231732   5.273  24.004   6.716
11440CHOL   ROH31733   1.835   0.899   2.818
11440CHOL    R131734   1.751   0.798   2.727
11440CHOL    R231735   1.814   0.574   2.708
11440CHOL    R331736   1.656   0.683   2.626
11440CHOL    R431737   1.740   0.485   2.628
11440CHOL    R531738   1.572   0.582   2.535
11440CHOL    C131739   1.446   0.430   2.399
11440CHOL    C231740   1.320   0.278   2.263
11441CHOL   ROH31741  10.931  14.591  -3.273
11441CHOL    R131742  10.945  14.644  -3.423
11441CHOL    R231743  11.137  14.602  -3.549
11441CHOL    R331744  10.960  14.705  -3.592
11441CHOL    R431745  11.149  14.649  -3.680
11441CHOL    R531746  10.974  14.758  -3.743
11441CHOL    C131747  10.995  14.838  -3.968
11441CHOL    C231748  11.015  14.918  -4.193
11442CHOL   ROH31749   2.378   2.629  19.225
11442CHOL    R131750   2.290   2.549  19.332
11442CHOL    R231751   2.377   2.492  19.541
11442CHOL    R331752   2.191   2.459  19.452
11442CHOL    R431753   2.300   2.422  19.634
11442CHOL    R531754   2.103   2.379  19.560
11442CHOL    C131755   1.971   2.259  19.720
11442CHOL    C231756   1.839   2.139  19.881
11443CHOL   ROH31757  20.009   3.152   3.044
11443CHOL    R131758  20.122   3.076   2.960
11443CHOL    R231759  20.335   3.166   2.936
11443CHOL    R331760  20.249   2.989   2.866
11443CHOL    R431761  20.434   3.099   2.863
11443CHOL    R531762  20.361   2.913   2.782
11443CHOL    C131763  20.531   2.798   2.656
11443CHOL    C231764  20.700   2.684   2.530
11444CHOL   ROH31765  22.563  11.048  15.883
11444CHOL    R131766  22.707  11.062  15.950
11444CHOL    R231767  22.884  10.923  15.887
11444CHOL    R331768  22.870  11.079  16.026
11444CHOL    R431769  23.010  10.936  15.946
11444CHOL    R531770  23.014  11.093  16.093
11444CHOL    C131771  23.230  11.115  16.195
11444CHOL    C231772  23.447  11.136  16.296
11445CHOL   ROH31773  13.298  15.987  -2.272
11445CHOL    R131774  13.335  16.055  -2.412
11445CHOL    R231775  13.554  16.054  -2.492
11445CHOL    R331776  13.376  16.132  -2.570
11445CHOL    R431777  13.586  16.114  -2.615
11445CHOL    R531778  13.412  16.200  -2.710
11445CHOL    C131779  13.467  16.302  -2.920
11445CHOL    C231780  13.522  16.404  -3.130
11446CHOL   ROH31781  -0.841  17.801  14.598
11446CHOL    R131782  -0.964  17.890  14.649
11446CHOL    R231783  -0.987  18.112  14.582
11446CHOL    R331784  -1.102  17.989  14.706
11446CHOL    R431785  -1.095  18.189  14.627
11446CHOL    R531786  -1.226  18.078  14.757
11446CHOL    C131787  -1.410  18.211  14.833
11446CHOL    C231788  -1.595  18.344  14.910
11447CHOL   ROH31789  23.119   7.894   5.805
11447CHOL    R131790  23.272   7.872   5.763
11447CHOL    R231791  23.338   7.684   5.642
11447CHOL    R331792  23.444   7.848   5.716
11447CHOL    R431793  23.472   7.666   5.605
11447CHOL    R531794  23.597   7.827   5.674
11447CHOL    C131795  23.826   7.794   5.611
11447CHOL    C231796  24.056   7.762   5.548
11448CHOL   ROH31797  12.361  17.373  21.608
11448CHOL    R131798  12.389  17.453  21.744
11448CHOL    R231799  12.591  17.566  21.777
11448CHOL    R331800  12.421  17.544  21.896
11448CHOL    R431801  12.615  17.636  21.895
11448CHOL    R531802  12.449  17.624  22.031
11448CHOL    C131803  12.491  17.744  22.235
11448CHOL    C231804  12.533  17.865  22.438
11449CHOL   ROH31805  22.509  12.875   4.451
11449CHOL    R131806  22.652  12.906   4.385
11449CHOL    R231807  22.670  12.959   4.159
11449CHOL    R331808  22.812  12.940   4.311
11449CHOL    R431809  22.795  12.986   4.101
11449CHOL    R531810  22.954  12.970   4.244
11449CHOL    C131811  23.168  13.016   4.145
11449CHOL    C231812  23.382  13.062   4.046
11450CHOL   ROH31813   5.661  18.117  -0.816
11450CHOL    R131814   5.616  18.210  -0.938
11450CHOL    R231815   5.745  18.224  -1.132
11450CHOL    R331816   5.566  18.315  -1.076
11450CHOL    R431817   5.706  18.305  -1.239
11450CHOL    R531818   5.521  18.408  -1.198
11450CHOL    C131819   5.454  18.547  -1.381
11450CHOL    C231820   5.387  18.686  -1.565
11451CHOL   ROH31821   4.281   9.087  -2.951
11451CHOL    R131822   4.217   9.078  -3.098
11451CHOL    R231823   4.110   8.884  -3.170
11451CHOL    R331824   4.146   9.068  -3.262
11451CHOL    R431825   4.055   8.876  -3.299
11451CHOL    R531826   4.083   9.059  -3.409
11451CHOL    C131827   3.987   9.046  -3.629
11451CHOL    C231828   3.892   9.033  -3.849
11452CHOL   ROH31829   7.223   7.632  23.513
11452CHOL    R131830   7.194   7.604  23.668
11452CHOL    R231831   7.369   7.567  23.818
11452CHOL    R331832   7.161   7.572  23.842
11452CHOL    R431833   7.344   7.542  23.953
11452CHOL    R531834   7.133   7.544  23.997
11452CHOL    C131835   7.089   7.501  24.229
11452CHOL    C231836   7.046   7.459  24.461
11453CHOL   ROH31837  11.125  23.848  11.711
11453CHOL    R131838  11.139  24.006  11.732
11453CHOL    R231839  11.332  24.119  11.665
11453CHOL    R331840  11.155  24.184  11.756
11453CHOL    R431841  11.344  24.257  11.684
11453CHOL    R531842  11.169  24.341  11.777
11453CHOL    C131843  11.190  24.578  11.809
11453CHOL    C231844  11.211  24.815  11.840
11454CHOL   ROH31845  22.127   8.893  16.648
11454CHOL    R131846  22.265   8.877  16.728
11454CHOL    R231847  22.464   8.831  16.616
11454CHOL    R331848  22.419   8.858  16.818
11454CHOL    R431849  22.584   8.816  16.686
11454CHOL    R531850  22.557   8.842  16.898
11454CHOL    C131851  22.763   8.817  17.018
11454CHOL    C231852  22.970   8.792  17.138
11455CHOL   ROH31853  17.969   1.572   2.140
11455CHOL    R131854  18.064   1.479   2.051
11455CHOL    R231855  17.992   1.398   1.844
11455CHOL    R331856  18.170   1.374   1.951
11455CHOL    R431857  18.075   1.317   1.766
11455CHOL    R531858  18.265   1.281   1.862
11455CHOL    C131859  18.407   1.141   1.728
11455CHOL    C231860  18.549   1.002   1.594
11456CHOL   ROH31861  10.997  23.926   8.664
11456CHOL    R131862  11.008  24.085   8.650
11456CHOL    R231863  11.197  24.199   8.726
11456CHOL    R331864  11.021  24.264   8.634
11456CHOL    R431865  11.207  24.338   8.713
11456CHOL    R531866  11.032  24.423   8.620
11456CHOL    C131867  11.050  24.662   8.599
11456CHOL    C231868  11.067  24.900   8.578
11457CHOL   ROH31869  11.562  12.351  -3.823
11457CHOL    R131870  11.581  12.382  -3.979
11457CHOL    R231871  11.536  12.219  -4.140
11457CHOL    R331872  11.603  12.417  -4.154
11457CHOL    R431873  11.552  12.246  -4.276
11457CHOL    R531874  11.622  12.447  -4.310
11457CHOL    C131875  11.651  12.494  -4.544
11457CHOL    C231876  11.680  12.540  -4.778
11458CHOL   ROH31877   3.385  16.729  20.399
11458CHOL    R131878   3.305  16.802  20.517
11458CHOL    R231879   3.358  16.762  20.740
11458CHOL    R331880   3.216  16.885  20.649
11458CHOL    R431881   3.288  16.826  20.844
11458CHOL    R531882   3.136  16.959  20.767
11458CHOL    C131883   3.016  17.069  20.944
11458CHOL    C231884   2.897  17.179  21.120
11459CHOL   ROH31885   4.975  23.109  11.304
11459CHOL    R131886   4.916  23.257  11.323
11459CHOL    R231887   5.055  23.443  11.308
11459CHOL    R331888   4.851  23.423  11.343
11459CHOL    R431889   5.004  23.573  11.324
11459CHOL    R531890   4.792  23.570  11.362
11459CHOL    C131891   4.704  23.792  11.390
11459CHOL    C231892   4.616  24.014  11.418
11460CHOL   ROH31893  12.506  -0.925   1.488
11460CHOL    R131894  12.539  -1.048   1.391
11460CHOL    R231895  12.525  -1.024   1.159
11460CHOL    R331896  12.576  -1.185   1.281
11460CHOL    R431897  12.554  -1.131   1.074
11460CHOL    R531898  12.609  -1.308   1.184
11460CHOL    C131899  12.659  -1.492   1.037
11460CHOL    C231900  12.709  -1.676   0.891
11461CHOL   ROH31901   9.237   1.032  20.768
11461CHOL    R131902   9.233   0.929  20.891
11461CHOL    R231903   9.406   0.922  21.047
11461CHOL    R331904   9.229   0.814  21.029
11461CHOL    R431905   9.403   0.833  21.154
11461CHOL    R531906   9.225   0.712  21.152
11461CHOL    C131907   9.219   0.558  21.336
11461CHOL    C231908   9.213   0.404  21.520
11462CHOL   ROH31909  -2.666  13.012   4.442
11462CHOL    R131910  -2.810  13.049   4.384
11462CHOL    R231911  -2.962  13.174   4.510
11462CHOL    R331912  -2.973  13.092   4.319
11462CHOL    R431913  -3.088  13.207   4.460
11462CHOL    R531914  -3.117  13.129   4.261
11462CHOL    C131915  -3.333  13.185   4.174
11462CHOL    C231916  -3.550  13.241   4.087
11463CHOL   ROH31917  21.211   3.504  15.225
11463CHOL    R131918  21.341   3.430  15.282
11463CHOL    R231919  21.512   3.550  15.385
11463CHOL    R331920  21.487   3.346  15.346
11463CHOL    R431921  21.625   3.485  15.435
11463CHOL    R531922  21.617   3.272  15.404
11463CHOL    C131923  21.811   3.161  15.489
11463CHOL    C231924  22.006   3.049  15.575
11464CHOL   ROH31925  20.550   1.129  12.085
11464CHOL    R131926  20.670   1.028  12.115
11464CHOL    R231927  20.788   0.926  11.942
11464CHOL    R331928  20.806   0.914  12.150
11464CHOL    R431929  20.893   0.838  11.968
11464CHOL    R531930  20.926   0.814  12.180
11464CHOL    C131931  21.106   0.662  12.226
11464CHOL    C231932  21.287   0.511  12.271
11465CHOL   ROH31933  -1.116   6.336  17.988
11465CHOL    R131934  -1.237   6.296  18.085
11465CHOL    R231935  -1.240   6.365  18.308
11465CHOL    R331936  -1.372   6.250  18.194
11465CHOL    R431937  -1.345   6.330  18.393
11465CHOL    R531938  -1.493   6.210  18.291
11465CHOL    C131939  -1.674   6.150  18.436
11465CHOL    C231940  -1.855   6.089  18.582
11466CHOL   ROH31941  -1.747  10.482   2.001
11466CHOL    R131942  -1.877  10.484   1.908
11466CHOL    R231943  -1.990  10.286   1.856
11466CHOL    R331944  -2.023  10.485   1.802
11466CHOL    R431945  -2.104  10.288   1.775
11466CHOL    R531946  -2.152  10.487   1.709
11466CHOL    C131947  -2.347  10.489   1.569
11466CHOL    C231948  -2.542  10.492   1.429
11467CHOL   ROH31949   9.106  10.101  -4.094
11467CHOL    R131950   9.096  10.101  -4.254
11467CHOL    R231951   8.890  10.085  -4.361
11467CHOL    R331952   9.085  10.101  -4.433
11467CHOL    R431953   8.881  10.085  -4.501
11467CHOL    R531954   9.075  10.100  -4.593
11467CHOL    C131955   9.060  10.100  -4.833
11467CHOL    C231956   9.045  10.100  -5.072
11468CHOL   ROH31957   8.110  -3.890   9.033
11468CHOL    R131958   8.092  -4.049   9.024
11468CHOL    R231959   8.056  -4.177   9.216
11468CHOL    R331960   8.071  -4.227   9.014
11468CHOL    R431961   8.040  -4.315   9.208
11468CHOL    R531962   8.053  -4.386   9.004
11468CHOL    C131963   8.025  -4.624   8.991
11468CHOL    C231964   7.997  -4.862   8.977
11469CHOL   ROH31965  10.076   1.703  -1.417
11469CHOL    R131966  10.083   1.611  -1.547
11469CHOL    R231967  10.278   1.496  -1.603
11469CHOL    R331968  10.091   1.506  -1.694
11469CHOL    R431969  10.284   1.415  -1.717
11469CHOL    R531970  10.097   1.414  -1.824
11469CHOL    C131971  10.108   1.275  -2.020
11469CHOL    C231972  10.118   1.137  -2.216
11470CHOL   ROH31973   3.732  22.015   6.243
11470CHOL    R131974   3.655  22.149   6.202
11470CHOL    R231975   3.770  22.349   6.172
11470CHOL    R331976   3.568  22.300   6.155
11470CHOL    R431977   3.703  22.467   6.135
11470CHOL    R531978   3.491  22.433   6.114
11470CHOL    C131979   3.375  22.634   6.052
11470CHOL    C231980   3.260  22.835   5.990
11471CHOL   ROH31981   9.261   5.084  23.028
11471CHOL    R131982   9.249   5.028  23.177
11471CHOL    R231983   9.325   4.814  23.231
11471CHOL    R331984   9.235   4.965  23.345
11471CHOL    R431985   9.315   4.765  23.362
11471CHOL    R531986   9.223   4.908  23.495
11471CHOL    C131987   9.205   4.824  23.718
11471CHOL    C231988   9.187   4.740  23.942
11472CHOL   ROH31989  17.665  15.766  -0.223
11472CHOL    R131990  17.751  15.831  -0.341
11472CHOL    R231991  17.980  15.791  -0.360
11472CHOL    R331992  17.847  15.905  -0.474
11472CHOL    R431993  18.055  15.848  -0.463
11472CHOL    R531994  17.933  15.970  -0.592
11472CHOL    C131995  18.062  16.068  -0.770
11472CHOL    C231996  18.190  16.166  -0.947
11473CHOL   ROH31997   3.216  -1.896  13.488
11473CHOL    R131998   3.140  -2.032  13.526
11473CHOL    R231999   3.250  -2.238  13.513
11473CHOL    R332000   3.056  -2.185  13.569
11473CHOL    R432001   3.184  -2.356  13.546
11473CHOL    R532002   2.980  -2.320  13.607
11473CHOL    C132003   2.867  -2.524  13.664
11473CHOL    C232004   2.753  -2.728  13.721
11474CHOL   ROH32005   8.149  18.323  21.105
11474CHOL    R132006   8.127  18.422  21.229
11474CHOL    R232007   8.245  18.622  21.245
11474CHOL    R332008   8.102  18.533  21.368
11474CHOL    R432009   8.226  18.709  21.353
11474CHOL    R532010   8.079  18.632  21.491
11474CHOL    C132011   8.046  18.781  21.677
11474CHOL    C232012   8.013  18.930  21.863
11475CHOL   ROH32013   8.394   1.249  -1.018
11475CHOL    R132014   8.376   1.147  -1.140
11475CHOL    R232015   8.502   0.951  -1.152
11475CHOL    R332016   8.356   1.032  -1.277
11475CHOL    R432017   8.487   0.862  -1.259
11475CHOL    R532018   8.338   0.930  -1.399
11475CHOL    C132019   8.311   0.778  -1.582
11475CHOL    C232020   8.284   0.625  -1.765
11476CHOL   ROH32021  15.629  11.373  -2.795
11476CHOL    R132022  15.699  11.383  -2.939
11476CHOL    R232023  15.651  11.228  -3.106
11476CHOL    R332024  15.777  11.395  -3.100
11476CHOL    R432025  15.712  11.237  -3.232
11476CHOL    R532026  15.847  11.405  -3.244
11476CHOL    C132027  15.951  11.421  -3.460
11476CHOL    C232028  16.055  11.437  -3.675
11477CHOL   ROH32029   7.019  -2.843   5.006
11477CHOL    R132030   6.987  -2.989   4.949
11477CHOL    R232031   7.124  -3.089   4.789
11477CHOL    R332032   6.951  -3.154   4.886
11477CHOL    R432033   7.096  -3.217   4.740
11477CHOL    R532034   6.919  -3.300   4.829
11477CHOL    C132035   6.870  -3.519   4.744
11477CHOL    C232036   6.822  -3.739   4.659
11478CHOL   ROH32037   3.798  -2.087  13.876
11478CHOL    R132038   3.729  -2.225  13.919
11478CHOL    R232039   3.838  -2.429  13.886
11478CHOL    R332040   3.652  -2.380  13.968
11478CHOL    R432041   3.778  -2.549  13.924
11478CHOL    R532042   3.583  -2.518  14.012
11478CHOL    C132043   3.481  -2.725  14.077
11478CHOL    C232044   3.378  -2.932  14.142
11479CHOL   ROH32045  -2.374  12.755  16.334
11479CHOL    R132046  -2.513  12.785  16.407
11479CHOL    R232047  -2.518  12.887  16.618
11479CHOL    R332048  -2.669  12.820  16.490
11479CHOL    R432049  -2.639  12.913  16.682
11479CHOL    R532050  -2.808  12.850  16.564
11479CHOL    C132051  -3.016  12.896  16.674
11479CHOL    C232052  -3.225  12.941  16.784
11480CHOL   ROH32053  -1.067   3.471   3.767
11480CHOL    R132054  -1.191   3.394   3.701
11480CHOL    R232055  -1.176   3.168   3.646
11480CHOL    R332056  -1.330   3.307   3.627
11480CHOL    R432057  -1.284   3.101   3.588
11480CHOL    R532058  -1.454   3.230   3.562
11480CHOL    C132059  -1.640   3.115   3.463
11480CHOL    C232060  -1.826   3.000   3.364
11481CHOL   ROH32061   8.559  23.346   5.642
11481CHOL    R132062   8.546  23.498   5.595
11481CHOL    R232063   8.682  23.584   5.426
11481CHOL    R332064   8.532  23.670   5.543
11481CHOL    R432065   8.671  23.717   5.385
11481CHOL    R532066   8.519  23.822   5.496
11481CHOL    C132067   8.500  24.051   5.426
11481CHOL    C232068   8.481  24.280   5.356
11482CHOL   ROH32069  11.541  -1.857   2.540
11482CHOL    R132070  11.559  -1.991   2.455
11482CHOL    R232071  11.679  -2.172   2.540
11482CHOL    R332072  11.580  -2.142   2.359
11482CHOL    R432073  11.695  -2.290   2.466
11482CHOL    R532074  11.598  -2.276   2.274
11482CHOL    C132075  11.625  -2.478   2.146
11482CHOL    C232076  11.653  -2.679   2.019
11483CHOL   ROH32077   4.884  21.854  15.569
11483CHOL    R132078   4.826  21.989  15.632
11483CHOL    R232079   4.774  22.004  15.858
11483CHOL    R332080   4.761  22.142  15.702
11483CHOL    R432081   4.723  22.123  15.913
11483CHOL    R532082   4.703  22.277  15.765
11483CHOL    C132083   4.616  22.480  15.858
11483CHOL    C232084   4.529  22.683  15.952
11484CHOL   ROH32085  13.492  23.188   6.977
11484CHOL    R132086  13.533  23.338   6.939
11484CHOL    R232087  13.730  23.382   6.822
11484CHOL    R332088  13.579  23.506   6.895
11484CHOL    R432089  13.766  23.513   6.788
11484CHOL    R532090  13.620  23.656   6.857
11484CHOL    C132091  13.682  23.881   6.799
11484CHOL    C232092  13.744  24.105   6.742
11485CHOL   ROH32093   4.067   3.272  -0.917
11485CHOL    R132094   3.997   3.191  -1.036
11485CHOL    R232095   3.878   2.995  -0.994
11485CHOL    R332096   3.918   3.100  -1.170
11485CHOL    R432097   3.817   2.924  -1.098
11485CHOL    R532098   3.847   3.020  -1.288
11485CHOL    C132099   3.742   2.898  -1.467
11485CHOL    C232100   3.637   2.777  -1.645
11486CHOL   ROH32101  20.005   8.690   0.295
11486CHOL    R132102  20.122   8.680   0.187
11486CHOL    R232103  20.163   8.856   0.038
11486CHOL    R332104  20.254   8.670   0.065
11486CHOL    R432105  20.266   8.847  -0.056
11486CHOL    R532106  20.372   8.660  -0.043
11486CHOL    C132107  20.547   8.646  -0.206
11486CHOL    C232108  20.723   8.631  -0.368
11487CHOL   ROH32109   0.790   1.282   3.527
11487CHOL    R132110   0.689   1.184   3.452
11487CHOL    R232111   0.701   0.953   3.481
11487CHOL    R332112   0.574   1.073   3.367
11487CHOL    R432113   0.613   0.867   3.415
11487CHOL    R532114   0.473   0.975   3.292
11487CHOL    C132115   0.321   0.828   3.179
11487CHOL    C232116   0.169   0.680   3.066
11488CHOL   ROH32117  17.108   7.748  -1.836
11488CHOL    R132118  17.188   7.723  -1.972
11488CHOL    R232119  17.215   7.893  -2.129
11488CHOL    R332120  17.277   7.694  -2.126
11488CHOL    R432121  17.284   7.871  -2.248
11488CHOL    R532122  17.357   7.668  -2.262
11488CHOL    C132123  17.477   7.630  -2.466
11488CHOL    C232124  17.596   7.592  -2.671
11489CHOL   ROH32125  -1.546   7.355  17.770
11489CHOL    R132126  -1.674   7.330  17.863
11489CHOL    R232127  -1.689   7.428  18.074
11489CHOL    R332128  -1.817   7.301  17.969
11489CHOL    R432129  -1.801   7.406  18.156
11489CHOL    R532130  -1.945   7.276  18.062
11489CHOL    C132131  -2.136   7.238  18.202
11489CHOL    C232132  -2.327   7.200  18.342
11490CHOL   ROH32133   8.283  14.888  23.021
11490CHOL    R132134   8.270  14.937  23.173
11490CHOL    R232135   8.397  14.840  23.342
11490CHOL    R332136   8.255  14.993  23.343
11490CHOL    R432137   8.386  14.883  23.475
11490CHOL    R532138   8.242  15.042  23.495
11490CHOL    C132139   8.222  15.116  23.723
11490CHOL    C232140   8.203  15.190  23.950
11491CHOL   ROH32141  -3.221  14.508   7.679
11491CHOL    R132142  -3.370  14.557   7.647
11491CHOL    R232143  -3.487  14.692   7.797
11491CHOL    R332144  -3.537  14.613   7.611
11491CHOL    R432145  -3.617  14.735   7.769
11491CHOL    R532146  -3.686  14.662   7.579
11491CHOL    C132147  -3.909  14.736   7.531
11491CHOL    C232148  -4.132  14.810   7.483
11492CHOL   ROH32149   7.146   0.113  19.590
11492CHOL    R132150   7.115  -0.002  19.697
11492CHOL    R232151   7.090   0.049  19.924
11492CHOL    R332152   7.080  -0.131  19.818
11492CHOL    R432153   7.063  -0.051  20.017
11492CHOL    R532154   7.049  -0.246  19.925
11492CHOL    C132155   7.003  -0.418  20.086
11492CHOL    C232156   6.957  -0.590  20.247
11493CHOL   ROH32157  21.432  16.698   5.807
11493CHOL    R132158  21.564  16.778   5.764
11493CHOL    R232159  21.630  16.791   5.541
11493CHOL    R332160  21.712  16.868   5.717
11493CHOL    R432161  21.745  16.861   5.504
11493CHOL    R532162  21.844  16.948   5.674
11493CHOL    C132163  22.041  17.069   5.610
11493CHOL    C232164  22.239  17.189   5.546
11494CHOL   ROH32165  15.083   1.289   0.189
11494CHOL    R132166  15.138   1.186   0.080
11494CHOL    R232167  15.117   1.230  -0.148
11494CHOL    R332168  15.200   1.070  -0.043
11494CHOL    R432169  15.166   1.139  -0.244
11494CHOL    R532170  15.256   0.966  -0.152
11494CHOL    C132171  15.338   0.812  -0.316
11494CHOL    C232172  15.421   0.657  -0.479
11495CHOL   ROH32173   5.515  11.685  23.078
11495CHOL    R132174   5.472  11.701  23.231
11495CHOL    R232175   5.571  11.572  23.398
11495CHOL    R332176   5.423  11.719  23.403
11495CHOL    R432177   5.533  11.586  23.532
11495CHOL    R532178   5.380  11.735  23.556
11495CHOL    C132179   5.314  11.759  23.786
11495CHOL    C232180   5.249  11.783  24.016
11496CHOL   ROH32181  14.801  13.086  -2.884
11496CHOL    R132182  14.854  13.121  -3.031
11496CHOL    R232183  14.796  12.989  -3.214
11496CHOL    R332184  14.913  13.161  -3.196
11496CHOL    R432185  14.842  13.020  -3.343
11496CHOL    R532186  14.965  13.196  -3.343
11496CHOL    C132187  15.044  13.250  -3.563
11496CHOL    C232188  15.123  13.303  -3.784
11497CHOL   ROH32189   0.023   4.359  18.199
11497CHOL    R132190  -0.084   4.295  18.300
11497CHOL    R232191  -0.027   4.115  18.436
11497CHOL    R332192  -0.204   4.224  18.413
11497CHOL    R432193  -0.121   4.059  18.524
11497CHOL    R532194  -0.311   4.160  18.513
11497CHOL    C132195  -0.471   4.064  18.664
11497CHOL    C232196  -0.632   3.969  18.815
11498CHOL   ROH32197   0.137  19.963   8.216
11498CHOL    R132198   0.034  20.083   8.194
11498CHOL    R232199   0.041  20.273   8.329
11498CHOL    R332200  -0.083  20.218   8.170
11498CHOL    R432201  -0.050  20.378   8.310
11498CHOL    R532202  -0.186  20.339   8.148
11498CHOL    C132203  -0.341  20.519   8.116
11498CHOL    C232204  -0.496  20.699   8.084
11499CHOL   ROH32205  -4.194   9.059   9.124
11499CHOL    R132206  -4.353   9.049   9.114
11499CHOL    R232207  -4.490   9.212   9.209
11499CHOL    R332208  -4.533   9.038   9.102
11499CHOL    R432209  -4.630   9.204   9.200
11499CHOL    R532210  -4.692   9.028   9.092
11499CHOL    C132211  -4.931   9.014   9.076
11499CHOL    C232212  -5.170   8.999   9.060
11500CHOL   ROH32213  13.193  16.459  21.914
11500CHOL    R132214  13.229  16.530  22.053
11500CHOL    R232215  13.322  16.409  22.229
11500CHOL    R332216  13.269  16.610  22.209
11500CHOL    R432217  13.353  16.471  22.351
11500CHOL    R532218  13.305  16.680  22.348
11500CHOL    C132219  13.359  16.787  22.556
11500CHOL    C232220  13.413  16.893  22.765
11501CHOL   ROH32221   8.598  23.373  14.116
11501CHOL    R132222   8.582  23.525  14.163
11501CHOL    R232223   8.720  23.614  14.329
11501CHOL    R332224   8.565  23.696  14.217
11501CHOL    R432225   8.707  23.747  14.371
11501CHOL    R532226   8.550  23.848  14.264
11501CHOL    C132227   8.526  24.076  14.335
11501CHOL    C232228   8.503  24.304  14.406
11502CHOL   ROH32229  -3.895  12.964   9.581
11502CHOL    R132230  -4.051  12.999   9.574
11502CHOL    R232231  -4.210  12.854   9.664
11502CHOL    R332232  -4.227  13.038   9.565
11502CHOL    R432233  -4.347  12.885   9.657
11502CHOL    R532234  -4.383  13.073   9.558
11502CHOL    C132235  -4.617  13.125   9.547
11502CHOL    C232236  -4.851  13.177   9.536
11503CHOL   ROH32237  -1.799  11.230  17.620
11503CHOL    R132238  -1.930  11.242  17.711
11503CHOL    R232239  -1.974  11.437  17.831
11503CHOL    R332240  -2.077  11.257  17.814
11503CHOL    R432241  -2.089  11.448  17.911
11503CHOL    R532242  -2.208  11.269  17.905
11503CHOL    C132243  -2.404  11.288  18.042
11503CHOL    C232244  -2.601  11.306  18.179
11504CHOL   ROH32245  14.650  12.607  22.949
11504CHOL    R132246  14.702  12.638  23.097
11504CHOL    R232247  14.860  12.804  23.136
11504CHOL    R332248  14.760  12.673  23.264
11504CHOL    R432249  14.906  12.831  23.266
11504CHOL    R532250  14.812  12.704  23.412
11504CHOL    C132251  14.890  12.750  23.634
11504CHOL    C232252  14.968  12.796  23.856
11505CHOL   ROH32253  18.029  15.466  19.826
11505CHOL    R132254  18.123  15.523  19.942
11505CHOL    R232255  18.326  15.626  19.893
11505CHOL    R332256  18.228  15.586  20.074
11505CHOL    R432257  18.408  15.675  19.995
11505CHOL    R532258  18.322  15.643  20.190
11505CHOL    C132259  18.463  15.728  20.365
11505CHOL    C232260  18.603  15.813  20.539
11506CHOL   ROH32261  23.013   5.600  12.223
11506CHOL    R132262  23.163   5.551  12.249
11506CHOL    R232263  23.329   5.700  12.317
11506CHOL    R332264  23.332   5.495  12.279
11506CHOL    R432265  23.460   5.657  12.339
11506CHOL    R532266  23.482   5.445  12.305
11506CHOL    C132267  23.706   5.371  12.344
11506CHOL    C232268  23.931   5.297  12.384
11507CHOL   ROH32269  23.454   8.138  13.036
11507CHOL    R132270  23.610   8.117  13.068
11507CHOL    R232271  23.742   7.979  12.934
11507CHOL    R332272  23.784   8.094  13.103
11507CHOL    R432273  23.878   7.961  12.962
11507CHOL    R532274  23.940   8.073  13.135
11507CHOL    C132275  24.173   8.042  13.183
11507CHOL    C232276  24.407   8.011  13.230
11508CHOL   ROH32277  -2.441  11.044  16.662
11508CHOL    R132278  -2.578  11.055  16.743
11508CHOL    R232279  -2.668  10.870  16.852
11508CHOL    R332280  -2.733  11.067  16.835
11508CHOL    R432281  -2.789  10.879  16.923
11508CHOL    R532282  -2.870  11.078  16.916
11508CHOL    C132283  -3.076  11.095  17.038
11508CHOL    C232284  -3.282  11.112  17.160
11509CHOL   ROH32285  -2.408  10.363  16.780
11509CHOL    R132286  -2.546  10.366  16.861
11509CHOL    R232287  -2.597  10.200  17.017
11509CHOL    R332288  -2.701  10.370  16.953
11509CHOL    R432289  -2.718  10.203  17.089
11509CHOL    R532290  -2.839  10.373  17.035
11509CHOL    C132291  -3.045  10.378  17.157
11509CHOL    C232292  -3.252  10.383  17.279
11510CHOL   ROH32293  16.038  -2.543  11.289
11510CHOL    R132294  16.110  -2.685  11.304
11510CHOL    R232295  16.331  -2.715  11.238
11510CHOL    R332296  16.191  -2.845  11.322
11510CHOL    R432297  16.394  -2.840  11.251
11510CHOL    R532298  16.262  -2.987  11.337
11510CHOL    C132299  16.370  -3.200  11.360
11510CHOL    C232300  16.478  -3.413  11.383
11511CHOL   ROH32301   1.712  -1.455   9.693
11511CHOL    R132302   1.617  -1.584   9.694
11511CHOL    R232303   1.703  -1.796   9.742
11511CHOL    R332304   1.510  -1.729   9.695
11511CHOL    R432305   1.620  -1.909   9.743
11511CHOL    R532306   1.416  -1.858   9.697
11511CHOL    C132307   1.273  -2.051   9.698
11511CHOL    C232308   1.131  -2.245   9.700
11512CHOL   ROH32309  22.750   9.562   4.361
11512CHOL    R132310  22.897   9.558   4.297
11512CHOL    R232311  22.997   9.355   4.239
11512CHOL    R332312  23.061   9.554   4.225
11512CHOL    R432313  23.125   9.352   4.183
11512CHOL    R532314  23.208   9.550   4.161
11512CHOL    C132315  23.428   9.544   4.064
11512CHOL    C232316  23.648   9.538   3.968
11513CHOL   ROH32317   8.851  20.031  19.674
11513CHOL    R132318   8.834  20.143  19.787
11513CHOL    R232319   8.838  20.370  19.732
11513CHOL    R332320   8.816  20.270  19.913
11513CHOL    R432321   8.823  20.468  19.830
11513CHOL    R532322   8.799  20.382  20.026
11513CHOL    C132323   8.774  20.550  20.195
11513CHOL    C232324   8.749  20.719  20.364
11514CHOL   ROH32325  11.045   5.053  -3.143
11514CHOL    R132326  11.055   5.000  -3.294
11514CHOL    R232327  11.155   5.128  -3.460
11514CHOL    R332328  11.066   4.939  -3.463
11514CHOL    R432329  11.164   5.082  -3.592
11514CHOL    R532330  11.076   4.886  -3.614
11514CHOL    C132331  11.091   4.806  -3.839
11514CHOL    C232332  11.106   4.726  -4.065
11515CHOL   ROH32333   9.110   7.625  23.760
11515CHOL    R132334   9.098   7.597  23.917
11515CHOL    R232335   9.289   7.583  24.051
11515CHOL    R332336   9.086   7.566  24.094
11515CHOL    R432337   9.279   7.559  24.188
11515CHOL    R532338   9.074   7.538  24.251
11515CHOL    C132339   9.057   7.497  24.487
11515CHOL    C232340   9.039   7.455  24.722
11516CHOL   ROH32341   7.470  14.295  -3.260
11516CHOL    R132342   7.444  14.345  -3.410
11516CHOL    R232343   7.556  14.530  -3.496
11516CHOL    R332344   7.414  14.401  -3.578
11516CHOL    R432345   7.533  14.574  -3.627
11516CHOL    R532346   7.388  14.450  -3.728
11516CHOL    C132347   7.349  14.525  -3.953
11516CHOL    C232348   7.309  14.600  -4.177
11517CHOL   ROH32349   4.666   9.092  22.997
11517CHOL    R132350   4.614   9.090  23.149
11517CHOL    R232351   4.754   9.022  23.322
11517CHOL    R332352   4.557   9.089  23.319
11517CHOL    R432353   4.709   9.021  23.455
11517CHOL    R532354   4.505   9.087  23.470
11517CHOL    C132355   4.428   9.085  23.698
11517CHOL    C232356   4.350   9.082  23.925
11518CHOL   ROH32357  11.285  -2.242  16.795
11518CHOL    R132358  11.300  -2.378  16.878
11518CHOL    R232359  11.506  -2.446  16.962
11518CHOL    R332360  11.316  -2.532  16.970
11518CHOL    R432361  11.519  -2.565  17.034
11518CHOL    R532362  11.331  -2.668  17.053
11518CHOL    C132363  11.353  -2.872  17.177
11518CHOL    C232364  11.375  -3.077  17.301
11519CHOL   ROH32365  12.177  19.139  -0.478
11519CHOL    R132366  12.196  19.241  -0.600
11519CHOL    R232367  12.373  19.393  -0.603
11519CHOL    R332368  12.217  19.356  -0.736
11519CHOL    R432369  12.390  19.482  -0.709
11519CHOL    R532370  12.236  19.458  -0.858
11519CHOL    C132371  12.264  19.612  -1.040
11519CHOL    C232372  12.293  19.765  -1.223
11520CHOL   ROH32373  16.099   0.762   1.336
11520CHOL    R132374  16.168   0.655   1.239
11520CHOL    R232375  16.314   0.722   1.070
11520CHOL    R332376  16.246   0.534   1.130
11520CHOL    R432377  16.374   0.628   0.986
11520CHOL    R532378  16.315   0.427   1.034
11520CHOL    C132379  16.418   0.266   0.888
11520CHOL    C232380  16.521   0.105   0.743
11521CHOL   ROH32381   5.970  16.968  21.541
11521CHOL    R132382   5.927  17.054  21.669
11521CHOL    R232383   6.043  17.035  21.870
11521CHOL    R332384   5.879  17.150  21.813
11521CHOL    R432385   6.006  17.110  21.982
11521CHOL    R532386   5.835  17.236  21.942
11521CHOL    C132387   5.771  17.364  22.134
11521CHOL    C232388   5.706  17.492  22.326
11522CHOL   ROH32389  16.156  14.041  -1.996
11522CHOL    R132390  16.230  14.089  -2.129
11522CHOL    R232391  16.298  13.935  -2.291
11522CHOL    R332392  16.314  14.143  -2.279
11522CHOL    R432393  16.363  13.978  -2.408
11522CHOL    R532394  16.388  14.191  -2.412
11522CHOL    C132395  16.499  14.264  -2.612
11522CHOL    C232396  16.611  14.336  -2.812
11523CHOL   ROH32397   3.603   7.776  -2.492
11523CHOL    R132398   3.531   7.754  -2.633
11523CHOL    R232399   3.445   7.545  -2.692
11523CHOL    R332400   3.450   7.728  -2.792
11523CHOL    R432401   3.382   7.526  -2.815
11523CHOL    R532402   3.378   7.706  -2.933
11523CHOL    C132403   3.270   7.672  -3.145
11523CHOL    C232404   3.162   7.639  -3.356
11524CHOL   ROH32405   2.874  10.877  22.144
11524CHOL    R132406   2.796  10.894  22.283
11524CHOL    R232407   2.852  10.765  22.469
11524CHOL    R332408   2.707  10.912  22.438
11524CHOL    R432409   2.784  10.779  22.590
11524CHOL    R532410   2.629  10.929  22.577
11524CHOL    C132411   2.511  10.954  22.785
11524CHOL    C232412   2.394  10.979  22.993
11525CHOL   ROH32413   0.137   5.619   0.743
11525CHOL    R132414   0.028   5.568   0.637
11525CHOL    R232415  -0.155   5.442   0.705
11525CHOL    R332416  -0.094   5.512   0.518
11525CHOL    R432417  -0.251   5.397   0.612
11525CHOL    R532418  -0.203   5.461   0.412
11525CHOL    C132419  -0.366   5.385   0.253
11525CHOL    C232420  -0.529   5.309   0.094
11526CHOL   ROH32421  -0.990  16.333   3.716
11526CHOL    R132422  -1.117  16.401   3.647
11526CHOL    R232423  -1.164  16.627   3.680
11526CHOL    R332424  -1.261  16.478   3.570
11526CHOL    R432425  -1.276  16.687   3.620
11526CHOL    R532426  -1.388  16.546   3.501
11526CHOL    C132427  -1.579  16.648   3.399
11526CHOL    C232428  -1.770  16.750   3.296
11527CHOL   ROH32429  -2.720   5.850  14.693
11527CHOL    R132430  -2.865   5.799  14.738
11527CHOL    R232431  -2.942   5.835  14.956
11527CHOL    R332432  -3.028   5.742  14.789
11527CHOL    R432433  -3.068   5.790  14.995
11527CHOL    R532434  -3.172   5.691  14.835
11527CHOL    C132435  -3.390   5.615  14.902
11527CHOL    C232436  -3.607   5.539  14.970
11528CHOL   ROH32437  -0.942  18.184   6.088
11528CHOL    R132438  -1.064  18.276   6.041
11528CHOL    R232439  -1.219  18.359   6.195
11528CHOL    R332440  -1.202  18.379   5.987
11528CHOL    R432441  -1.325  18.439   6.153
11528CHOL    R532442  -1.324  18.470   5.940
11528CHOL    C132443  -1.507  18.608   5.869
11528CHOL    C232444  -1.691  18.746   5.798
11529CHOL   ROH32445   2.363   1.117  17.870
11529CHOL    R132446   2.277   1.018  17.962
11529CHOL    R232447   2.363   0.936  18.163
11529CHOL    R332448   2.180   0.907  18.065
11529CHOL    R432449   2.288   0.849  18.243
11529CHOL    R532450   2.095   0.808  18.157
11529CHOL    C132451   1.966   0.660  18.295
11529CHOL    C232452   1.837   0.511  18.433
11530CHOL   ROH32453   9.905  16.885  22.221
11530CHOL    R132454   9.911  16.961  22.362
11530CHOL    R232455  10.067  17.129  22.401
11530CHOL    R332456   9.917  17.047  22.520
11530CHOL    R432457  10.072  17.196  22.524
11530CHOL    R532458   9.923  17.123  22.661
11530CHOL    C132459   9.931  17.237  22.871
11530CHOL    C232460   9.939  17.351  23.082
11531CHOL   ROH32461  16.724  12.804  -2.026
11531CHOL    R132462  16.804  12.832  -2.162
11531CHOL    R232463  16.695  12.906  -2.353
11531CHOL    R332464  16.895  12.863  -2.314
11531CHOL    R432465  16.765  12.930  -2.472
11531CHOL    R532466  16.976  12.890  -2.449
11531CHOL    C132467  17.096  12.932  -2.653
11531CHOL    C232468  17.217  12.974  -2.856
11532CHOL   ROH32469  17.790   9.222  -1.617
11532CHOL    R132470  17.877   9.212  -1.751
11532CHOL    R232471  17.800   9.304  -1.951
11532CHOL    R332472  17.975   9.202  -1.901
11532CHOL    R432473  17.877   9.296  -2.068
11532CHOL    R532474  18.062   9.192  -2.035
11532CHOL    C132475  18.193   9.178  -2.236
11532CHOL    C232476  18.324   9.163  -2.436
11533CHOL   ROH32477  -2.359  16.508  12.376
11533CHOL    R132478  -2.497  16.584  12.404
11533CHOL    R232479  -2.607  16.562  12.609
11533CHOL    R332480  -2.653  16.668  12.435
11533CHOL    R432481  -2.728  16.628  12.633
11533CHOL    R532482  -2.791  16.744  12.463
11533CHOL    C132483  -2.999  16.857  12.505
11533CHOL    C232484  -3.207  16.971  12.547
11534CHOL   ROH32485  22.785   9.223   4.472
11534CHOL    R132486  22.932   9.215   4.410
11534CHOL    R232487  23.052   9.410   4.361
11534CHOL    R332488  23.097   9.207   4.339
11534CHOL    R432489  23.180   9.403   4.306
11534CHOL    R532490  23.244   9.199   4.277
11534CHOL    C132491  23.465   9.188   4.183
11534CHOL    C232492  23.686   9.177   4.090
11535CHOL   ROH32493  23.328  13.439   7.695
11535CHOL    R132494  23.481  13.481   7.671
11535CHOL    R232495  23.568  13.502   7.456
11535CHOL    R332496  23.652  13.528   7.645
11535CHOL    R432497  23.701  13.538   7.435
11535CHOL    R532498  23.805  13.570   7.622
11535CHOL    C132499  24.034  13.633   7.586
11535CHOL    C232500  24.263  13.696   7.551
11536CHOL   ROH32501   7.654   1.449  -1.046
11536CHOL    R132502   7.626   1.348  -1.167
11536CHOL    R232503   7.713   1.131  -1.164
11536CHOL    R332504   7.595   1.234  -1.302
11536CHOL    R432505   7.689   1.043  -1.270
11536CHOL    R532506   7.567   1.133  -1.423
11536CHOL    C132507   7.525   0.981  -1.604
11536CHOL    C232508   7.483   0.829  -1.785
11537CHOL   ROH32509  21.664   7.964  17.175
11537CHOL    R132510  21.798   7.939  17.259
11537CHOL    R232511  21.986   7.844  17.160
11537CHOL    R332512  21.948   7.910  17.354
11537CHOL    R432513  22.103   7.821  17.234
11537CHOL    R532514  22.081   7.885  17.438
11537CHOL    C132515  22.282   7.846  17.565
11537CHOL    C232516  22.482   7.808  17.691
11538CHOL   ROH32517  20.173  11.405  19.335
11538CHOL    R132518  20.286  11.425  19.447
11538CHOL    R232519  20.492  11.520  19.393
11538CHOL    R332520  20.413  11.448  19.572
11538CHOL    R432521  20.591  11.537  19.490
11538CHOL    R532522  20.526  11.468  19.684
11538CHOL    C132523  20.695  11.498  19.851
11538CHOL    C232524  20.865  11.528  20.018
11539CHOL   ROH32525  -2.516   3.416   9.303
11539CHOL    R132526  -2.658   3.343   9.293
11539CHOL    R232527  -2.674   3.116   9.242
11539CHOL    R332528  -2.818   3.262   9.281
11539CHOL    R432529  -2.798   3.053   9.233
11539CHOL    R532530  -2.961   3.189   9.271
11539CHOL    C132531  -3.174   3.080   9.256
11539CHOL    C232532  -3.387   2.971   9.240
11540CHOL   ROH32533  10.775  22.350   3.296
11540CHOL    R132534  10.790  22.491   3.221
11540CHOL    R232535  10.920  22.511   3.028
11540CHOL    R332536  10.807  22.649   3.137
11540CHOL    R432537  10.933  22.634   2.963
11540CHOL    R532538  10.822  22.789   3.062
11540CHOL    C132539  10.845  23.000   2.950
11540CHOL    C232540  10.867  23.211   2.837
11541CHOL   ROH32541  -0.837  10.800   0.905
11541CHOL    R132542  -0.955  10.804   0.797
11541CHOL    R232543  -1.141  10.940   0.826
11541CHOL    R332544  -1.087  10.807   0.675
11541CHOL    R432545  -1.244  10.943   0.732
11541CHOL    R532546  -1.205  10.811   0.567
11541CHOL    C132547  -1.382  10.816   0.404
11541CHOL    C232548  -1.558  10.822   0.242
11542CHOL   ROH32549  -4.174   8.766   9.153
11542CHOL    R132550  -4.333   8.752   9.144
11542CHOL    R232551  -4.473   8.909   9.245
11542CHOL    R332552  -4.512   8.736   9.134
11542CHOL    R432553  -4.613   8.897   9.237
11542CHOL    R532554  -4.672   8.722   9.126
11542CHOL    C132555  -4.910   8.701   9.112
11542CHOL    C232556  -5.149   8.680   9.099
11543CHOL   ROH32557   6.008  15.415  22.415
11543CHOL    R132558   5.964  15.478  22.556
11543CHOL    R232559   6.118  15.501  22.730
11543CHOL    R332560   5.915  15.548  22.714
11543CHOL    R432561   6.079  15.556  22.853
11543CHOL    R532562   5.871  15.610  22.855
11543CHOL    C132563   5.805  15.704  23.065
11543CHOL    C232564   5.739  15.798  23.276
11544CHOL   ROH32565   8.927  14.226  23.285
11544CHOL    R132566   8.918  14.274  23.437
11544CHOL    R232567   9.035  14.162  23.605
11544CHOL    R332568   8.908  14.328  23.609
11544CHOL    R432569   9.027  14.204  23.739
11544CHOL    R532570   8.899  14.376  23.761
11544CHOL    C132571   8.886  14.448  23.989
11544CHOL    C232572   8.873  14.520  24.218
11545CHOL   ROH32573   8.739  23.866   8.094
11545CHOL    R132574   8.728  24.025   8.076
11545CHOL    R232575   8.902  24.165   8.143
11545CHOL    R332576   8.716  24.203   8.056
11545CHOL    R432577   8.892  24.304   8.128
11545CHOL    R532578   8.705  24.362   8.037
11545CHOL    C132579   8.689  24.599   8.010
11545CHOL    C232580   8.672  24.837   7.983
11546CHOL   ROH32581  16.010  20.312   2.715
11546CHOL    R132582  16.084  20.427   2.632
11546CHOL    R232583  16.040  20.458   2.405
11546CHOL    R332584  16.167  20.556   2.538
11546CHOL    R432585  16.105  20.558   2.332
11546CHOL    R532586  16.241  20.671   2.455
11546CHOL    C132587  16.353  20.843   2.330
11546CHOL    C232588  16.464  21.016   2.205
11547CHOL   ROH32589  14.458  20.445  18.101
11547CHOL    R132590  14.508  20.566  18.193
11547CHOL    R232591  14.602  20.527  18.403
11547CHOL    R332592  14.564  20.702  18.296
11547CHOL    R432593  14.645  20.633  18.483
11547CHOL    R532594  14.614  20.823  18.388
11547CHOL    C132595  14.689  21.005  18.526
11547CHOL    C232596  14.764  21.187  18.664
11548CHOL   ROH32597  12.167  22.587   4.299
11548CHOL    R132598  12.197  22.732   4.238
11548CHOL    R232599  12.371  22.764   4.086
11548CHOL    R332600  12.231  22.895   4.169
11548CHOL    R432601  12.397  22.891   4.032
11548CHOL    R532602  12.261  23.039   4.108
11548CHOL    C132603  12.306  23.257   4.017
11548CHOL    C232604  12.351  23.474   3.926
11549CHOL   ROH32605   8.177  16.268  22.447
11549CHOL    R132606   8.158  16.339  22.589
11549CHOL    R232607   8.341  16.427  22.704
11549CHOL    R332608   8.137  16.418  22.750
11549CHOL    R432609   8.324  16.489  22.829
11549CHOL    R532610   8.118  16.489  22.892
11549CHOL    C132611   8.090  16.594  23.106
11549CHOL    C232612   8.061  16.700  23.319
11550CHOL   ROH32613  16.114  22.478  10.161
11550CHOL    R132614  16.188  22.620  10.162
11550CHOL    R232615  16.420  22.635  10.171
11550CHOL    R332616  16.270  22.780  10.164
11550CHOL    R432617  16.485  22.759  10.172
11550CHOL    R532618  16.344  22.922  10.165
11550CHOL    C132619  16.454  23.135  10.167
11550CHOL    C232620  16.565  23.348  10.169
11551CHOL   ROH32621   8.280  13.434  -3.621
11551CHOL    R132622   8.264  13.473  -3.775
11551CHOL    R232623   8.152  13.668  -3.839
11551CHOL    R332624   8.246  13.517  -3.949
11551CHOL    R432625   8.138  13.702  -3.974
11551CHOL    R532626   8.231  13.556  -4.103
11551CHOL    C132627   8.207  13.615  -4.334
11551CHOL    C232628   8.183  13.674  -4.566
11552CHOL   ROH32629   4.222   0.078   1.795
11552CHOL    R132630   4.154  -0.029   1.698
11552CHOL    R232631   3.972  -0.157   1.769
11552CHOL    R332632   4.076  -0.150   1.589
11552CHOL    R432633   3.912  -0.251   1.684
11552CHOL    R532634   4.008  -0.257   1.492
11552CHOL    C132635   3.905  -0.418   1.346
11552CHOL    C232636   3.803  -0.579   1.200
11553CHOL   ROH32637  -3.619   7.841  13.168
11553CHOL    R132638  -3.773   7.815  13.202
11553CHOL    R232639  -3.837   7.729  13.409
11553CHOL    R332640  -3.946   7.786  13.241
11553CHOL    R432641  -3.972   7.706  13.439
11553CHOL    R532642  -4.101   7.761  13.275
11553CHOL    C132643  -4.332   7.722  13.326
11553CHOL    C232644  -4.563   7.683  13.378
11554CHOL   ROH32645   3.158  22.291   9.929
11554CHOL    R132646   3.078  22.429   9.923
11554CHOL    R232647   3.181  22.625   9.849
11554CHOL    R332648   2.987  22.585   9.917
11554CHOL    R432649   3.110  22.746   9.844
11554CHOL    R532650   2.907  22.723   9.912
11554CHOL    C132651   2.787  22.930   9.903
11554CHOL    C232652   2.666  23.138   9.895
11555CHOL   ROH32653   7.016   5.935  -3.228
11555CHOL    R132654   6.991   5.892  -3.380
11555CHOL    R232655   6.825   5.738  -3.435
11555CHOL    R332656   6.962   5.844  -3.551
11555CHOL    R432657   6.802   5.700  -3.568
11555CHOL    R532658   6.937   5.801  -3.703
11555CHOL    C132659   6.899   5.736  -3.931
11555CHOL    C232660   6.861   5.671  -4.159
11556CHOL   ROH32661   3.715  21.684   5.344
11556CHOL    R132662   3.638  21.814   5.292
11556CHOL    R232663   3.755  22.008   5.235
11556CHOL    R332664   3.552  21.961   5.233
11556CHOL    R432665   3.688  22.122   5.190
11556CHOL    R532666   3.475  22.091   5.181
11556CHOL    C132667   3.360  22.287   5.103
11556CHOL    C232668   3.245  22.483   5.025
11557CHOL   ROH32669   2.385  17.219   0.400
11557CHOL    R132670   2.300  17.299   0.291
11557CHOL    R232671   2.400  17.458   0.153
11557CHOL    R332672   2.203  17.389   0.168
11557CHOL    R432673   2.325  17.528   0.057
11557CHOL    R532674   2.118  17.469   0.059
11557CHOL    C132675   1.990  17.589  -0.105
11557CHOL    C232676   1.862  17.709  -0.268
11558CHOL   ROH32677   9.317  17.095  -2.196
11558CHOL    R132678   9.314  17.176  -2.334
11558CHOL    R232679   9.510  17.256  -2.431
11558CHOL    R332680   9.310  17.267  -2.489
11558CHOL    R432681   9.508  17.327  -2.552
11558CHOL    R532682   9.307  17.348  -2.627
11558CHOL    C132683   9.302  17.469  -2.835
11558CHOL    C232684   9.297  17.591  -3.042
11559CHOL   ROH32685   9.582  -1.942  17.385
11559CHOL    R132686   9.578  -2.077  17.471
11559CHOL    R232687   9.701  -2.264  17.407
11559CHOL    R332688   9.573  -2.229  17.568
11559CHOL    R432689   9.697  -2.382  17.483
11559CHOL    R532690   9.568  -2.364  17.654
11559CHOL    C132691   9.562  -2.566  17.783
11559CHOL    C232692   9.556  -2.768  17.912
11560CHOL   ROH32693   8.763  19.330  20.331
11560CHOL    R132694   8.746  19.438  20.447
11560CHOL    R232695   8.760  19.667  20.402
11560CHOL    R332696   8.726  19.561  20.578
11560CHOL    R432697   8.745  19.762  20.503
11560CHOL    R532698   8.709  19.669  20.695
11560CHOL    C132699   8.683  19.832  20.869
11560CHOL    C232700   8.657  19.994  21.043
11561CHOL   ROH32701   4.214  20.431  17.477
11561CHOL    R132702   4.153  20.551  17.564
11561CHOL    R232703   4.271  20.749  17.594
11561CHOL    R332704   4.085  20.685  17.662
11561CHOL    R432705   4.218  20.854  17.670
11561CHOL    R532706   4.024  20.805  17.749
11561CHOL    C132707   3.933  20.985  17.880
11561CHOL    C232708   3.842  21.164  18.010
11562CHOL   ROH32709  19.441  18.485  15.503
11562CHOL    R132710  19.548  18.587  15.563
11562CHOL    R232711  19.704  18.693  15.425
11562CHOL    R332712  19.669  18.703  15.631
11562CHOL    R432713  19.798  18.782  15.478
11562CHOL    R532714  19.776  18.805  15.691
11562CHOL    C132715  19.937  18.959  15.781
11562CHOL    C232716  20.098  19.112  15.871
11563CHOL   ROH32717  17.838  18.101  18.203
11563CHOL    R132718  17.931  18.193  18.295
11563CHOL    R232719  18.163  18.185  18.277
11563CHOL    R332720  18.036  18.297  18.398
11563CHOL    R432721  18.245  18.266  18.357
11563CHOL    R532722  18.129  18.389  18.490
11563CHOL    C132723  18.268  18.527  18.628
11563CHOL    C232724  18.407  18.665  18.766
11564CHOL   ROH32725  14.027  -1.964   3.819
11564CHOL    R132726  14.078  -2.100   3.751
11564CHOL    R232727  14.276  -2.105   3.629
11564CHOL    R332728  14.136  -2.252   3.675
11564CHOL    R432729  14.321  -2.224   3.569
11564CHOL    R532730  14.187  -2.388   3.608
11564CHOL    C132731  14.264  -2.592   3.506
11564CHOL    C232732  14.341  -2.795   3.404
11565CHOL   ROH32733  17.492   1.802  18.387
11565CHOL    R132734  17.579   1.708  18.483
11565CHOL    R232735  17.810   1.689  18.456
11565CHOL    R332736  17.677   1.602  18.591
11565CHOL    R432737  17.886   1.607  18.539
11565CHOL    R532738  17.763   1.508  18.687
11565CHOL    C132739  17.894   1.367  18.830
11565CHOL    C232740  18.024   1.226  18.974
11566CHOL   ROH32741  13.270   7.761  -3.539
11566CHOL    R132742  13.315   7.734  -3.690
11566CHOL    R232743  13.339   7.910  -3.842
11566CHOL    R332744  13.366   7.704  -3.860
11566CHOL    R432745  13.378   7.886  -3.974
11566CHOL    R532746  13.411   7.676  -4.011
11566CHOL    C132747  13.479   7.636  -4.238
11566CHOL    C232748  13.547   7.595  -4.464
11567CHOL   ROH32749  12.610  16.208  -2.327
11567CHOL    R132750  12.640  16.278  -2.467
11567CHOL    R232751  12.846  16.249  -2.574
11567CHOL    R332752  12.675  16.357  -2.626
11567CHOL    R432753  12.872  16.311  -2.697
11567CHOL    R532754  12.705  16.427  -2.766
11567CHOL    C132755  12.751  16.533  -2.977
11567CHOL    C232756  12.796  16.638  -3.187
11568CHOL   ROH32757  12.306  23.608  12.280
11568CHOL    R132758  12.332  23.763  12.309
11568CHOL    R232759  12.483  23.886  12.181
11568CHOL    R332760  12.360  23.938  12.342
11568CHOL    R432761  12.505  24.022  12.207
11568CHOL    R532762  12.386  24.093  12.372
11568CHOL    C132763  12.424  24.326  12.415
11568CHOL    C232764  12.463  24.559  12.459
11569CHOL   ROH32765   3.376  12.860  -2.160
11569CHOL    R132766   3.298  12.890  -2.297
11569CHOL    R232767   3.078  12.965  -2.295
11569CHOL    R332768   3.211  12.924  -2.450
11569CHOL    R432769   3.009  12.992  -2.415
11569CHOL    R532770   3.133  12.953  -2.587
11569CHOL    C132771   3.016  12.998  -2.792
11569CHOL    C232772   2.900  13.043  -2.997
11570CHOL   ROH32773   2.155   7.662  -1.602
11570CHOL    R132774   2.064   7.640  -1.732
11570CHOL    R232775   1.842   7.570  -1.712
11570CHOL    R332776   1.961   7.616  -1.877
11570CHOL    R432777   1.762   7.551  -1.825
11570CHOL    R532778   1.870   7.594  -2.007
11570CHOL    C132779   1.732   7.561  -2.201
11570CHOL    C232780   1.595   7.529  -2.396
11571CHOL   ROH32781  12.710  12.692  -3.561
11571CHOL    R132782  12.742  12.726  -3.714
11571CHOL    R232783  12.629  12.617  -3.887
11571CHOL    R332784  12.778  12.763  -3.886
11571CHOL    R432785  12.656  12.647  -4.021
11571CHOL    R532786  12.810  12.797  -4.040
11571CHOL    C132787  12.857  12.847  -4.269
11571CHOL    C232788  12.905  12.898  -4.499
11572CHOL   ROH32789  20.871   7.205  18.103
11572CHOL    R132790  20.998   7.172  18.195
11572CHOL    R232791  21.137   6.992  18.147
11572CHOL    R332792  21.141   7.136  18.298
11572CHOL    R432793  21.248   6.963  18.227
11572CHOL    R532794  21.267   7.103  18.390
11572CHOL    C132795  21.458   7.054  18.528
11572CHOL    C232796  21.648   7.005  18.666
11573CHOL   ROH32797   3.490  17.790  19.732
11573CHOL    R132798   3.416  17.877  19.844
11573CHOL    R232799   3.467  17.850  20.070
11573CHOL    R332800   3.333  17.974  19.970
11573CHOL    R432801   3.402  17.925  20.168
11573CHOL    R532802   3.259  18.061  20.082
11573CHOL    C132803   3.147  18.191  20.251
11573CHOL    C232804   3.036  18.321  20.419
11574CHOL   ROH32805  10.940  -1.528  17.893
11574CHOL    R132806  10.957  -1.653  17.991
11574CHOL    R232807  11.115  -1.819  17.947
11574CHOL    R332808  10.977  -1.794  18.102
11574CHOL    R432809  11.130  -1.929  18.033
11574CHOL    R532810  10.994  -1.919  18.200
11574CHOL    C132811  11.020  -2.107  18.347
11574CHOL    C232812  11.046  -2.294  18.495
11575CHOL   ROH32813  20.274   0.987   7.095
11575CHOL    R132814  20.394   0.886   7.064
11575CHOL    R232815  20.400   0.764   6.865
11575CHOL    R332816  20.529   0.772   7.028
11575CHOL    R432817  20.505   0.676   6.837
11575CHOL    R532818  20.649   0.671   6.997
11575CHOL    C132819  20.830   0.520   6.950
11575CHOL    C232820  21.010   0.369   6.903
11576CHOL   ROH32821  -3.714  13.692   9.585
11576CHOL    R132822  -3.868  13.734   9.580
11576CHOL    R232823  -4.035  13.591   9.657
11576CHOL    R332824  -4.042  13.782   9.573
11576CHOL    R432825  -4.170  13.628   9.652
11576CHOL    R532826  -4.196  13.824   9.568
11576CHOL    C132827  -4.427  13.888   9.560
11576CHOL    C232828  -4.659  13.952   9.552
11577CHOL   ROH32829  16.139  20.069   2.505
11577CHOL    R132830  16.216  20.180   2.420
11577CHOL    R232831  16.209  20.178   2.186
11577CHOL    R332832  16.303  20.305   2.323
11577CHOL    R432833  16.276  20.276   2.112
11577CHOL    R532834  16.380  20.416   2.238
11577CHOL    C132835  16.495  20.583   2.110
11577CHOL    C232836  16.610  20.750   1.982
11578CHOL   ROH32837   3.510   8.080  -2.489
11578CHOL    R132838   3.437   8.061  -2.630
11578CHOL    R232839   3.323   7.864  -2.681
11578CHOL    R332840   3.354   8.040  -2.789
11578CHOL    R432841   3.259   7.847  -2.804
11578CHOL    R532842   3.280   8.021  -2.930
11578CHOL    C132843   3.170   7.993  -3.141
11578CHOL    C232844   3.060   7.964  -3.352
11579CHOL   ROH32845  13.488   4.603  -2.554
11579CHOL    R132846  13.528   4.545  -2.698
11579CHOL    R232847  13.401   4.594  -2.887
11579CHOL    R332848  13.573   4.479  -2.859
11579CHOL    R432849  13.435   4.543  -3.012
11579CHOL    R532850  13.613   4.421  -3.002
11579CHOL    C132851  13.672   4.333  -3.218
11579CHOL    C232852  13.732   4.245  -3.433
11580CHOL   ROH32853  17.315  14.432  -1.109
11580CHOL    R132854  17.401  14.484  -1.233
11580CHOL    R232855  17.304  14.514  -1.443
11580CHOL    R332856  17.499  14.542  -1.373
11580CHOL    R432857  17.379  14.559  -1.552
11580CHOL    R532858  17.585  14.593  -1.497
11580CHOL    C132859  17.715  14.671  -1.684
11580CHOL    C232860  17.844  14.749  -1.870
11581CHOL   ROH32861  13.310  23.298   7.228
11581CHOL    R132862  13.350  23.449   7.193
11581CHOL    R232863  13.571  23.507   7.146
11581CHOL    R332864  13.394  23.619   7.153
11581CHOL    R432865  13.605  23.639   7.115
11581CHOL    R532866  13.434  23.770   7.118
11581CHOL    C132867  13.494  23.996   7.065
11581CHOL    C232868  13.553  24.222   7.012
11582CHOL   ROH32869   5.471  20.399  18.253
11582CHOL    R132870   5.423  20.516  18.351
11582CHOL    R232871   5.526  20.726  18.345
11582CHOL    R332872   5.370  20.649  18.461
11582CHOL    R432873   5.484  20.829  18.431
11582CHOL    R532874   5.322  20.766  18.559
11582CHOL    C132875   5.250  20.942  18.705
11582CHOL    C232876   5.179  21.118  18.852
11583CHOL   ROH32877   5.775   3.925  -2.143
11583CHOL    R132878   5.725   3.856  -2.278
11583CHOL    R232879   5.781   3.635  -2.328
11583CHOL    R332880   5.669   3.777  -2.430
11583CHOL    R432881   5.738   3.574  -2.446
11583CHOL    R532882   5.619   3.708  -2.566
11583CHOL    C132883   5.544   3.604  -2.768
11583CHOL    C232884   5.469   3.500  -2.971
11584CHOL   ROH32885  23.830  10.196   9.640
11584CHOL    R132886  23.990  10.197   9.639
11584CHOL    R232887  24.108  10.346   9.504
11584CHOL    R332888  24.170  10.198   9.637
11584CHOL    R432889  24.248  10.347   9.502
11584CHOL    R532890  24.330  10.198   9.636
11584CHOL    C132891  24.570  10.200   9.633
11584CHOL    C232892  24.810  10.201   9.631
11585CHOL   ROH32893  12.717  15.943  -2.433
11585CHOL    R132894  12.748  16.011  -2.575
11585CHOL    R232895  12.967  16.028  -2.653
11585CHOL    R332896  12.784  16.086  -2.734
11585CHOL    R432897  12.995  16.087  -2.777
11585CHOL    R532898  12.815  16.154  -2.875
11585CHOL    C132899  12.862  16.255  -3.088
11585CHOL    C232900  12.909  16.357  -3.300
11586CHOL   ROH32901   0.635   1.984  16.905
11586CHOL    R132902   0.530   1.894  16.986
11586CHOL    R232903   0.587   1.681  17.062
11586CHOL    R332904   0.412   1.794  17.077
11586CHOL    R432905   0.495   1.603  17.133
11586CHOL    R532906   0.307   1.704  17.159
11586CHOL    C132907   0.150   1.570  17.280
11586CHOL    C232908  -0.008   1.435  17.402
11587CHOL   ROH32909  22.906   6.995  14.266
11587CHOL    R132910  23.053   6.959  14.317
11587CHOL    R232911  23.207   7.127  14.368
11587CHOL    R332912  23.219   6.918  14.374
11587CHOL    R432913  23.336   7.095  14.413
11587CHOL    R532914  23.366   6.882  14.426
11587CHOL    C132915  23.587   6.828  14.502
11587CHOL    C232916  23.808   6.774  14.579
11588CHOL   ROH32917   7.298   2.386  21.483
11588CHOL    R132918   7.273   2.306  21.619
11588CHOL    R232919   7.441   2.286  21.780
11588CHOL    R332920   7.244   2.217  21.773
11588CHOL    R432921   7.419   2.216  21.899
11588CHOL    R532922   7.219   2.137  21.909
11588CHOL    C132923   7.181   2.017  22.114
11588CHOL    C232924   7.143   1.898  22.319
11589CHOL   ROH32925   7.594   9.868  -3.924
11589CHOL    R132926   7.569   9.866  -4.082
11589CHOL    R232927   7.475  10.049  -4.191
11589CHOL    R332928   7.540   9.863  -4.260
11589CHOL    R432929   7.452  10.047  -4.329
11589CHOL    R532930   7.515   9.861  -4.418
11589CHOL    C132931   7.477   9.858  -4.654
11589CHOL    C232932   7.439   9.854  -4.891
11590CHOL   ROH32933  17.143  21.270  13.965
11590CHOL    R132934  17.231  21.393  14.018
11590CHOL    R232935  17.379  21.504  13.876
11590CHOL    R332936  17.329  21.531  14.078
11590CHOL    R432937  17.455  21.612  13.923
11590CHOL    R532938  17.417  21.654  14.130
11590CHOL    C132939  17.549  21.838  14.210
11590CHOL    C232940  17.680  22.023  14.289
11591CHOL   ROH32941   0.742   8.936  -0.650
11591CHOL    R132942   0.637   8.928  -0.771
11591CHOL    R232943   0.512   9.114  -0.834
11591CHOL    R332944   0.519   8.919  -0.906
11591CHOL    R432945   0.420   9.107  -0.939
11591CHOL    R532946   0.414   8.911  -1.027
11591CHOL    C132947   0.257   8.898  -1.208
11591CHOL    C232948   0.100   8.886  -1.389
11592CHOL   ROH32949  22.951   8.277  14.834
11592CHOL    R132950  23.098   8.254  14.892
11592CHOL    R232951  23.215   8.057  14.848
11592CHOL    R332952  23.264   8.228  14.958
11592CHOL    R432953  23.344   8.037  14.899
11592CHOL    R532954  23.411   8.205  15.016
11592CHOL    C132955  23.632   8.170  15.103
11592CHOL    C232956  23.853   8.136  15.191
11593CHOL   ROH32957  -3.543   7.502  13.235
11593CHOL    R132958  -3.696   7.473  13.270
11593CHOL    R232959  -3.763   7.424  13.488
11593CHOL    R332960  -3.869   7.440  13.308
11593CHOL    R432961  -3.897   7.398  13.518
11593CHOL    R532962  -4.023   7.410  13.343
11593CHOL    C132963  -4.253   7.367  13.395
11593CHOL    C232964  -4.483   7.323  13.447
11594CHOL   ROH32965  -0.080  19.504   7.069
11594CHOL    R132966  -0.184  19.620   7.035
11594CHOL    R232967  -0.209  19.805   7.176
11594CHOL    R332968  -0.302  19.751   6.997
11594CHOL    R432969  -0.300  19.906   7.146
11594CHOL    R532970  -0.406  19.868   6.963
11594CHOL    C132971  -0.563  20.042   6.911
11594CHOL    C232972  -0.720  20.216   6.860
11595CHOL   ROH32973  -3.496  11.682  14.077
11595CHOL    R132974  -3.649  11.697  14.121
11595CHOL    R232975  -3.708  11.708  14.347
11595CHOL    R332976  -3.821  11.715  14.171
11595CHOL    R432977  -3.842  11.721  14.386
11595CHOL    R532978  -3.974  11.730  14.215
11595CHOL    C132979  -4.203  11.753  14.282
11595CHOL    C232980  -4.433  11.776  14.348
11596CHOL   ROH32981   9.899  23.468  13.974
11596CHOL    R132982   9.903  23.622  14.016
11596CHOL    R232983  10.026  23.692  14.202
11596CHOL    R332984   9.909  23.796  14.064
11596CHOL    R432985  10.030  23.827  14.239
11596CHOL    R532986   9.913  23.950  14.106
11596CHOL    C132987   9.920  24.181  14.169
11596CHOL    C232988   9.926  24.413  14.233
11597CHOL   ROH32989  20.178  15.982   2.473
11597CHOL    R132990  20.296  16.052   2.391
11597CHOL    R232991  20.278  16.087   2.161
11597CHOL    R332992  20.429  16.131   2.299
11597CHOL    R432993  20.382  16.148   2.090
11597CHOL    R532994  20.547  16.201   2.217
11597CHOL    C132995  20.724  16.306   2.094
11597CHOL    C232996  20.901  16.411   1.971
11598CHOL   ROH32997  19.550   8.641  20.030
11598CHOL    R132998  19.662   8.625  20.143
11598CHOL    R232999  19.877   8.710  20.112
11598CHOL    R333000  19.788   8.607  20.270
11598CHOL    R433001  19.975   8.695  20.211
11598CHOL    R533002  19.900   8.590  20.384
11598CHOL    C133003  20.068   8.566  20.553
11598CHOL    C233004  20.236   8.542  20.723
11599CHOL   ROH33005  16.537  -0.486   3.372
11599CHOL    R133006  16.613  -0.607   3.300
11599CHOL    R233007  16.808  -0.697   3.391
11599CHOL    R333008  16.698  -0.744   3.220
11599CHOL    R433009  16.874  -0.803   3.329
11599CHOL    R533010  16.774  -0.866   3.148
11599CHOL    C133011  16.888  -1.048   3.041
11599CHOL    C233012  17.002  -1.230   2.934
11600CHOL   ROH33013   5.424  23.253  11.513
11600CHOL    R133014   5.370  23.402  11.534
11600CHOL    R233015   5.456  23.538  11.703
11600CHOL    R333016   5.309  23.570  11.558
11600CHOL    R433017   5.408  23.669  11.721
11600CHOL    R533018   5.254  23.719  11.579
11600CHOL    C133019   5.173  23.943  11.611
11600CHOL    C233020   5.092  24.166  11.642
11601CHOL   ROH33021  20.360  12.352  18.923
11601CHOL    R133022  20.473  12.383  19.032
11601CHOL    R233023  20.661  12.510  18.977
11601CHOL    R333024  20.601  12.417  19.154
11601CHOL    R433025  20.760  12.537  19.072
11601CHOL    R533026  20.714  12.448  19.263
11601CHOL    C133027  20.884  12.494  19.426
11601CHOL    C233028  21.054  12.540  19.589
11602CHOL   ROH33029   6.723  23.263   6.299
11602CHOL    R133030   6.691  23.415   6.258
11602CHOL    R233031   6.663  23.579   6.421
11602CHOL    R333032   6.656  23.585   6.212
11602CHOL    R433033   6.635  23.712   6.385
11602CHOL    R533034   6.624  23.736   6.171
11602CHOL    C133035   6.576  23.964   6.110
11602CHOL    C233036   6.529  24.191   6.049
11603CHOL   ROH33037  13.229  22.342   4.297
11603CHOL    R133038  13.266  22.486   4.238
11603CHOL    R233039  13.469  22.522   4.129
11603CHOL    R333040  13.308  22.648   4.171
11603CHOL    R433041  13.502  22.648   4.077
11603CHOL    R533042  13.345  22.792   4.111
11603CHOL    C133043  13.401  23.007   4.022
11603CHOL    C233044  13.457  23.223   3.933
11604CHOL   ROH33045  -1.550  17.025  14.113
11604CHOL    R133046  -1.678  17.109  14.161
11604CHOL    R233047  -1.653  17.310  14.275
11604CHOL    R333048  -1.821  17.203  14.215
11604CHOL    R433049  -1.765  17.384  14.317
11604CHOL    R533050  -1.949  17.286  14.263
11604CHOL    C133051  -2.141  17.412  14.334
11604CHOL    C233052  -2.332  17.538  14.406
11605CHOL   ROH33053  18.372  21.041   8.178
11605CHOL    R133054  18.462  21.172   8.164
11605CHOL    R233055  18.431  21.321   7.987
11605CHOL    R333056  18.564  21.320   8.148
11605CHOL    R433057  18.510  21.436   7.974
11605CHOL    R533058  18.654  21.451   8.134
11605CHOL    C133059  18.789  21.649   8.112
11605CHOL    C233060  18.925  21.846   8.091
11606CHOL   ROH33061  11.140   0.076   0.045
11606CHOL    R133062  11.156  -0.036  -0.069
11606CHOL    R233063  11.232   0.020  -0.282
11606CHOL    R333064  11.174  -0.161  -0.196
11606CHOL    R433065  11.246  -0.077  -0.381
11606CHOL    R533066  11.190  -0.272  -0.310
11606CHOL    C133067  11.213  -0.440  -0.480
11606CHOL    C233068  11.237  -0.607  -0.651
11607CHOL   ROH33069  -2.744  15.650  12.592
11607CHOL    R133070  -2.888  15.714  12.621
11607CHOL    R233071  -2.955  15.765  12.838
11607CHOL    R333072  -3.049  15.787  12.653
11607CHOL    R433073  -3.081  15.821  12.863
11607CHOL    R533074  -3.193  15.851  12.681
11607CHOL    C133075  -3.409  15.947  12.724
11607CHOL    C233076  -3.624  16.044  12.767
11608CHOL   ROH33077  22.056  12.821  16.365
11608CHOL    R133078  22.197  12.853  16.433
11608CHOL    R233079  22.282  13.070  16.438
11608CHOL    R333080  22.356  12.889  16.511
11608CHOL    R433081  22.405  13.098  16.498
11608CHOL    R533082  22.497  12.920  16.579
11608CHOL    C133083  22.709  12.968  16.682
11608CHOL    C233084  22.920  13.016  16.784
11609CHOL   ROH33085   7.441  11.667  -3.822
11609CHOL    R133086   7.414  11.683  -3.979
11609CHOL    R233087   7.200  11.725  -4.061
11609CHOL    R333088   7.385  11.702  -4.156
11609CHOL    R433089   7.177  11.739  -4.198
11609CHOL    R533090   7.358  11.718  -4.312
11609CHOL    C133091   7.318  11.742  -4.548
11609CHOL    C233092   7.278  11.767  -4.783
11610CHOL   ROH33093  11.372  23.606   6.913
11610CHOL    R133094  11.391  23.761   6.878
11610CHOL    R233095  11.526  23.898   7.010
11610CHOL    R333096  11.413  23.935   6.838
11610CHOL    R433097  11.543  24.034   6.979
11610CHOL    R533098  11.432  24.090   6.802
11610CHOL    C133099  11.462  24.322   6.749
11610CHOL    C233100  11.491  24.555   6.696
11611CHOL   ROH33101  14.015  -1.635   3.196
11611CHOL    R133102  14.064  -1.767   3.120
11611CHOL    R233103  14.255  -1.764   2.986
11611CHOL    R333104  14.120  -1.915   3.035
11611CHOL    R433105  14.298  -1.880   2.920
11611CHOL    R533106  14.169  -2.047   2.959
11611CHOL    C133107  14.243  -2.245   2.845
11611CHOL    C233108  14.317  -2.443   2.731
11612CHOL   ROH33109  23.822   9.508   9.868
11612CHOL    R133110  23.982   9.503   9.868
11612CHOL    R233111  24.106   9.630   9.716
11612CHOL    R333112  24.162   9.497   9.867
11612CHOL    R433113  24.246   9.625   9.716
11612CHOL    R533114  24.322   9.492   9.867
11612CHOL    C133115  24.561   9.484   9.867
11612CHOL    C233116  24.801   9.476   9.866
11613CHOL   ROH33117  21.433  17.394   7.342
11613CHOL    R133118  21.565  17.479   7.311
11613CHOL    R233119  21.736  17.390   7.180
11613CHOL    R333120  21.714  17.574   7.276
11613CHOL    R433121  21.852  17.464   7.153
11613CHOL    R533122  21.846  17.659   7.244
11613CHOL    C133123  22.044  17.786   7.198
11613CHOL    C233124  22.242  17.913   7.151
11614CHOL   ROH33125  19.326  14.677   0.617
11614CHOL    R133126  19.432  14.729   0.509
11614CHOL    R233127  19.389  14.712   0.280
11614CHOL    R333128  19.552  14.786   0.388
11614CHOL    R433129  19.482  14.757   0.186
11614CHOL    R533130  19.658  14.838   0.280
11614CHOL    C133131  19.818  14.915   0.118
11614CHOL    C233132  19.978  14.993  -0.044
11615CHOL   ROH33133  -1.411  17.286  14.026
11615CHOL    R133134  -1.539  17.371  14.072
11615CHOL    R233135  -1.514  17.572  14.187
11615CHOL    R333136  -1.683  17.466  14.124
11615CHOL    R433137  -1.626  17.646  14.227
11615CHOL    R533138  -1.810  17.551  14.170
11615CHOL    C133139  -2.002  17.677  14.239
11615CHOL    C233140  -2.194  17.804  14.308
11616CHOL   ROH33141  21.745   2.850   7.813
11616CHOL    R133142  21.881   2.769   7.791
11616CHOL    R233143  21.961   2.726   7.576
11616CHOL    R333144  22.034   2.678   7.765
11616CHOL    R433145  22.080   2.655   7.556
11616CHOL    R533146  22.170   2.596   7.743
11616CHOL    C133147  22.374   2.475   7.709
11616CHOL    C233148  22.578   2.353   7.676
11617CHOL   ROH33149   0.935  16.362  18.675
11617CHOL    R133150   0.837  16.433  18.779
11617CHOL    R233151   0.893  16.636  18.878
11617CHOL    R333152   0.726  16.512  18.897
11617CHOL    R433153   0.807  16.698  18.969
11617CHOL    R533154   0.628  16.583  19.001
11617CHOL    C133155   0.480  16.689  19.158
11617CHOL    C233156   0.332  16.795  19.315
11618CHOL   ROH33157  19.038  18.275  16.506
11618CHOL    R133158  19.142  18.376  16.574
11618CHOL    R233159  19.177  18.589  16.486
11618CHOL    R333160  19.259  18.490  16.650
11618CHOL    R433161  19.267  18.678  16.546
11618CHOL    R533162  19.362  18.590  16.718
11618CHOL    C133163  19.518  18.742  16.820
11618CHOL    C233164  19.674  18.893  16.922
11619CHOL   ROH33165  22.705  13.550   5.328
11619CHOL    R133166  22.850  13.591   5.275
11619CHOL    R233167  22.882  13.785   5.150
11619CHOL    R333168  23.014  13.637   5.215
11619CHOL    R433169  23.009  13.821   5.104
11619CHOL    R533170  23.159  13.678   5.162
11619CHOL    C133171  23.377  13.739   5.082
11619CHOL    C233172  23.595  13.801   5.003
11620CHOL   ROH33173  16.297  22.379   9.664
11620CHOL    R133174  16.372  22.520   9.661
11620CHOL    R233175  16.592  22.538   9.586
11620CHOL    R333176  16.456  22.680   9.658
11620CHOL    R433177  16.657  22.662   9.584
11620CHOL    R533178  16.531  22.821   9.655
11620CHOL    C133179  16.643  23.033   9.650
11620CHOL    C233180  16.755  23.245   9.645
11621CHOL   ROH33181  15.693  10.794  -2.796
11621CHOL    R133182  15.762  10.800  -2.940
11621CHOL    R233183  15.684  10.945  -3.105
11621CHOL    R333184  15.841  10.807  -3.102
11621CHOL    R433185  15.745  10.950  -3.231
11621CHOL    R533186  15.910  10.812  -3.246
11621CHOL    C133187  16.014  10.821  -3.462
11621CHOL    C233188  16.118  10.830  -3.678
11622CHOL   ROH33189   6.840  21.313   2.274
11622CHOL    R133190   6.807  21.441   2.183
11622CHOL    R233191   6.854  21.656   2.258
11622CHOL    R333192   6.769  21.584   2.082
11622CHOL    R433193   6.825  21.768   2.179
11622CHOL    R533194   6.735  21.712   1.991
11622CHOL    C133195   6.685  21.903   1.855
11622CHOL    C233196   6.635  22.094   1.719
11623CHOL   ROH33197  -2.290  16.806   7.777
11623CHOL    R133198  -2.430  16.877   7.748
11623CHOL    R233199  -2.629  16.792   7.836
11623CHOL    R333200  -2.588  16.958   7.715
11623CHOL    R433201  -2.751  16.855   7.810
11623CHOL    R533202  -2.728  17.029   7.686
11623CHOL    C133203  -2.938  17.136   7.642
11623CHOL    C233204  -3.148  17.243   7.599
11624CHOL   ROH33205   4.012  -0.047  17.879
11624CHOL    R133206   3.946  -0.161  17.969
11624CHOL    R233207   4.011  -0.384  17.947
11624CHOL    R333208   3.871  -0.290  18.070
11624CHOL    R433209   3.953  -0.484  18.025
11624CHOL    R533210   3.804  -0.404  18.160
11624CHOL    C133211   3.705  -0.576  18.295
11624CHOL    C233212   3.605  -0.748  18.430
11625CHOL   ROH33213  23.417   9.015  13.600
11625CHOL    R133214  23.573   9.005  13.636
11625CHOL    R233215  23.717   8.873  13.510
11625CHOL    R333216  23.747   8.993  13.677
11625CHOL    R433217  23.853   8.864  13.541
11625CHOL    R533218  23.903   8.983  13.714
11625CHOL    C133219  24.136   8.968  13.768
11625CHOL    C233220  24.370   8.952  13.822
11626CHOL   ROH33221  17.532  15.254  20.313
11626CHOL    R133222  17.623  15.310  20.433
11626CHOL    R233223  17.827  15.413  20.390
11626CHOL    R333224  17.724  15.372  20.567
11626CHOL    R433225  17.907  15.461  20.495
11626CHOL    R533226  17.815  15.428  20.687
11626CHOL    C133227  17.951  15.511  20.867
11626CHOL    C233228  18.087  15.594  21.046
11627CHOL   ROH33229   0.489  15.006  19.076
11627CHOL    R133230   0.388  15.064  19.186
11627CHOL    R233231   0.467  15.172  19.377
11627CHOL    R333232   0.274  15.129  19.309
11627CHOL    R433233   0.378  15.222  19.473
11627CHOL    R533234   0.173  15.187  19.418
11627CHOL    C133235   0.021  15.274  19.583
11627CHOL    C233236  -0.131  15.361  19.747
11628CHOL   ROH33237   8.963  20.456   0.688
11628CHOL    R133238   8.951  20.577   0.584
11628CHOL    R233239   9.097  20.758   0.593
11628CHOL    R333240   8.938  20.713   0.467
11628CHOL    R433241   9.087  20.864   0.502
11628CHOL    R533242   8.926  20.833   0.362
11628CHOL    C133243   8.908  21.015   0.206
11628CHOL    C233244   8.890  21.196   0.050
11629CHOL   ROH33245  -2.054   2.597  11.002
11629CHOL    R133246  -2.191   2.516  11.015
11629CHOL    R233247  -2.195   2.301  11.107
11629CHOL    R333248  -2.345   2.424  11.030
11629CHOL    R433249  -2.315   2.230  11.118
11629CHOL    R533250  -2.482   2.343  11.043
11629CHOL    C133251  -2.688   2.221  11.063
11629CHOL    C233252  -2.894   2.099  11.082
11630CHOL   ROH33253  -3.503   6.045  11.425
11630CHOL    R133254  -3.655   6.000  11.444
11630CHOL    R233255  -3.812   6.144  11.539
11630CHOL    R333256  -3.827   5.949  11.465
11630CHOL    R433257  -3.946   6.104  11.555
11630CHOL    R533258  -3.979   5.904  11.483
11630CHOL    C133259  -4.207   5.836  11.512
11630CHOL    C233260  -4.436   5.769  11.540
11631CHOL   ROH33261   7.798   3.048  21.938
11631CHOL    R133262   7.774   2.976  22.079
11631CHOL    R233263   7.921   3.007  22.257
11631CHOL    R333264   7.746   2.895  22.237
11631CHOL    R433265   7.900   2.944  22.380
11631CHOL    R533266   7.722   2.823  22.377
11631CHOL    C133267   7.686   2.714  22.588
11631CHOL    C233268   7.649   2.606  22.799
11632CHOL   ROH33269  -0.001  19.353  13.483
11632CHOL    R133270  -0.115  19.457  13.524
11632CHOL    R233271  -0.234  19.433  13.723
11632CHOL    R333272  -0.243  19.575  13.570
11632CHOL    R433273  -0.334  19.524  13.759
11632CHOL    R533274  -0.357  19.679  13.611
11632CHOL    C133275  -0.529  19.835  13.673
11632CHOL    C233276  -0.700  19.992  13.735
11633CHOL   ROH33277  11.158  18.248  21.236
11633CHOL    R133278  11.174  18.343  21.364
11633CHOL    R233279  11.371  18.462  21.401
11633CHOL    R333280  11.193  18.449  21.508
11633CHOL    R433281  11.385  18.545  21.513
11633CHOL    R533282  11.209  18.544  21.636
11633CHOL    C133283  11.233  18.686  21.828
11633CHOL    C233284  11.258  18.828  22.020
11634CHOL   ROH33285   7.022  21.769  17.086
11634CHOL    R133286   6.990  21.903  17.167
11634CHOL    R233287   7.159  22.053  17.224
11634CHOL    R333288   6.953  22.054  17.258
11634CHOL    R433289   7.131  22.170  17.295
11634CHOL    R533290   6.921  22.188  17.339
11634CHOL    C133291   6.873  22.389  17.460
11634CHOL    C233292   6.824  22.590  17.582
11635CHOL   ROH33293  10.963  22.384  16.502
11635CHOL    R133294  10.978  22.525  16.576
11635CHOL    R233295  11.051  22.714  16.461
11635CHOL    R333296  10.996  22.683  16.660
11635CHOL    R433297  11.065  22.837  16.526
11635CHOL    R533298  11.011  22.824  16.735
11635CHOL    C133299  11.034  23.035  16.846
11635CHOL    C233300  11.057  23.246  16.958
11636CHOL   ROH33301   3.541  11.600  -2.473
11636CHOL    R133302   3.464  11.619  -2.612
11636CHOL    R233303   3.330  11.807  -2.650
11636CHOL    R333304   3.377  11.640  -2.768
11636CHOL    R433305   3.263  11.823  -2.772
11636CHOL    R533306   3.300  11.659  -2.907
11636CHOL    C133307   3.184  11.688  -3.115
11636CHOL    C233308   3.068  11.717  -3.324
11637CHOL   ROH33309   7.929  -3.167   5.417
11637CHOL    R133310   7.906  -3.316   5.364
11637CHOL    R233311   7.997  -3.386   5.161
11637CHOL    R333312   7.880  -3.484   5.304
11637CHOL    R433313   7.977  -3.517   5.114
11637CHOL    R533314   7.857  -3.633   5.251
11637CHOL    C133315   7.823  -3.857   5.171
11637CHOL    C233316   7.789  -4.080   5.091
11638CHOL   ROH33317  10.700   2.759  -2.066
11638CHOL    R133318  10.710   2.674  -2.201
11638CHOL    R233319  10.847   2.744  -2.377
11638CHOL    R333320  10.721   2.579  -2.354
11638CHOL    R433321  10.855   2.670  -2.495
11638CHOL    R533322  10.731   2.494  -2.489
11638CHOL    C133323  10.746   2.367  -2.692
11638CHOL    C233324  10.761   2.240  -2.895
11639CHOL   ROH33325  21.246   2.600  13.597
11639CHOL    R133326  21.374   2.512  13.638
11639CHOL    R233327  21.518   2.428  13.475
11639CHOL    R333328  21.517   2.414  13.683
11639CHOL    R433329  21.629   2.351  13.510
11639CHOL    R533330  21.644   2.326  13.724
11639CHOL    C133331  21.836   2.194  13.785
11639CHOL    C233332  22.027   2.063  13.846
11640CHOL   ROH33333  -3.940  12.431  11.518
11640CHOL    R133334  -4.096  12.460  11.536
11640CHOL    R233335  -4.177  12.570  11.725
11640CHOL    R333336  -4.272  12.493  11.556
11640CHOL    R433337  -4.314  12.596  11.741
11640CHOL    R533338  -4.428  12.521  11.574
11640CHOL    C133339  -4.663  12.565  11.601
11640CHOL    C233340  -4.897  12.608  11.628
11641CHOL   ROH33341  16.505   7.665  -2.156
11641CHOL    R133342  16.579   7.639  -2.296
11641CHOL    R233343  16.635   7.815  -2.437
11641CHOL    R333344  16.661   7.609  -2.452
11641CHOL    R433345  16.699   7.792  -2.559
11641CHOL    R533346  16.735   7.582  -2.592
11641CHOL    C133347  16.845   7.543  -2.801
11641CHOL    C233348  16.956   7.503  -3.011
11642CHOL   ROH33349   5.828  22.150   4.107
11642CHOL    R133350   5.780  22.285   4.036
11642CHOL    R233351   5.838  22.494   4.121
11642CHOL    R333352   5.725  22.437   3.955
11642CHOL    R433353   5.796  22.612   4.059
11642CHOL    R533354   5.677  22.571   3.884
11642CHOL    C133355   5.605  22.774   3.777
11642CHOL    C233356   5.532  22.976   3.670
11643CHOL   ROH33357  15.292  15.672  21.585
11643CHOL    R133358  15.352  15.738  21.718
11643CHOL    R233359  15.450  15.950  21.713
11643CHOL    R333360  15.420  15.813  21.867
11643CHOL    R433361  15.503  16.008  21.829
11643CHOL    R533362  15.480  15.879  22.000
11643CHOL    C133363  15.570  15.978  22.198
11643CHOL    C233364  15.660  16.078  22.397
11644CHOL   ROH33365  11.410   8.920  -4.036
11644CHOL    R133366  11.423   8.907  -4.195
11644CHOL    R233367  11.303   9.047  -4.337
11644CHOL    R333368  11.438   8.892  -4.374
11644CHOL    R433369  11.315   9.035  -4.476
11644CHOL    R533370  11.451   8.878  -4.533
11644CHOL    C133371  11.471   8.859  -4.771
11644CHOL    C233372  11.491   8.839  -5.009
11645CHOL   ROH33373   4.977  19.545  18.974
11645CHOL    R133374   4.926  19.655  19.078
11645CHOL    R233375   4.892  19.601  19.303
11645CHOL    R333376   4.869  19.779  19.196
11645CHOL    R433377   4.847  19.697  19.394
11645CHOL    R533378   4.819  19.889  19.301
11645CHOL    C133379   4.742  20.054  19.457
11645CHOL    C233380   4.666  20.219  19.614
11646CHOL   ROH33381  -0.596  18.525   5.900
11646CHOL    R133382  -0.713  18.623   5.851
11646CHOL    R233383  -0.857  18.723   6.004
11646CHOL    R333384  -0.844  18.733   5.796
11646CHOL    R433385  -0.959  18.809   5.962
11646CHOL    R533386  -0.960  18.831   5.747
11646CHOL    C133387  -1.135  18.978   5.674
11646CHOL    C233388  -1.310  19.125   5.601
11647CHOL   ROH33389   0.241  -0.038  12.129
11647CHOL    R133390   0.133  -0.154  12.152
11647CHOL    R233391   0.184  -0.342  12.280
11647CHOL    R333392   0.012  -0.285  12.178
11647CHOL    R433393   0.090  -0.444  12.300
11647CHOL    R533394  -0.096  -0.401  12.201
11647CHOL    C133395  -0.258  -0.575  12.235
11647CHOL    C233396  -0.420  -0.749  12.269
11648CHOL   ROH33397   6.087  14.451  22.781
11648CHOL    R133398   6.046  14.490  22.931
11648CHOL    R233399   6.146  14.670  23.040
11648CHOL    R333400   6.000  14.534  23.099
11648CHOL    R433401   6.110  14.704  23.171
11648CHOL    R533402   5.959  14.573  23.249
11648CHOL    C133403   5.897  14.631  23.473
11648CHOL    C233404   5.835  14.689  23.697
11649CHOL   ROH33405  17.051  21.403   5.838
11649CHOL    R133406  17.127  21.537   5.796
11649CHOL    R233407  17.342  21.584   5.876
11649CHOL    R333408  17.213  21.688   5.749
11649CHOL    R433409  17.408  21.701   5.840
11649CHOL    R533410  17.289  21.822   5.707
11649CHOL    C133411  17.404  22.024   5.645
11649CHOL    C233412  17.518  22.225   5.582
11650CHOL   ROH33413   0.950   4.651  19.263
11650CHOL    R133414   0.851   4.592  19.374
11650CHOL    R233415   0.891   4.386  19.474
11650CHOL    R333416   0.739   4.527  19.499
11650CHOL    R433417   0.804   4.334  19.571
11650CHOL    R533418   0.640   4.468  19.610
11650CHOL    C133419   0.490   4.380  19.776
11650CHOL    C233420   0.341   4.292  19.942
11651CHOL   ROH33421  18.669  -0.981  10.131
11651CHOL    R133422  18.768  -1.107  10.136
11651CHOL    R233423  18.958  -1.105  10.272
11651CHOL    R333424  18.879  -1.249  10.143
11651CHOL    R433425  19.044  -1.215  10.276
11651CHOL    R533426  18.978  -1.374  10.148
11651CHOL    C133427  19.126  -1.563  10.156
11651CHOL    C233428  19.274  -1.752  10.164
11652CHOL   ROH33429  -1.278  16.259  15.798
11652CHOL    R133430  -1.404  16.333  15.864
11652CHOL    R233431  -1.536  16.227  16.023
11652CHOL    R333432  -1.545  16.417  15.937
11652CHOL    R433433  -1.647  16.291  16.080
11652CHOL    R533434  -1.671  16.491  16.003
11652CHOL    C133435  -1.860  16.602  16.101
11652CHOL    C233436  -2.048  16.714  16.200
11653CHOL   ROH33437  -1.846  11.839   2.270
11653CHOL    R133438  -1.980  11.855   2.184
11653CHOL    R233439  -2.136  11.682   2.172
11653CHOL    R333440  -2.131  11.872   2.087
11653CHOL    R433441  -2.254  11.696   2.097
11653CHOL    R533442  -2.264  11.888   2.000
11653CHOL    C133443  -2.465  11.912   1.871
11653CHOL    C233444  -2.666  11.935   1.742
11654CHOL   ROH33445   1.519  20.840  13.248
11654CHOL    R133446   1.431  20.965  13.294
11654CHOL    R233447   1.488  21.182  13.230
11654CHOL    R333448   1.332  21.106  13.346
11654CHOL    R433449   1.410  21.292  13.270
11654CHOL    R533450   1.244  21.232  13.392
11654CHOL    C133451   1.111  21.419  13.461
11654CHOL    C233452   0.979  21.607  13.530
11655CHOL   ROH33453  13.712   1.666  20.549
11655CHOL    R133454  13.752   1.566  20.668
11655CHOL    R233455  13.884   1.378  20.626
11655CHOL    R333456  13.798   1.454  20.801
11655CHOL    R433457  13.919   1.291  20.730
11655CHOL    R533458  13.839   1.354  20.919
11655CHOL    C133459  13.899   1.205  21.097
11655CHOL    C233460  13.960   1.055  21.275
11656CHOL   ROH33461  -0.328  15.640   2.006
11656CHOL    R133462  -0.444  15.708   1.920
11656CHOL    R233463  -0.456  15.940   1.897
11656CHOL    R333464  -0.574  15.785   1.822
11656CHOL    R433465  -0.557  16.000   1.821
11656CHOL    R533466  -0.690  15.853   1.736
11656CHOL    C133467  -0.864  15.956   1.606
11656CHOL    C233468  -1.038  16.058   1.477
11657CHOL   ROH33469   1.157   2.429  17.939
11657CHOL    R133470   1.058   2.346  18.034
11657CHOL    R233471   1.138   2.173  18.168
11657CHOL    R333472   0.947   2.252  18.140
11657CHOL    R433473   1.052   2.100  18.251
11657CHOL    R533474   0.849   2.169  18.234
11657CHOL    C133475   0.700   2.044  18.376
11657CHOL    C233476   0.552   1.919  18.518
11658CHOL   ROH33477   5.079   9.162  -3.270
11658CHOL    R133478   5.025   9.154  -3.420
11658CHOL    R233479   4.955   8.951  -3.512
11658CHOL    R333480   4.964   9.145  -3.590
11658CHOL    R433481   4.908   8.944  -3.644
11658CHOL    R533482   4.910   9.137  -3.740
11658CHOL    C133483   4.830   9.124  -3.966
11658CHOL    C233484   4.749   9.112  -4.191
11659CHOL   ROH33485   0.470   8.514  -0.369
11659CHOL    R133486   0.361   8.501  -0.486
11659CHOL    R233487   0.282   8.293  -0.554
11659CHOL    R333488   0.239   8.487  -0.617
11659CHOL    R433489   0.187   8.282  -0.656
11659CHOL    R533490   0.130   8.474  -0.734
11659CHOL    C133491  -0.033   8.456  -0.908
11659CHOL    C233492  -0.196   8.437  -1.083
11660CHOL   ROH33493   6.029   4.191  -2.362
11660CHOL    R133494   5.984   4.126  -2.501
11660CHOL    R233495   6.041   3.906  -2.554
11660CHOL    R333496   5.934   4.052  -2.657
11660CHOL    R433497   6.002   3.849  -2.676
11660CHOL    R533498   5.890   3.987  -2.796
11660CHOL    C133499   5.823   3.889  -3.005
11660CHOL    C233500   5.756   3.791  -3.214
11661CHOL   ROH33501  13.319  20.378   1.015
11661CHOL    R133502  13.359  20.497   0.915
11661CHOL    R233503  13.520  20.465   0.750
11661CHOL    R333504  13.403  20.630   0.803
11661CHOL    R433505  13.555  20.569   0.663
11661CHOL    R533506  13.443  20.748   0.703
11661CHOL    C133507  13.503  20.926   0.553
11661CHOL    C233508  13.562  21.104   0.403
11662CHOL   ROH33509  13.453  -3.306  12.759
11662CHOL    R133510  13.495  -3.457  12.793
11662CHOL    R233511  13.570  -3.515  13.006
11662CHOL    R333512  13.543  -3.626  12.831
11662CHOL    R433513  13.607  -3.647  13.035
11662CHOL    R533514  13.585  -3.777  12.864
11662CHOL    C133515  13.648  -4.002  12.915
11662CHOL    C233516  13.712  -4.228  12.966
11663CHOL   ROH33517  -2.672  16.073  11.888
11663CHOL    R133518  -2.814  16.142  11.911
11663CHOL    R233519  -2.917  16.138  12.120
11663CHOL    R333520  -2.974  16.221  11.937
11663CHOL    R433521  -3.042  16.199  12.140
11663CHOL    R533522  -3.117  16.290  11.960
11663CHOL    C133523  -3.330  16.394  11.995
11663CHOL    C233524  -3.543  16.498  12.029
11664CHOL   ROH33525  21.731  17.415   9.236
11664CHOL    R133526  21.867  17.499   9.224
11664CHOL    R233527  22.067  17.396   9.162
11664CHOL    R333528  22.019  17.593   9.211
11664CHOL    R433529  22.185  17.470   9.152
11664CHOL    R533530  22.155  17.677   9.200
11664CHOL    C133531  22.359  17.803   9.182
11664CHOL    C233532  22.562  17.929   9.164
11665CHOL   ROH33533   2.743   2.889   0.232
11665CHOL    R133534   2.662   2.807   0.122
11665CHOL    R233535   2.492   2.659   0.183
11665CHOL    R333536   2.570   2.714  -0.003
11665CHOL    R433537   2.421   2.587   0.087
11665CHOL    R533538   2.488   2.632  -0.113
11665CHOL    C133539   2.366   2.509  -0.279
11665CHOL    C233540   2.244   2.385  -0.444
11666CHOL   ROH33541  -3.518   8.011  13.709
11666CHOL    R133542  -3.671   7.988  13.748
11666CHOL    R233543  -3.732   7.923  13.963
11666CHOL    R333544  -3.844   7.961  13.791
11666CHOL    R433545  -3.867   7.902  13.997
11666CHOL    R533546  -3.998   7.938  13.830
11666CHOL    C133547  -4.228   7.903  13.888
11666CHOL    C233548  -4.458   7.868  13.946
11667CHOL   ROH33549   0.763  18.787  16.061
11667CHOL    R133550   0.659  18.886  16.131
11667CHOL    R233551   0.731  19.073  16.251
11667CHOL    R333552   0.541  18.997  16.210
11667CHOL    R433553   0.640  19.159  16.312
11667CHOL    R533554   0.437  19.097  16.279
11667CHOL    C133555   0.280  19.245  16.384
11667CHOL    C233556   0.123  19.394  16.489
11668CHOL   ROH33557  15.811  -0.985   3.501
11668CHOL    R133558  15.881  -1.112   3.433
11668CHOL    R233559  16.088  -1.093   3.328
11668CHOL    R333560  15.959  -1.255   3.356
11668CHOL    R433561  16.149  -1.204   3.268
11668CHOL    R533562  16.029  -1.382   3.288
11668CHOL    C133563  16.133  -1.572   3.185
11668CHOL    C233564  16.237  -1.762   3.083
11669CHOL   ROH33565   4.463   0.051  18.308
11669CHOL    R133566   4.402  -0.063  18.403
11669CHOL    R233567   4.416  -0.045  18.635
11669CHOL    R333568   4.334  -0.190  18.510
11669CHOL    R433569   4.363  -0.144  18.718
11669CHOL    R533570   4.274  -0.304  18.605
11669CHOL    C133571   4.183  -0.474  18.748
11669CHOL    C233572   4.092  -0.645  18.890
11670CHOL   ROH33573  21.998  16.858   8.655
11670CHOL    R133574  22.137  16.936   8.637
11670CHOL    R233575  22.242  16.947   8.430
11670CHOL    R333576  22.293  17.023   8.617
11670CHOL    R433577  22.364  17.015   8.414
11670CHOL    R533578  22.431  17.101   8.600
11670CHOL    C133579  22.640  17.218   8.573
11670CHOL    C233580  22.848  17.334   8.546
11671CHOL   ROH33581  -0.026  19.196  13.802
11671CHOL    R133582  -0.140  19.299  13.846
11671CHOL    R233583  -0.258  19.271  14.045
11671CHOL    R333584  -0.268  19.416  13.894
11671CHOL    R433585  -0.358  19.361  14.083
11671CHOL    R533586  -0.382  19.519  13.938
11671CHOL    C133587  -0.554  19.674  14.003
11671CHOL    C233588  -0.725  19.829  14.069
11672CHOL   ROH33589  17.225  19.376  17.275
11672CHOL    R133590  17.311  19.487  17.351
11672CHOL    R233591  17.335  19.702  17.263
11672CHOL    R333592  17.408  19.613  17.437
11672CHOL    R433593  17.410  19.799  17.330
11672CHOL    R533594  17.494  19.724  17.513
11672CHOL    C133595  17.622  19.891  17.628
11672CHOL    C233596  17.751  20.058  17.742
11673CHOL   ROH33597   0.158   6.549  19.447
11673CHOL    R133598   0.053   6.504  19.559
11673CHOL    R233599   0.110   6.510  19.786
11673CHOL    R333600  -0.064   6.453  19.686
11673CHOL    R433601   0.019   6.470  19.884
11673CHOL    R533602  -0.169   6.408  19.798
11673CHOL    C133603  -0.326   6.340  19.966
11673CHOL    C233604  -0.483   6.273  20.135
11674CHOL   ROH33605  10.655   3.334  -2.412
11674CHOL    R133606  10.664   3.256  -2.552
11674CHOL    R233607  10.867   3.235  -2.665
11674CHOL    R333608  10.673   3.169  -2.709
11674CHOL    R433609  10.874   3.167  -2.787
11674CHOL    R533610  10.682   3.091  -2.849
11674CHOL    C133611  10.695   2.975  -3.058
11674CHOL    C233612  10.708   2.859  -3.268
11675CHOL   ROH33613  -2.918   7.374   4.680
11675CHOL    R133614  -3.064   7.351   4.618
11675CHOL    R233615  -3.238   7.270   4.750
11675CHOL    R333616  -3.228   7.324   4.549
11675CHOL    R433617  -3.366   7.250   4.696
11675CHOL    R533618  -3.374   7.301   4.487
11675CHOL    C133619  -3.592   7.266   4.394
11675CHOL    C233620  -3.811   7.231   4.302
11676CHOL   ROH33621  -2.835   5.899  14.376
11676CHOL    R133622  -2.981   5.850  14.420
11676CHOL    R233623  -3.065   5.898  14.632
11676CHOL    R333624  -3.145   5.795  14.468
11676CHOL    R433625  -3.193   5.856  14.670
11676CHOL    R533626  -3.292   5.747  14.512
11676CHOL    C133627  -3.511   5.673  14.577
11676CHOL    C233628  -3.730   5.600  14.643
11677CHOL   ROH33629  22.283   4.935  14.202
11677CHOL    R133630  22.426   4.879  14.248
11677CHOL    R233631  22.604   4.868  14.099
11677CHOL    R333632  22.586   4.817  14.300
11677CHOL    R433633  22.729   4.820  14.139
11677CHOL    R533634  22.729   4.762  14.346
11677CHOL    C133635  22.943   4.678  14.416
11677CHOL    C233636  23.157   4.595  14.485
11678CHOL   ROH33637  11.267  12.190  -3.887
11678CHOL    R133638  11.283  12.219  -4.043
11678CHOL    R233639  11.235  12.054  -4.201
11678CHOL    R333640  11.300  12.252  -4.220
11678CHOL    R433641  11.249  12.080  -4.338
11678CHOL    R533642  11.316  12.281  -4.376
11678CHOL    C133643  11.340  12.325  -4.611
11678CHOL    C233644  11.363  12.368  -4.845
11679CHOL   ROH33645  -1.498   5.857  17.264
11679CHOL    R133646  -1.623   5.810  17.352
11679CHOL    R233647  -1.593   5.695  17.552
11679CHOL    R333648  -1.765   5.757  17.450
11679CHOL    R433649  -1.703   5.654  17.629
11679CHOL    R533650  -1.890   5.711  17.538
11679CHOL    C133651  -2.078   5.640  17.670
11679CHOL    C233652  -2.266   5.570  17.801
11680CHOL   ROH33653  -3.056  13.374   5.802
11680CHOL    R133654  -3.204  13.413   5.755
11680CHOL    R233655  -3.352  13.518   5.902
11680CHOL    R333656  -3.370  13.457   5.702
11680CHOL    R433657  -3.482  13.552   5.861
11680CHOL    R533658  -3.518  13.496   5.655
11680CHOL    C133659  -3.740  13.555   5.585
11680CHOL    C233660  -3.962  13.614   5.515
11681CHOL   ROH33661  13.666  19.948  19.078
11681CHOL    R133662  13.705  20.065  19.180
11681CHOL    R233663  13.821  20.019  19.377
11681CHOL    R333664  13.749  20.197  19.294
11681CHOL    R433665  13.855  20.122  19.466
11681CHOL    R533666  13.788  20.314  19.396
11681CHOL    C133667  13.847  20.490  19.549
11681CHOL    C233668  13.905  20.665  19.701
11682CHOL   ROH33669  10.050  -3.916   7.814
11682CHOL    R133670  10.046  -4.075   7.794
11682CHOL    R233671  10.238  -4.193   7.734
11682CHOL    R333672  10.042  -4.253   7.772
11682CHOL    R433673  10.235  -4.331   7.717
11682CHOL    R533674  10.038  -4.412   7.752
11682CHOL    C133675  10.033  -4.650   7.723
11682CHOL    C233676  10.027  -4.888   7.693
11683CHOL   ROH33677  13.105  22.591  15.236
11683CHOL    R133678  13.143  22.734  15.298
11683CHOL    R233679  13.214  22.908  15.160
11683CHOL    R333680  13.187  22.894  15.367
11683CHOL    R433681  13.247  23.033  15.214
11683CHOL    R533682  13.225  23.037  15.429
11683CHOL    C133683  13.283  23.250  15.521
11683CHOL    C233684  13.340  23.464  15.613
11684CHOL   ROH33685  21.691  16.717   6.710
11684CHOL    R133686  21.825  16.797   6.674
11684CHOL    R233687  21.972  16.716   6.512
11684CHOL    R333688  21.976  16.886   6.633
11684CHOL    R433689  22.090  16.786   6.480
11684CHOL    R533690  22.110  16.966   6.597
11684CHOL    C133691  22.311  17.085   6.543
11684CHOL    C233692  22.512  17.204   6.489
11685CHOL   ROH33693   8.297  -1.536  17.839
11685CHOL    R133694   8.279  -1.667  17.929
11685CHOL    R233695   8.311  -1.880  17.838
11685CHOL    R333696   8.259  -1.815  18.029
11685CHOL    R433697   8.295  -1.995  17.916
11685CHOL    R533698   8.241  -1.946  18.119
11685CHOL    C133699   8.214  -2.144  18.253
11685CHOL    C233700   8.187  -2.341  18.388
11686CHOL   ROH33701   3.578  21.141  15.682
11686CHOL    R133702   3.506  21.270  15.744
11686CHOL    R233703   3.603  21.481  15.727
11686CHOL    R333704   3.425  21.415  15.814
11686CHOL    R433705   3.540  21.594  15.781
11686CHOL    R533706   3.353  21.543  15.876
11686CHOL    C133707   3.245  21.737  15.969
11686CHOL    C233708   3.137  21.930  16.062
11687CHOL   ROH33709  15.354  17.414  -0.682
11687CHOL    R133710  15.417  17.495  -0.804
11687CHOL    R233711  15.495  17.385  -0.995
11687CHOL    R333712  15.489  17.587  -0.942
11687CHOL    R433713  15.551  17.456  -1.102
11687CHOL    R533714  15.552  17.668  -1.064
11687CHOL    C133715  15.647  17.790  -1.248
11687CHOL    C233716  15.742  17.912  -1.432
11688CHOL   ROH33717   9.672  -2.714  16.023
11688CHOL    R133718   9.667  -2.858  16.092
11688CHOL    R233719   9.861  -2.984  16.122
11688CHOL    R333720   9.661  -3.020  16.171
11688CHOL    R433721   9.857  -3.110  16.183
11688CHOL    R533722   9.657  -3.164  16.240
11688CHOL    C133723   9.649  -3.380  16.344
11688CHOL    C233724   9.642  -3.596  16.448
11689CHOL   ROH33725   3.320   6.855  -2.157
11689CHOL    R133726   3.244   6.821  -2.294
11689CHOL    R233727   3.011   6.823  -2.306
11689CHOL    R333728   3.159   6.783  -2.448
11689CHOL    R433729   2.945   6.794  -2.426
11689CHOL    R533730   3.083   6.749  -2.585
11689CHOL    C133731   2.969   6.698  -2.790
11689CHOL    C233732   2.855   6.647  -2.995
11690CHOL   ROH33733   1.650  20.417   5.603
11690CHOL    R133734   1.559  20.539   5.553
11690CHOL    R233735   1.652  20.747   5.505
11690CHOL    R333736   1.456  20.676   5.497
11690CHOL    R433737   1.573  20.854   5.462
11690CHOL    R533738   1.365  20.797   5.447
11690CHOL    C133739   1.228  20.980   5.373
11690CHOL    C233740   1.091  21.163   5.298
11691CHOL   ROH33741   3.984  11.126  22.636
11691CHOL    R133742   3.928  11.141  22.785
11691CHOL    R233743   3.984  11.326  22.916
11691CHOL    R333744   3.864  11.159  22.953
11691CHOL    R433745   3.934  11.339  23.047
11691CHOL    R533746   3.807  11.174  23.101
11691CHOL    C133747   3.723  11.197  23.325
11691CHOL    C233748   3.638  11.220  23.548
11692CHOL   ROH33749   4.928  17.460  20.780
11692CHOL    R133750   4.873  17.549  20.901
11692CHOL    R233751   4.924  17.495  21.122
11692CHOL    R333752   4.810  17.648  21.037
11692CHOL    R433753   4.875  17.572  21.228
11692CHOL    R533754   4.755  17.737  21.159
11692CHOL    C133755   4.672  17.870  21.340
11692CHOL    C233756   4.589  18.003  21.522
11693CHOL   ROH33757   4.955  13.602  22.611
11693CHOL    R133758   4.900  13.634  22.758
11693CHOL    R233759   4.976  13.820  22.876
11693CHOL    R333760   4.838  13.671  22.923
11693CHOL    R433761   4.928  13.849  23.005
11693CHOL    R533762   4.783  13.704  23.070
11693CHOL    C133763   4.700  13.752  23.290
11693CHOL    C233764   4.618  13.801  23.510
11694CHOL   ROH33765  13.585   3.621  -2.072
11694CHOL    R133766  13.622   3.548  -2.210
11694CHOL    R233767  13.838   3.472  -2.251
11694CHOL    R333768  13.663   3.467  -2.365
11694CHOL    R433769  13.870   3.409  -2.372
11694CHOL    R533770  13.700   3.394  -2.502
11694CHOL    C133771  13.754   3.285  -2.709
11694CHOL    C233772  13.809   3.176  -2.916
11695CHOL   ROH33773   1.979   5.886  -0.953
11695CHOL    R133774   1.888   5.836  -1.075
11695CHOL    R233775   1.658   5.809  -1.050
11695CHOL    R333776   1.786   5.779  -1.212
11695CHOL    R433777   1.578   5.765  -1.156
11695CHOL    R533778   1.695   5.729  -1.334
11695CHOL    C133779   1.559   5.654  -1.516
11695CHOL    C233780   1.422   5.578  -1.699
11696CHOL   ROH33781  -3.557  11.657  13.866
11696CHOL    R133782  -3.711  11.672  13.908
11696CHOL    R233783  -3.774  11.681  14.132
11696CHOL    R333784  -3.884  11.688  13.955
11696CHOL    R433785  -3.908  11.694  14.169
11696CHOL    R533786  -4.038  11.703  13.996
11696CHOL    C133787  -4.268  11.725  14.059
11696CHOL    C233788  -4.499  11.747  14.122
11697CHOL   ROH33789  17.063  15.138  -0.966
11697CHOL    R133790  17.147  15.197  -1.089
11697CHOL    R233791  17.054  15.212  -1.302
11697CHOL    R333792  17.242  15.263  -1.227
11697CHOL    R433793  17.127  15.264  -1.409
11697CHOL    R533794  17.326  15.322  -1.350
11697CHOL    C133795  17.452  15.410  -1.534
11697CHOL    C233796  17.578  15.499  -1.718
11698CHOL   ROH33797  10.415  22.682  16.000
11698CHOL    R133798  10.422  22.826  16.070
11698CHOL    R233799  10.447  23.020  15.943
11698CHOL    R333800  10.429  22.987  16.149
11698CHOL    R433801  10.453  23.146  16.004
11698CHOL    R533802  10.436  23.131  16.219
11698CHOL    C133803  10.446  23.347  16.323
11698CHOL    C233804  10.456  23.562  16.428
11699CHOL   ROH33805  19.882  14.952   1.355
11699CHOL    R133806  19.996  15.007   1.258
11699CHOL    R233807  20.076  14.878   1.081
11699CHOL    R333808  20.125  15.070   1.148
11699CHOL    R433809  20.176  14.927   0.995
11699CHOL    R533810  20.239  15.125   1.051
11699CHOL    C133811  20.411  15.208   0.905
11699CHOL    C233812  20.583  15.291   0.759
11700CHOL   ROH33813  13.661  23.203   7.234
11700CHOL    R133814  13.704  23.353   7.199
11700CHOL    R233815  13.909  23.398   7.096
11700CHOL    R333816  13.753  23.522   7.160
11700CHOL    R433817  13.947  23.529   7.066
11700CHOL    R533818  13.796  23.672   7.125
11700CHOL    C133819  13.862  23.897   7.073
11700CHOL    C233820  13.927  24.122   7.020
11701CHOL   ROH33821  14.542  15.207  22.107
11701CHOL    R133822  14.591  15.270  22.246
11701CHOL    R233823  14.702  15.140  22.404
11701CHOL    R333824  14.646  15.341  22.402
11701CHOL    R433825  14.745  15.195  22.526
11701CHOL    R533826  14.695  15.404  22.540
11701CHOL    C133827  14.768  15.499  22.749
11701CHOL    C233828  14.842  15.593  22.957
11702CHOL   ROH33829   7.052  23.613  12.206
11702CHOL    R133830   7.020  23.768  12.232
11702CHOL    R233831   7.121  23.883  12.408
11702CHOL    R333832   6.984  23.941  12.262
11702CHOL    R433833   7.094  24.018  12.431
11702CHOL    R533834   6.952  24.096  12.289
11702CHOL    C133835   6.905  24.328  12.328
11702CHOL    C233836   6.857  24.560  12.368
11703CHOL   ROH33837  15.152  -2.720   7.297
11703CHOL    R133838  15.213  -2.864   7.266
11703CHOL    R233839  15.443  -2.903   7.278
11703CHOL    R333840  15.282  -3.027   7.230
11703CHOL    R433841  15.496  -3.029   7.250
11703CHOL    R533842  15.343  -3.172   7.199
11703CHOL    C133843  15.435  -3.388   7.152
11703CHOL    C233844  15.526  -3.605   7.105
11704CHOL   ROH33845  22.030  13.397  16.124
11704CHOL    R133846  22.171  13.434  16.190
11704CHOL    R233847  22.257  13.650  16.175
11704CHOL    R333848  22.329  13.476  16.265
11704CHOL    R433849  22.380  13.683  16.233
11704CHOL    R533850  22.470  13.514  16.331
11704CHOL    C133851  22.681  13.569  16.430
11704CHOL    C233852  22.892  13.625  16.530
11705CHOL   ROH33853   8.719  11.509  -3.995
11705CHOL    R133854   8.706  11.524  -4.154
11705CHOL    R233855   8.539  11.656  -4.249
11705CHOL    R333856   8.692  11.541  -4.332
11705CHOL    R433857   8.528  11.670  -4.387
11705CHOL    R533858   8.679  11.557  -4.491
11705CHOL    C133859   8.660  11.579  -4.729
11705CHOL    C233860   8.641  11.602  -4.967
11706CHOL   ROH33861   8.615  19.483  20.164
11706CHOL    R133862   8.596  19.592  20.280
11706CHOL    R233863   8.579  19.528  20.503
11706CHOL    R333864   8.575  19.715  20.410
11706CHOL    R433865   8.563  19.623  20.604
11706CHOL    R533866   8.556  19.823  20.526
11706CHOL    C133867   8.528  19.987  20.699
11706CHOL    C233868   8.499  20.150  20.873
11707CHOL   ROH33869  22.210   5.613   4.697
11707CHOL    R133870  22.351   5.563   4.640
11707CHOL    R233871  22.421   5.622   4.426
11707CHOL    R333872  22.509   5.507   4.576
11707CHOL    R433873  22.545   5.579   4.376
11707CHOL    R533874  22.650   5.456   4.519
11707CHOL    C133875  22.861   5.381   4.433
11707CHOL    C233876  23.072   5.306   4.347
11708CHOL   ROH33877  -3.987  11.113   8.079
11708CHOL    R133878  -4.144  11.127   8.050
11708CHOL    R233879  -4.300  11.013   8.180
11708CHOL    R333880  -4.320  11.144   8.018
11708CHOL    R433881  -4.438  11.026   8.155
11708CHOL    R533882  -4.477  11.158   7.989
11708CHOL    C133883  -4.712  11.180   7.947
11708CHOL    C233884  -4.947  11.201   7.904
11709CHOL   ROH33885   4.251  -2.499  13.160
11709CHOL    R133886   4.187  -2.642  13.194
11709CHOL    R233887   4.301  -2.839  13.144
11709CHOL    R333888   4.115  -2.802  13.232
11709CHOL    R433889   4.245  -2.964  13.173
11709CHOL    R533890   4.052  -2.945  13.266
11709CHOL    C133891   3.956  -3.159  13.317
11709CHOL    C233892   3.860  -3.373  13.368
11710CHOL   ROH33893  -2.690  16.125  11.604
11710CHOL    R133894  -2.833  16.195  11.624
11710CHOL    R233895  -2.955  16.162  11.820
11710CHOL    R333896  -2.993  16.273  11.648
11710CHOL    R433897  -3.080  16.223  11.838
11710CHOL    R533898  -3.135  16.342  11.668
11710CHOL    C133899  -3.349  16.447  11.699
11710CHOL    C233900  -3.563  16.551  11.729
11711CHOL   ROH33901   7.569   0.974  -0.612
11711CHOL    R133902   7.541   0.869  -0.730
11711CHOL    R233903   7.651   0.887  -0.935
11711CHOL    R333904   7.510   0.751  -0.862
11711CHOL    R433905   7.626   0.795  -1.037
11711CHOL    R533906   7.482   0.646  -0.979
11711CHOL    C133907   7.440   0.489  -1.156
11711CHOL    C233908   7.398   0.332  -1.332
11712CHOL   ROH33909   9.467   7.540  23.767
11712CHOL    R133910   9.459   7.511  23.924
11712CHOL    R233911   9.638   7.562  24.065
11712CHOL    R333912   9.451   7.478  24.101
11712CHOL    R433913   9.632   7.537  24.202
11712CHOL    R533914   9.443   7.448  24.258
11712CHOL    C133915   9.432   7.405  24.494
11712CHOL    C233916   9.421   7.361  24.729
11713CHOL   ROH33917   9.191  18.752  -0.979
11713CHOL    R133918   9.186  18.855  -1.101
11713CHOL    R233919   9.209  19.084  -1.066
11713CHOL    R333920   9.179  18.971  -1.239
11713CHOL    R433921   9.204  19.174  -1.173
11713CHOL    R533922   9.174  19.074  -1.361
11713CHOL    C133923   9.166  19.229  -1.544
11713CHOL    C233924   9.158  19.383  -1.728
11714CHOL   ROH33925   8.121  15.065  22.945
11714CHOL    R133926   8.107  15.118  23.095
11714CHOL    R233927   8.275  15.247  23.193
11714CHOL    R333928   8.091  15.178  23.264
11714CHOL    R433929   8.263  15.293  23.325
11714CHOL    R533930   8.077  15.232  23.415
11714CHOL    C133931   8.056  15.311  23.640
11714CHOL    C233932   8.035  15.391  23.865
11715CHOL   ROH33933  22.707   9.901   4.253
11715CHOL    R133934  22.853   9.901   4.187
11715CHOL    R233935  22.959   9.701   4.132
11715CHOL    R333936  23.017   9.900   4.113
11715CHOL    R433937  23.087   9.700   4.074
11715CHOL    R533938  23.163   9.900   4.048
11715CHOL    C133939  23.382   9.900   3.949
11715CHOL    C233940  23.601   9.899   3.850
11716CHOL   ROH33941  14.020  16.534  21.630
11716CHOL    R133942  14.065  16.606  21.765
11716CHOL    R233943  14.179  16.489  21.932
11716CHOL    R333944  14.116  16.687  21.918
11716CHOL    R433945  14.218  16.552  22.050
11716CHOL    R533946  14.161  16.760  22.053
11716CHOL    C133947  14.229  16.868  22.256
11716CHOL    C233948  14.297  16.976  22.459
11717CHOL   ROH33949  17.687   3.029  19.268
11717CHOL    R133950  17.778   2.951  19.375
11717CHOL    R233951  17.992   2.879  19.320
11717CHOL    R333952  17.879   2.864  19.495
11717CHOL    R433953  18.072   2.811  19.413
11717CHOL    R533954  17.970   2.786  19.602
11717CHOL    C133955  18.106   2.670  19.762
11717CHOL    C233956  18.242   2.554  19.922
11718CHOL   ROH33957   6.370  -0.696   1.486
11718CHOL    R133958   6.332  -0.816   1.388
11718CHOL    R233959   6.429  -0.833   1.176
11718CHOL    R333960   6.290  -0.952   1.277
11718CHOL    R433961   6.396  -0.939   1.090
11718CHOL    R533962   6.252  -1.072   1.179
11718CHOL    C133963   6.195  -1.252   1.031
11718CHOL    C233964   6.139  -1.433   0.883
11719CHOL   ROH33965   5.048  17.638  20.701
11719CHOL    R133966   4.995  17.729  20.821
11719CHOL    R233967   5.023  17.662  21.043
11719CHOL    R333968   4.935  17.831  20.957
11719CHOL    R433969   4.976  17.742  21.149
11719CHOL    R533970   4.881  17.921  21.077
11719CHOL    C133971   4.802  18.058  21.258
11719CHOL    C233972   4.722  18.194  21.439
11720CHOL   ROH33973  -4.147   9.961   8.567
11720CHOL    R133974  -4.305   9.965   8.543
11720CHOL    R233975  -4.433  10.147   8.613
11720CHOL    R333976  -4.483   9.969   8.516
11720CHOL    R433977  -4.571  10.150   8.593
11720CHOL    R533978  -4.642   9.973   8.493
11720CHOL    C133979  -4.879   9.979   8.457
11720CHOL    C233980  -5.116   9.985   8.421
11721CHOL   ROH33981   6.812  19.724  19.503
11721CHOL    R133982   6.779  19.835  19.613
11721CHOL    R233983   6.904  20.031  19.628
11721CHOL    R333984   6.742  19.960  19.738
11721CHOL    R433985   6.875  20.128  19.725
11721CHOL    R533986   6.708  20.071  19.848
11721CHOL    C133987   6.659  20.238  20.014
11721CHOL    C233988   6.609  20.404  20.179
11722CHOL   ROH33989  23.332   6.981   7.394
11722CHOL    R133990  23.486   6.951   7.365
11722CHOL    R233991  23.609   7.087   7.221
11722CHOL    R333992  23.660   6.918   7.332
11722CHOL    R433993  23.744   7.061   7.195
11722CHOL    R533994  23.814   6.888   7.302
11722CHOL    C133995  24.046   6.843   7.259
11722CHOL    C233996  24.278   6.799   7.215
11723CHOL   ROH33997  15.542  18.578  19.565
11723CHOL    R133998  15.606  18.675  19.676
11723CHOL    R233999  15.831  18.733  19.669
11723CHOL    R334000  15.677  18.783  19.800
11723CHOL    R434001  15.887  18.817  19.765
11723CHOL    R534002  15.741  18.880  19.910
11723CHOL    C134003  15.836  19.025  20.076
11723CHOL    C234004  15.931  19.170  20.242
11724CHOL   ROH34005  23.436   9.791  13.619
11724CHOL    R134006  23.592   9.793  13.655
11724CHOL    R234007  23.752   9.845  13.493
11724CHOL    R334008  23.767   9.796  13.695
11724CHOL    R434009  23.888   9.847  13.525
11724CHOL    R534010  23.923   9.798  13.731
11724CHOL    C134011  24.157   9.802  13.785
11724CHOL    C234012  24.391   9.806  13.839
11725CHOL   ROH34013   8.252   3.812  22.379
11725CHOL    R134014   8.230   3.747  22.523
11725CHOL    R234015   8.410   3.714  22.668
11725CHOL    R334016   8.206   3.674  22.686
11725CHOL    R434017   8.391   3.657  22.795
11725CHOL    R534018   8.184   3.609  22.831
11725CHOL    C134019   8.151   3.511  23.047
11725CHOL    C234020   8.119   3.413  23.264
11726CHOL   ROH34021   3.019   0.589  17.864
11726CHOL    R134022   2.941   0.482  17.954
11726CHOL    R234023   3.050   0.368  18.126
11726CHOL    R334024   2.853   0.363  18.056
11726CHOL    R434025   2.982   0.275  18.205
11726CHOL    R534026   2.776   0.256  18.147
11726CHOL    C134027   2.659   0.096  18.282
11726CHOL    C234028   2.542  -0.064  18.418
11727CHOL   ROH34029  18.852  12.432  -0.593
11727CHOL    R134030  18.954  12.459  -0.713
11727CHOL    R234031  19.015  12.287  -0.859
11727CHOL    R334032  19.069  12.488  -0.849
11727CHOL    R434033  19.104  12.310  -0.965
11727CHOL    R534034  19.171  12.515  -0.970
11727CHOL    C134035  19.323  12.555  -1.150
11727CHOL    C234036  19.476  12.595  -1.331
11728CHOL   ROH34037   9.335   8.236  -3.970
11728CHOL    R134038   9.327   8.214  -4.128
11728CHOL    R234039   9.521   8.199  -4.257
11728CHOL    R334040   9.318   8.190  -4.307
11728CHOL    R434041   9.514   8.180  -4.396
11728CHOL    R534042   9.310   8.168  -4.465
11728CHOL    C134043   9.298   8.136  -4.703
11728CHOL    C234044   9.286   8.104  -4.940
11729CHOL   ROH34045   2.515  16.453  -0.195
11729CHOL    R134046   2.432  16.522  -0.313
11729CHOL    R234047   2.513  16.711  -0.423
11729CHOL    R334048   2.338  16.599  -0.446
11729CHOL    R434049   2.440  16.771  -0.526
11729CHOL    R534050   2.255  16.668  -0.564
11729CHOL    C134051   2.130  16.770  -0.741
11729CHOL    C234052   2.005  16.873  -0.918
11730CHOL   ROH34053  17.693   2.503  18.851
11730CHOL    R134054  17.782   2.417  18.952
11730CHOL    R234055  18.003   2.363  18.901
11730CHOL    R334056  17.883   2.321  19.067
11730CHOL    R434057  18.082   2.288  18.990
11730CHOL    R534058  17.972   2.235  19.168
11730CHOL    C134059  18.107   2.107  19.320
11730CHOL    C234060  18.241   1.979  19.472
11731CHOL   ROH34061   7.886  22.287   3.409
11731CHOL    R134062   7.861  22.422   3.327
11731CHOL    R234063   8.034  22.522   3.206
11731CHOL    R334064   7.833  22.574   3.234
11731CHOL    R434065   8.012  22.640   3.133
11731CHOL    R534066   7.808  22.709   3.151
11731CHOL    C134067   7.771  22.911   3.028
11731CHOL    C234068   7.734  23.113   2.904
11732CHOL   ROH34069  -1.072   3.287   4.002
11732CHOL    R134070  -1.196   3.208   3.940
11732CHOL    R234071  -1.202   2.975   3.940
11732CHOL    R334072  -1.337   3.119   3.870
11732CHOL    R434073  -1.311   2.905   3.885
11732CHOL    R534074  -1.461   3.040   3.809
11732CHOL    C134075  -1.648   2.921   3.716
11732CHOL    C234076  -1.834   2.802   3.623
11733CHOL   ROH34077   0.647   3.627   1.456
11733CHOL    R134078   0.550   3.551   1.354
11733CHOL    R234079   0.404   3.385   1.428
11733CHOL    R334080   0.440   3.466   1.239
11733CHOL    R434081   0.319   3.319   1.339
11733CHOL    R534082   0.343   3.390   1.138
11733CHOL    C134083   0.197   3.277   0.985
11733CHOL    C234084   0.051   3.163   0.832
11734CHOL   ROH34085  20.585  12.449  18.658
11734CHOL    R134086  20.700  12.480  18.765
11734CHOL    R234087  20.856  12.650  18.727
11734CHOL    R334088  20.830  12.515  18.884
11734CHOL    R434089  20.956  12.677  18.821
11734CHOL    R534090  20.945  12.546  18.991
11734CHOL    C134091  21.118  12.593  19.151
11734CHOL    C234092  21.291  12.639  19.311
11735CHOL   ROH34093   8.139  -3.397  13.988
11735CHOL    R134094   8.117  -3.548  14.035
11735CHOL    R234095   8.277  -3.712  13.991
11735CHOL    R334096   8.092  -3.719  14.088
11735CHOL    R434097   8.258  -3.845  14.032
11735CHOL    R534098   8.070  -3.870  14.135
11735CHOL    C134099   8.037  -4.097  14.206
11735CHOL    C234100   8.004  -4.324  14.276
11736CHOL   ROH34101  12.711  -3.816  10.143
11736CHOL    R134102  12.741  -3.973  10.148
11736CHOL    R234103  12.803  -4.077  10.348
11736CHOL    R334104  12.775  -4.150  10.154
11736CHOL    R434105  12.829  -4.214  10.352
11736CHOL    R534106  12.805  -4.307  10.160
11736CHOL    C134107  12.850  -4.543  10.167
11736CHOL    C234108  12.895  -4.778  10.175
11737CHOL   ROH34109  14.615   1.297  -0.040
11737CHOL    R134110  14.664   1.194  -0.152
11737CHOL    R234111  14.789   1.266  -0.336
11737CHOL    R334112  14.720   1.078  -0.278
11737CHOL    R434113  14.832   1.176  -0.433
11737CHOL    R534114  14.770   0.975  -0.389
11737CHOL    C134115  14.844   0.820  -0.557
11737CHOL    C234116  14.918   0.665  -0.725
11738CHOL   ROH34117   3.072  11.959  -2.149
11738CHOL    R134118   2.991  11.980  -2.285
11738CHOL    R234119   2.857  12.169  -2.317
11738CHOL    R334120   2.899  12.004  -2.438
11738CHOL    R434121   2.786  12.188  -2.436
11738CHOL    R534122   2.818  12.025  -2.574
11738CHOL    C134123   2.695  12.057  -2.778
11738CHOL    C234124   2.573  12.089  -2.982
11739CHOL   ROH34125  -0.362  13.966  18.757
11739CHOL    R134126  -0.473  14.013  18.862
11739CHOL    R234127  -0.489  13.912  19.072
11739CHOL    R334128  -0.598  14.065  18.981
11739CHOL    R434129  -0.586  13.953  19.165
11739CHOL    R534130  -0.708  14.112  19.086
11739CHOL    C134131  -0.875  14.182  19.245
11739CHOL    C234132  -1.041  14.252  19.403
11740CHOL   ROH34133  14.066  -1.209  17.340
11740CHOL    R134134  14.113  -1.335  17.426
11740CHOL    R234135  14.305  -1.326  17.559
11740CHOL    R334136  14.166  -1.477  17.524
11740CHOL    R434137  14.346  -1.436  17.634
11740CHOL    R534138  14.212  -1.604  17.610
11740CHOL    C134139  14.283  -1.793  17.740
11740CHOL    C234140  14.353  -1.982  17.869
11741CHOL   ROH34141  23.817  10.125   9.099
11741CHOL    R134142  23.977  10.125   9.092
11741CHOL    R234143  24.092  10.283   8.965
11741CHOL    R334144  24.157  10.124   9.085
11741CHOL    R434145  24.232  10.282   8.960
11741CHOL    R534146  24.316  10.123   9.078
11741CHOL    C134147  24.556  10.123   9.068
11741CHOL    C234148  24.796  10.122   9.058
11742CHOL   ROH34149   4.388   0.224  18.463
11742CHOL    R134150   4.326   0.112  18.560
11742CHOL    R234151   4.360   0.122  18.790
11742CHOL    R334152   4.257  -0.013  18.668
11742CHOL    R434153   4.305   0.024  18.875
11742CHOL    R534154   4.195  -0.125  18.765
11742CHOL    C134155   4.102  -0.292  18.910
11742CHOL    C234156   4.010  -0.459  19.055
11743CHOL   ROH34157  17.072  -1.661  12.986
11743CHOL    R134158  17.154  -1.794  13.020
11743CHOL    R234159  17.367  -1.829  12.932
11743CHOL    R334160  17.247  -1.944  13.058
11743CHOL    R434161  17.439  -1.945  12.961
11743CHOL    R534162  17.329  -2.076  13.092
11743CHOL    C134163  17.452  -2.276  13.142
11743CHOL    C234164  17.576  -2.475  13.193
11744CHOL   ROH34165   7.535  23.297  13.864
11744CHOL    R134166   7.506  23.447  13.912
11744CHOL    R234167   7.531  23.509  14.135
11744CHOL    R334168   7.473  23.616  13.965
11744CHOL    R434169   7.506  23.640  14.177
11744CHOL    R534170   7.443  23.766  14.013
11744CHOL    C134171   7.400  23.990  14.085
11744CHOL    C234172   7.356  24.215  14.156
11745CHOL   ROH34173  11.911  -3.884  10.984
11745CHOL    R134174  11.929  -4.042  10.998
11745CHOL    R234175  11.990  -4.173  10.814
11745CHOL    R334176  11.950  -4.221  11.013
11745CHOL    R434177  12.006  -4.311  10.826
11745CHOL    R534178  11.968  -4.379  11.027
11745CHOL    C134179  11.995  -4.617  11.048
11745CHOL    C234180  12.023  -4.854  11.068
11746CHOL   ROH34181   5.173  -0.356   1.669
11746CHOL    R134182   5.116  -0.470   1.572
11746CHOL    R234183   4.989  -0.647   1.656
11746CHOL    R334184   5.052  -0.598   1.463
11746CHOL    R434185   4.940  -0.746   1.571
11746CHOL    R534186   4.995  -0.711   1.366
11746CHOL    C134187   4.910  -0.882   1.220
11746CHOL    C234188   4.825  -1.053   1.074
11747CHOL   ROH34189   5.498   1.757  -0.583
11747CHOL    R134190   5.444   1.662  -0.700
11747CHOL    R234191   5.416   1.433  -0.666
11747CHOL    R334192   5.383   1.556  -0.832
11747CHOL    R434193   5.369   1.350  -0.768
11747CHOL    R534194   5.328   1.461  -0.948
11747CHOL    C134195   5.247   1.319  -1.124
11747CHOL    C234196   5.166   1.177  -1.299
11748CHOL   ROH34197   2.237  20.663  14.925
11748CHOL    R134198   2.153  20.788  14.979
11748CHOL    R234199   2.089  20.801  15.203
11748CHOL    R334200   2.059  20.929  15.040
11748CHOL    R434201   2.016  20.911  15.251
11748CHOL    R534202   1.975  21.054  15.094
11748CHOL    C134203   1.849  21.241  15.176
11748CHOL    C234204   1.723  21.428  15.257
11749CHOL   ROH34205   9.090  22.791  15.730
11749CHOL    R134206   9.080  22.936  15.796
11749CHOL    R234207   9.215  23.112  15.723
11749CHOL    R334208   9.068  23.100  15.870
11749CHOL    R434209   9.206  23.239  15.780
11749CHOL    R534210   9.057  23.245  15.936
11749CHOL    C134211   9.042  23.464  16.036
11749CHOL    C234212   9.026  23.682  16.135
11750CHOL   ROH34213  16.509  -1.217  15.265
11750CHOL    R134214  16.587  -1.345  15.322
11750CHOL    R234215  16.614  -1.536  15.192
11750CHOL    R334216  16.674  -1.488  15.386
11750CHOL    R434217  16.682  -1.648  15.242
11750CHOL    R534218  16.751  -1.616  15.443
11750CHOL    C134219  16.868  -1.808  15.528
11750CHOL    C234220  16.984  -1.999  15.614
11751CHOL   ROH34221  15.534  13.731  22.272
11751CHOL    R134222  15.603  13.778  22.408
11751CHOL    R234223  15.660  14.001  22.444
11751CHOL    R334224  15.681  13.830  22.562
11751CHOL    R434225  15.721  14.042  22.563
11751CHOL    R534226  15.750  13.877  22.698
11751CHOL    C134227  15.854  13.946  22.903
11751CHOL    C234228  15.957  14.016  23.108
11752CHOL   ROH34229  -3.284  13.943  13.089
11752CHOL    R134230  -3.433  13.990  13.123
11752CHOL    R234231  -3.520  13.967  13.338
11752CHOL    R334232  -3.601  14.043  13.161
11752CHOL    R434233  -3.650  14.008  13.367
11752CHOL    R534234  -3.750  14.089  13.194
11752CHOL    C134235  -3.974  14.160  13.245
11752CHOL    C234236  -4.197  14.230  13.296
11753CHOL   ROH34237  19.455  -0.300   9.648
11753CHOL    R134238  19.565  -0.416   9.645
11753CHOL    R234239  19.781  -0.378   9.726
11753CHOL    R334240  19.690  -0.546   9.643
11753CHOL    R434241  19.877  -0.479   9.724
11753CHOL    R534242  19.800  -0.661   9.640
11753CHOL    C134243  19.966  -0.835   9.636
11753CHOL    C234244  20.131  -1.009   9.632
11754CHOL   ROH34245  12.800  22.896   5.471
11754CHOL    R134246  12.836  23.043   5.419
11754CHOL    R234247  12.991  23.176   5.532
11754CHOL    R334248  12.876  23.208   5.361
11754CHOL    R434249  13.022  23.304   5.487
11754CHOL    R534250  12.912  23.356   5.309
11754CHOL    C134251  12.966  23.576   5.231
11754CHOL    C234252  13.020  23.797   5.153
11755CHOL   ROH34253   7.960  -3.002   4.962
11755CHOL    R134254   7.938  -3.150   4.905
11755CHOL    R234255   8.056  -3.331   4.991
11755CHOL    R334256   7.913  -3.316   4.840
11755CHOL    R434257   8.036  -3.460   4.941
11755CHOL    R534258   7.891  -3.464   4.783
11755CHOL    C134259   7.857  -3.685   4.696
11755CHOL    C234260   7.824  -3.907   4.610
11756CHOL   ROH34261  20.189   0.836  12.505
11756CHOL    R134262  20.308   0.734  12.536
11756CHOL    R234263  20.505   0.737  12.411
11756CHOL    R334264  20.442   0.618  12.570
11756CHOL    R434265  20.609   0.648  12.438
11756CHOL    R534266  20.560   0.516  12.601
11756CHOL    C134267  20.739   0.362  12.647
11756CHOL    C234268  20.917   0.209  12.693
11757CHOL   ROH34269  10.071  13.423  23.540
11757CHOL    R134270  10.076  13.466  23.694
11757CHOL    R234271  10.206  13.348  23.848
11757CHOL    R334272  10.081  13.514  23.867
11757CHOL    R434273  10.210  13.386  23.983
11757CHOL    R534274  10.086  13.558  24.022
11757CHOL    C134275  10.092  13.622  24.253
11757CHOL    C234276  10.099  13.687  24.484
11758CHOL   ROH34277   3.583  11.468  22.428
11758CHOL    R134278   3.518  11.488  22.573
11758CHOL    R234279   3.525  11.695  22.680
11758CHOL    R334280   3.444  11.510  22.735
11758CHOL    R434281   3.468  11.712  22.807
11758CHOL    R534282   3.379  11.530  22.880
11758CHOL    C134283   3.280  11.560  23.097
11758CHOL    C234284   3.182  11.590  23.314
11759CHOL   ROH34285  23.257   5.996  11.401
11759CHOL    R134286  23.409   5.951  11.419
11759CHOL    R234287  23.517   5.825  11.255
11759CHOL    R334288  23.581   5.900  11.439
11759CHOL    R434289  23.651   5.786  11.271
11759CHOL    R534290  23.733   5.855  11.457
11759CHOL    C134291  23.962   5.787  11.484
11759CHOL    C234292  24.191   5.720  11.511
11760CHOL   ROH34293  10.773  15.538  22.763
11760CHOL    R134294  10.788  15.596  22.911
11760CHOL    R234295  10.924  15.490  23.069
11760CHOL    R334296  10.805  15.661  23.078
11760CHOL    R434297  10.937  15.540  23.198
11760CHOL    R534298  10.820  15.720  23.227
11760CHOL    C134299  10.843  15.807  23.449
11760CHOL    C234300  10.865  15.894  23.671
11761CHOL   ROH34301  -2.372  13.019   3.757
11761CHOL    R134302  -2.514  13.057   3.693
11761CHOL    R234303  -2.692  13.123   3.829
11761CHOL    R334304  -2.673  13.101   3.622
11761CHOL    R434305  -2.816  13.157   3.773
11761CHOL    R534306  -2.815  13.139   3.558
11761CHOL    C134307  -3.028  13.197   3.463
11761CHOL    C234308  -3.240  13.254   3.368
11762CHOL   ROH34309  13.640   5.405  -2.807
11762CHOL    R134310  13.687   5.356  -2.952
11762CHOL    R234311  13.653   5.488  -3.141
11762CHOL    R334312  13.740   5.300  -3.114
11762CHOL    R434313  13.694   5.445  -3.267
11762CHOL    R534314  13.787   5.250  -3.259
11762CHOL    C134315  13.858   5.176  -3.476
11762CHOL    C234316  13.928   5.102  -3.693
11763CHOL   ROH34317  -1.122   1.288  11.344
11763CHOL    R134318  -1.246   1.189  11.360
11763CHOL    R234319  -1.269   1.053  11.548
11763CHOL    R334320  -1.387   1.077  11.378
11763CHOL    R434321  -1.378   0.966  11.562
11763CHOL    R534322  -1.511   0.978  11.393
11763CHOL    C134323  -1.698   0.829  11.417
11763CHOL    C234324  -1.884   0.680  11.441
11764CHOL   ROH34325  -3.428   6.480   6.863
11764CHOL    R134326  -3.578   6.435   6.831
11764CHOL    R234327  -3.756   6.505   6.966
11764CHOL    R334328  -3.747   6.384   6.796
11764CHOL    R434329  -3.887   6.466   6.938
11764CHOL    R534330  -3.897   6.339   6.765
11764CHOL    C134331  -4.123   6.271   6.717
11764CHOL    C234332  -4.348   6.204   6.670
11765CHOL   ROH34333  11.993  -3.590  12.880
11765CHOL    R134334  12.015  -3.745  12.913
11765CHOL    R234335  12.133  -3.883  12.767
11765CHOL    R334336  12.040  -3.919  12.950
11765CHOL    R434337  12.153  -4.019  12.796
11765CHOL    R534338  12.062  -4.074  12.983
11765CHOL    C134339  12.096  -4.306  13.033
11765CHOL    C234340  12.129  -4.539  13.083
11766CHOL   ROH34341  16.009  22.392  12.352
11766CHOL    R134342  16.074  22.537  12.367
11766CHOL    R234343  16.297  22.575  12.308
11766CHOL    R334344  16.148  22.701  12.383
11766CHOL    R434345  16.354  22.702  12.321
11766CHOL    R534346  16.213  22.846  12.397
11766CHOL    C134347  16.311  23.064  12.419
11766CHOL    C234348  16.409  23.282  12.441
11767CHOL   ROH34349  -3.155   9.349  15.179
11767CHOL    R134350  -3.302   9.344  15.241
11767CHOL    R234351  -3.414   9.539  15.303
11767CHOL    R334352  -3.468   9.337  15.312
11767CHOL    R434353  -3.543   9.534  15.358
11767CHOL    R534354  -3.615   9.332  15.374
11767CHOL    C134355  -3.836   9.324  15.468
11767CHOL    C234356  -4.057   9.316  15.561
11768CHOL   ROH34357   8.352  16.918  -2.237
11768CHOL    R134358   8.337  16.996  -2.376
11768CHOL    R234359   8.492  16.964  -2.548
11768CHOL    R334360   8.321  17.084  -2.532
11768CHOL    R434361   8.479  17.033  -2.670
11768CHOL    R534362   8.307  17.162  -2.671
11768CHOL    C134363   8.285  17.279  -2.879
11768CHOL    C234364   8.263  17.396  -3.088
11769CHOL   ROH34365  19.735  15.656  18.152
11769CHOL    R134366  19.843  15.719  18.252
11769CHOL    R234367  20.068  15.661  18.237
11769CHOL    R334368  19.964  15.789  18.365
11769CHOL    R434369  20.163  15.716  18.325
11769CHOL    R534370  20.072  15.852  18.465
11769CHOL    C134371  20.234  15.946  18.615
11769CHOL    C234372  20.396  16.040  18.765
11770CHOL   ROH34373  23.787   8.818  10.097
11770CHOL    R134374  23.947   8.807  10.098
11770CHOL    R234375  24.080   8.997  10.069
11770CHOL    R334376  24.126   8.796  10.099
11770CHOL    R434377  24.219   8.988  10.070
11770CHOL    R534378  24.286   8.785  10.101
11770CHOL    C134379  24.526   8.769  10.102
11770CHOL    C234380  24.765   8.753  10.104
11771CHOL   ROH34381  22.362   9.687   3.552
11771CHOL    R134382  22.503   9.684   3.477
11771CHOL    R234383  22.609   9.882   3.413
11771CHOL    R334384  22.662   9.682   3.392
11771CHOL    R434385  22.732   9.880   3.347
11771CHOL    R534386  22.803   9.679   3.317
11771CHOL    C134387  23.015   9.675   3.204
11771CHOL    C234388  23.226   9.671   3.091
11772CHOL   ROH34389  14.655  16.963  -1.292
11772CHOL    R134390  14.709  17.041  -1.421
11772CHOL    R234391  14.774  16.924  -1.613
11772CHOL    R334392  14.769  17.128  -1.567
11772CHOL    R434393  14.821  16.992  -1.726
11772CHOL    R534394  14.823  17.206  -1.696
11772CHOL    C134395  14.904  17.322  -1.890
11772CHOL    C234396  14.984  17.438  -2.084
11773CHOL   ROH34397   2.775  14.494  21.124
11773CHOL    R134398   2.690  14.546  21.249
11773CHOL    R234399   2.787  14.565  21.460
11773CHOL    R334400   2.594  14.604  21.390
11773CHOL    R434401   2.712  14.610  21.570
11773CHOL    R534402   2.509  14.656  21.515
11773CHOL    C134403   2.381  14.733  21.703
11773CHOL    C234404   2.254  14.811  21.890
11774CHOL   ROH34405  19.431   2.932  17.447
11774CHOL    R134406  19.536   2.853  17.539
11774CHOL    R234407  19.756   2.821  17.468
11774CHOL    R334408  19.654   2.765  17.641
11774CHOL    R434409  19.848   2.752  17.548
11774CHOL    R534410  19.760   2.686  17.733
11774CHOL    C134411  19.917   2.569  17.870
11774CHOL    C234412  20.075   2.451  18.008
11775CHOL   ROH34413   5.791  19.546  19.331
11775CHOL    R134414   5.748  19.656  19.439
11775CHOL    R234415   5.815  19.878  19.418
11775CHOL    R334416   5.700  19.779  19.561
11775CHOL    R434417   5.778  19.974  19.513
11775CHOL    R534418   5.657  19.889  19.670
11775CHOL    C134419   5.593  20.054  19.832
11775CHOL    C234420   5.528  20.218  19.994
11776CHOL   ROH34421  -4.097   8.184   8.980
11776CHOL    R134422  -4.255   8.162   8.970
11776CHOL    R234423  -4.403   8.296   9.092
11776CHOL    R334424  -4.433   8.137   8.959
11776CHOL    R434425  -4.541   8.276   9.083
11776CHOL    R534426  -4.591   8.115   8.949
11776CHOL    C134427  -4.829   8.082   8.935
11776CHOL    C234428  -5.066   8.049   8.920
11777CHOL   ROH34429  22.860   5.306  12.503
11777CHOL    R134430  23.008   5.254  12.532
11777CHOL    R234431  23.194   5.384  12.480
11777CHOL    R334432  23.175   5.194  12.565
11777CHOL    R434433  23.324   5.338  12.505
11777CHOL    R534434  23.324   5.142  12.595
11777CHOL    C134435  23.546   5.063  12.638
11777CHOL    C234436  23.768   4.985  12.682
11778CHOL   ROH34437  21.654   2.404  11.174
11778CHOL    R134438  21.788   2.318  11.188
11778CHOL    R234439  21.983   2.414  11.273
11778CHOL    R334440  21.940   2.222  11.203
11778CHOL    R434441  22.101   2.339  11.285
11778CHOL    R534442  22.074   2.136  11.216
11778CHOL    C134443  22.276   2.008  11.237
11778CHOL    C234444  22.477   1.880  11.257
11779CHOL   ROH34445  14.041  -3.369   8.656
11779CHOL    R134446  14.095  -3.519   8.639
11779CHOL    R234447  14.320  -3.561   8.594
11779CHOL    R334448  14.155  -3.687   8.619
11779CHOL    R434449  14.367  -3.692   8.579
11779CHOL    R534450  14.209  -3.837   8.602
11779CHOL    C134451  14.290  -4.062   8.576
11779CHOL    C234452  14.370  -4.286   8.550
11780CHOL   ROH34453  16.545  22.245  10.396
11780CHOL    R134454  16.621  22.386  10.399
11780CHOL    R234455  16.833  22.405  10.496
11780CHOL    R334456  16.707  22.544  10.403
11780CHOL    R434457  16.899  22.528  10.499
11780CHOL    R534458  16.784  22.685  10.406
11780CHOL    C134459  16.898  22.895  10.411
11780CHOL    C234460  17.012  23.106  10.416
11781CHOL   ROH34461   0.813   3.142  18.173
11781CHOL    R134462   0.712   3.066  18.271
11781CHOL    R234463   0.782   2.886  18.401
11781CHOL    R334464   0.597   2.980  18.381
11781CHOL    R434465   0.694   2.819  18.486
11781CHOL    R534466   0.496   2.904  18.478
11781CHOL    C134467   0.344   2.790  18.625
11781CHOL    C234468   0.192   2.676  18.772
11782CHOL   ROH34469  13.589  -1.072   2.120
11782CHOL    R134470  13.632  -1.195   2.028
11782CHOL    R234471  13.844  -1.290   2.045
11782CHOL    R334472  13.680  -1.334   1.924
11782CHOL    R434473  13.882  -1.398   1.964
11782CHOL    R534474  13.723  -1.458   1.831
11782CHOL    C134475  13.787  -1.643   1.693
11782CHOL    C234476  13.852  -1.828   1.555
11783CHOL   ROH34477  14.886   6.696  -2.705
11783CHOL    R134478  14.946   6.661  -2.849
11783CHOL    R234479  14.860   6.760  -3.042
11783CHOL    R334480  15.014   6.622  -3.011
11783CHOL    R434481  14.913   6.730  -3.168
11783CHOL    R534482  15.074   6.587  -3.155
11783CHOL    C134483  15.164   6.535  -3.372
11783CHOL    C234484  15.254   6.482  -3.588
11784CHOL   ROH34485  19.671   0.164  12.094
11784CHOL    R134486  19.784   0.054  12.119
11784CHOL    R234487  19.930  -0.009  11.948
11784CHOL    R334488  19.912  -0.070  12.147
11784CHOL    R434489  20.029  -0.105  11.969
11784CHOL    R534490  20.026  -0.180  12.171
11784CHOL    C134491  20.196  -0.345  12.209
11784CHOL    C234492  20.366  -0.510  12.246
11785CHOL   ROH34493  20.605   3.236  16.119
11785CHOL    R134494  20.728   3.162  16.189
11785CHOL    R234495  20.948   3.217  16.136
11785CHOL    R334496  20.866   3.078  16.268
11785CHOL    R434497  21.056   3.152  16.197
11785CHOL    R534498  20.989   3.003  16.338
11785CHOL    C134499  21.174   2.892  16.444
11785CHOL    C234500  21.359   2.780  16.549
11786CHOL   ROH34501   9.719   0.180  19.966
11786CHOL    R134502   9.724   0.066  20.078
11786CHOL    R234503   9.751  -0.158  20.021
11786CHOL    R334504   9.730  -0.062  20.205
11786CHOL    R434505   9.755  -0.258  20.119
11786CHOL    R534506   9.734  -0.176  20.317
11786CHOL    C134507   9.742  -0.346  20.485
11786CHOL    C234508   9.749  -0.517  20.654
11787CHOL   ROH34509   3.098  -0.975  15.626
11787CHOL    R134510   3.022  -1.099  15.693
11787CHOL    R234511   3.140  -1.265  15.806
11787CHOL    R334512   2.937  -1.238  15.769
11787CHOL    R434513   3.074  -1.373  15.865
11787CHOL    R534514   2.861  -1.362  15.836
11787CHOL    C134515   2.747  -1.547  15.937
11787CHOL    C234516   2.633  -1.733  16.038
11788CHOL   ROH34517  19.838  18.324   4.682
11788CHOL    R134518  19.951  18.420   4.623
11788CHOL    R234519  20.114  18.338   4.477
11788CHOL    R334520  20.079  18.528   4.556
11788CHOL    R434521  20.214  18.422   4.426
11788CHOL    R534522  20.193  18.625   4.497
11788CHOL    C134523  20.363  18.769   4.408
11788CHOL    C234524  20.533  18.913   4.319
11789CHOL   ROH34525   3.081  -1.302  14.943
11789CHOL    R134526   3.005  -1.431  15.000
11789CHOL    R234527   3.124  -1.605  15.100
11789CHOL    R334528   2.921  -1.576  15.064
11789CHOL    R434529   3.058  -1.718  15.150
11789CHOL    R534530   2.845  -1.705  15.122
11789CHOL    C134531   2.732  -1.898  15.207
11789CHOL    C234532   2.618  -2.092  15.293
11790CHOL   ROH34533   0.380   9.709  20.281
11790CHOL    R134534   0.269   9.706  20.396
11790CHOL    R234535   0.249   9.883  20.548
11790CHOL    R334536   0.144   9.704  20.525
11790CHOL    R434537   0.152   9.880  20.649
11790CHOL    R534538   0.033   9.701  20.641
11790CHOL    C134539  -0.134   9.697  20.813
11790CHOL    C234540  -0.301   9.693  20.986
11791CHOL   ROH34541  17.778  17.550  18.750
11791CHOL    R134542  17.870  17.631  18.852
11791CHOL    R234543  18.103  17.626  18.834
11791CHOL    R334544  17.975  17.722  18.968
11791CHOL    R434545  18.184  17.697  18.923
11791CHOL    R534546  18.067  17.803  19.070
11791CHOL    C134547  18.206  17.924  19.224
11791CHOL    C234548  18.344  18.046  19.377
11792CHOL   ROH34549  -0.133  17.081   3.030
11792CHOL    R134550  -0.249  17.161   2.953
11792CHOL    R234551  -0.402  17.292   3.069
11792CHOL    R334552  -0.378  17.250   2.866
11792CHOL    R434553  -0.503  17.362   3.002
11792CHOL    R534554  -0.494  17.329   2.789
11792CHOL    C134555  -0.667  17.449   2.673
11792CHOL    C234556  -0.841  17.568   2.558
11793CHOL   ROH34557   4.477  17.977  -0.404
11793CHOL    R134558   4.416  18.067  -0.522
11793CHOL    R234559   4.542  18.117  -0.712
11793CHOL    R334560   4.348  18.168  -0.654
11793CHOL    R434561   4.489  18.196  -0.814
11793CHOL    R534562   4.287  18.258  -0.771
11793CHOL    C134563   4.196  18.393  -0.948
11793CHOL    C234564   4.105  18.528  -1.124
11794CHOL   ROH34565   9.625   1.223  -1.077
11794CHOL    R134566   9.627   1.124  -1.203
11794CHOL    R234567   9.805   0.979  -1.240
11794CHOL    R334568   9.628   1.014  -1.345
11794CHOL    R434569   9.807   0.893  -1.350
11794CHOL    R534570   9.630   0.915  -1.471
11794CHOL    C134571   9.632   0.767  -1.660
11794CHOL    C234572   9.635   0.619  -1.849
11795CHOL   ROH34573  10.348  -0.177  19.543
11795CHOL    R134574  10.361  -0.293  19.652
11795CHOL    R234575  10.402  -0.243  19.876
11795CHOL    R334576  10.376  -0.424  19.775
11795CHOL    R434577  10.413  -0.345  19.972
11795CHOL    R534578  10.390  -0.540  19.885
11795CHOL    C134579  10.409  -0.714  20.048
11795CHOL    C234580  10.429  -0.888  20.212
11796CHOL   ROH34581  15.942  -2.136   6.424
11796CHOL    R134582  16.010  -2.275   6.382
11796CHOL    R234583  16.241  -2.296   6.369
11796CHOL    R334584  16.085  -2.431   6.335
11796CHOL    R434585  16.300  -2.418   6.333
11796CHOL    R534586  16.153  -2.570   6.293
11796CHOL    C134587  16.254  -2.778   6.230
11796CHOL    C234588  16.356  -2.987   6.167
11797CHOL   ROH34589  11.688   9.326  23.866
11797CHOL    R134590  11.715   9.317  24.023
11797CHOL    R234591  11.777   9.506  24.145
11797CHOL    R334592  11.745   9.308  24.201
11797CHOL    R434593  11.800   9.499  24.283
11797CHOL    R534594  11.772   9.299  24.358
11797CHOL    C134595  11.812   9.286  24.594
11797CHOL    C234596  11.853   9.273  24.830
11798CHOL   ROH34597  -2.925  14.976   7.124
11798CHOL    R134598  -3.071  15.031   7.086
11798CHOL    R234599  -3.177  15.191   7.219
11798CHOL    R334600  -3.234  15.092   7.044
11798CHOL    R434601  -3.304  15.238   7.186
11798CHOL    R534602  -3.380  15.146   7.007
11798CHOL    C134603  -3.598  15.228   6.950
11798CHOL    C234604  -3.817  15.310   6.894
11799CHOL   ROH34605  11.819  19.173  -0.501
11799CHOL    R134606  11.835  19.276  -0.622
11799CHOL    R234607  12.009  19.431  -0.625
11799CHOL    R334608  11.853  19.392  -0.758
11799CHOL    R434609  12.023  19.522  -0.731
11799CHOL    R534610  11.869  19.496  -0.879
11799CHOL    C134611  11.893  19.650  -1.061
11799CHOL    C234612  11.917  19.805  -1.243
11800CHOL   ROH34613  -2.421   3.239  10.912
11800CHOL    R134614  -2.562   3.165  10.924
11800CHOL    R234615  -2.575   2.932  10.936
11800CHOL    R334616  -2.721   3.081  10.938
11800CHOL    R434617  -2.698   2.867  10.947
11800CHOL    R534618  -2.862   3.007  10.950
11800CHOL    C134619  -3.074   2.896  10.969
11800CHOL    C234620  -3.285   2.784  10.987
11801CHOL   ROH34621   8.007  -2.143  16.803
11801CHOL    R134622   7.986  -2.281  16.882
11801CHOL    R234623   8.166  -2.393  16.977
11801CHOL    R334624   7.962  -2.435  16.971
11801CHOL    R434625   8.148  -2.514  17.046
11801CHOL    R534626   7.940  -2.573  17.050
11801CHOL    C134627   7.909  -2.779  17.168
11801CHOL    C234628   7.877  -2.986  17.286
11802CHOL   ROH34629  22.089  13.746  15.783
11802CHOL    R134630  22.231  13.786  15.845
11802CHOL    R234631  22.309  14.006  15.833
11802CHOL    R334632  22.391  13.832  15.915
11802CHOL    R434633  22.433  14.041  15.888
11802CHOL    R534634  22.533  13.872  15.977
11802CHOL    C134635  22.745  13.932  16.070
11802CHOL    C234636  22.958  13.993  16.163
11803CHOL   ROH34637   6.592   1.040  20.335
11803CHOL    R134638   6.556   0.937  20.452
11803CHOL    R234639   6.715   0.787  20.533
11803CHOL    R334640   6.515   0.821  20.583
11803CHOL    R434641   6.683   0.696  20.635
11803CHOL    R534642   6.479   0.717  20.700
11803CHOL    C134643   6.425   0.563  20.875
11803CHOL    C234644   6.371   0.408  21.050
11804CHOL   ROH34645  21.278  17.169  13.854
11804CHOL    R134646  21.407  17.253  13.898
11804CHOL    R234647  21.512  17.398  13.748
11804CHOL    R334648  21.552  17.348  13.947
11804CHOL    R434649  21.625  17.472  13.787
11804CHOL    R534650  21.681  17.432  13.991
11804CHOL    C134651  21.874  17.559  14.057
11804CHOL    C234652  22.067  17.685  14.123
11805CHOL   ROH34653   2.923  14.234  21.328
11805CHOL    R134654   2.839  14.283  21.455
11805CHOL    R234655   2.938  14.300  21.665
11805CHOL    R334656   2.743  14.338  21.598
11805CHOL    R434657   2.864  14.343  21.776
11805CHOL    R534658   2.659  14.386  21.724
11805CHOL    C134659   2.532  14.460  21.915
11805CHOL    C234660   2.406  14.533  22.105
11806CHOL   ROH34661  17.995  21.350   8.888
11806CHOL    R134662  18.082  21.484   8.879
11806CHOL    R234663  18.255  21.505   8.724
11806CHOL    R334664  18.180  21.635   8.870
11806CHOL    R434665  18.331  21.622   8.717
11806CHOL    R534666  18.267  21.768   8.861
11806CHOL    C134667  18.398  21.969   8.848
11806CHOL    C234668  18.528  22.170   8.835
11807CHOL   ROH34669   0.439  20.109  12.684
11807CHOL    R134670   0.329  20.220  12.718
11807CHOL    R234671   0.384  20.412  12.838
11807CHOL    R334672   0.204  20.344  12.757
11807CHOL    R434673   0.288  20.509  12.868
11807CHOL    R534674   0.094  20.455  12.791
11807CHOL    C134675  -0.072  20.621  12.842
11807CHOL    C234676  -0.237  20.787  12.894
11808CHOL   ROH34677  -2.663   4.133  12.283
11808CHOL    R134678  -2.807   4.068  12.311
11808CHOL    R234679  -2.908   4.086  12.520
11808CHOL    R334680  -2.968   3.995  12.341
11808CHOL    R434681  -3.034   4.029  12.544
11808CHOL    R534682  -3.112   3.931  12.369
11808CHOL    C134683  -3.328   3.833  12.410
11808CHOL    C234684  -3.543   3.736  12.452
11809CHOL   ROH34685  11.526  -2.070  17.023
11809CHOL    R134686  11.544  -2.203  17.110
11809CHOL    R234687  11.741  -2.328  17.098
11809CHOL    R334688  11.565  -2.353  17.207
11809CHOL    R434689  11.757  -2.444  17.174
11809CHOL    R534690  11.583  -2.487  17.293
11809CHOL    C134691  11.611  -2.686  17.423
11809CHOL    C234692  11.639  -2.886  17.553
11810CHOL   ROH34693  -3.315  14.915   9.406
11810CHOL    R134694  -3.465  14.970   9.400
11810CHOL    R234695  -3.509  15.196   9.363
11810CHOL    R334696  -3.634  15.032   9.393
11810CHOL    R434697  -3.640  15.244   9.358
11810CHOL    R534698  -3.784  15.086   9.387
11810CHOL    C134699  -4.009  15.169   9.377
11810CHOL    C234700  -4.234  15.251   9.368
11811CHOL   ROH34701  -1.883  12.162   2.397
11811CHOL    R134702  -2.018  12.182   2.314
11811CHOL    R234703  -2.211  12.063   2.367
11811CHOL    R334704  -2.170  12.205   2.220
11811CHOL    R434705  -2.330  12.081   2.295
11811CHOL    R534706  -2.306  12.226   2.137
11811CHOL    C134707  -2.508  12.256   2.012
11811CHOL    C234708  -2.711  12.286   1.887
11812CHOL   ROH34709  15.884  -1.549   4.739
11812CHOL    R134710  15.951  -1.682   4.681
11812CHOL    R234711  16.169  -1.742   4.740
11812CHOL    R334712  16.027  -1.832   4.616
11812CHOL    R434713  16.228  -1.858   4.689
11812CHOL    R534714  16.094  -1.964   4.558
11812CHOL    C134715  16.196  -2.164   4.470
11812CHOL    C234716  16.297  -2.363   4.383
11813CHOL   ROH34717  23.398  12.660  12.439
11813CHOL    R134718  23.553  12.689  12.468
11813CHOL    R234719  23.649  12.894  12.413
11813CHOL    R334720  23.726  12.722  12.502
11813CHOL    R434721  23.784  12.920  12.438
11813CHOL    R534722  23.881  12.751  12.531
11813CHOL    C134723  24.113  12.795  12.575
11813CHOL    C234724  24.345  12.838  12.619
11814CHOL   ROH34725  21.602   6.990   2.739
11814CHOL    R134726  21.736   6.959   2.657
11814CHOL    R234727  21.744   6.989   2.425
11814CHOL    R334728  21.886   6.924   2.564
11814CHOL    R434729  21.861   6.962   2.353
11814CHOL    R534730  22.020   6.894   2.482
11814CHOL    C134731  22.220   6.847   2.358
11814CHOL    C234732  22.420   6.801   2.234
11815CHOL   ROH34733  10.329  -3.286  14.631
11815CHOL    R134734  10.335  -3.437  14.684
11815CHOL    R234735  10.437  -3.489  14.887
11815CHOL    R334736  10.342  -3.607  14.744
11815CHOL    R434737  10.443  -3.621  14.934
11815CHOL    R534738  10.348  -3.757  14.797
11815CHOL    C134739  10.357  -3.984  14.877
11815CHOL    C234740  10.366  -4.210  14.956
11816CHOL   ROH34741  12.530   4.416  -2.704
11816CHOL    R134742  12.559   4.354  -2.849
11816CHOL    R234743  12.771   4.367  -2.944
11816CHOL    R334744  12.591   4.284  -3.011
11816CHOL    R434745  12.796   4.313  -3.071
11816CHOL    R534746  12.620   4.222  -3.156
11816CHOL    C134747  12.663   4.130  -3.373
11816CHOL    C234748  12.706   4.037  -3.590
11817CHOL   ROH34749   9.179  21.674  17.772
11817CHOL    R134750   9.170  21.806  17.862
11817CHOL    R234751   9.187  21.795  18.094
11817CHOL    R334752   9.160  21.955  17.962
11817CHOL    R434753   9.179  21.911  18.172
11817CHOL    R534754   9.150  22.088  18.052
11817CHOL    C134755   9.137  22.286  18.186
11817CHOL    C234756   9.123  22.484  18.321
11818CHOL   ROH34757   8.657  13.509  23.456
11818CHOL    R134758   8.637  13.545  23.611
11818CHOL    R234759   8.724  13.408  23.778
11818CHOL    R334760   8.614  13.586  23.784
11818CHOL    R434761   8.706  13.440  23.913
11818CHOL    R534762   8.594  13.622  23.939
11818CHOL    C134763   8.564  13.676  24.171
11818CHOL    C234764   8.534  13.730  24.403
11819CHOL   ROH34765  -0.384  18.383  14.629
11819CHOL    R134766  -0.502  18.478  14.680
11819CHOL    R234767  -0.486  18.710  14.661
11819CHOL    R334768  -0.635  18.585  14.738
11819CHOL    R434769  -0.589  18.794  14.706
11819CHOL    R534770  -0.752  18.681  14.790
11819CHOL    C134771  -0.929  18.823  14.867
11819CHOL    C234772  -1.106  18.966  14.944
11820CHOL   ROH34773  19.752   6.114   0.738
11820CHOL    R134774  19.861   6.064   0.632
11820CHOL    R234775  19.797   5.951   0.439
11820CHOL    R334776  19.984   6.008   0.513
11820CHOL    R434777  19.893   5.907   0.346
11820CHOL    R534778  20.093   5.958   0.408
11820CHOL    C134779  20.257   5.883   0.249
11820CHOL    C234780  20.420   5.808   0.090
11821CHOL   ROH34781   2.357  21.794   9.744
11821CHOL    R134782   2.270  21.928   9.734
11821CHOL    R234783   2.339  22.105   9.599
11821CHOL    R334784   2.172  22.079   9.722
11821CHOL    R434785   2.263  22.223   9.590
11821CHOL    R534786   2.085  22.213   9.712
11821CHOL    C134787   1.955  22.414   9.697
11821CHOL    C234788   1.825  22.615   9.681
11822CHOL   ROH34789  14.344  23.163   8.244
11822CHOL    R134790  14.399  23.312   8.225
11822CHOL    R234791  14.573  23.357   8.076
11822CHOL    R334792  14.461  23.480   8.204
11822CHOL    R434793  14.621  23.488   8.059
11822CHOL    R534794  14.516  23.629   8.184
11822CHOL    C134795  14.599  23.852   8.156
11822CHOL    C234796  14.682  24.075   8.127
11823CHOL   ROH34797  13.605  10.714  -3.617
11823CHOL    R134798  13.650  10.723  -3.770
11823CHOL    R234799  13.535  10.607  -3.937
11823CHOL    R334800  13.701  10.734  -3.942
11823CHOL    R434801  13.575  10.616  -4.071
11823CHOL    R534802  13.746  10.744  -4.096
11823CHOL    C134803  13.814  10.758  -4.325
11823CHOL    C234804  13.882  10.772  -4.555
11824CHOL   ROH34805   7.990   2.192  21.482
11824CHOL    R134806   7.971   2.109  21.618
11824CHOL    R234807   8.143   2.094  21.774
11824CHOL    R334808   7.949   2.016  21.770
11824CHOL    R434809   8.126   2.021  21.893
11824CHOL    R534810   7.930   1.933  21.905
11824CHOL    C134811   7.901   1.809  22.109
11824CHOL    C234812   7.872   1.684  22.312
11825CHOL   ROH34813  15.033  19.797   1.263
11825CHOL    R134814  15.098  19.910   1.171
11825CHOL    R234815  15.259  19.856   1.011
11825CHOL    R334816  15.172  20.037   1.066
11825CHOL    R434817  15.317  19.955   0.930
11825CHOL    R534818  15.238  20.150   0.974
11825CHOL    C134819  15.336  20.319   0.835
11825CHOL    C234820  15.434  20.489   0.697
11826CHOL   ROH34821  15.787  -2.744  10.114
11826CHOL    R134822  15.856  -2.888  10.116
11826CHOL    R234823  16.080  -2.915  10.059
11826CHOL    R334824  15.933  -3.051  10.119
11826CHOL    R434825  16.140  -3.042  10.061
11826CHOL    R534826  16.002  -3.195  10.122
11826CHOL    C134827  16.105  -3.412  10.125
11826CHOL    C234828  16.208  -3.629  10.129
11827CHOL   ROH34829  16.728  19.878   2.809
11827CHOL    R134830  16.810  19.987   2.726
11827CHOL    R234831  16.918  19.931   2.527
11827CHOL    R334832  16.902  20.111   2.633
11827CHOL    R434833  16.990  20.027   2.455
11827CHOL    R534834  16.985  20.220   2.550
11827CHOL    C134835  17.108  20.384   2.426
11827CHOL    C234836  17.231  20.548   2.301
11828CHOL   ROH34837  18.638   5.122   0.164
11828CHOL    R134838  18.738   5.063   0.054
11828CHOL    R234839  18.959   5.135   0.042
11828CHOL    R334840  18.851   4.996  -0.070
11828CHOL    R434841  19.047   5.084  -0.054
11828CHOL    R534842  18.951   4.937  -0.179
11828CHOL    C134843  19.101   4.848  -0.344
11828CHOL    C234844  19.251   4.759  -0.509
11829CHOL   ROH34845  22.900  15.135  10.802
11829CHOL    R134846  23.049  15.194  10.808
11829CHOL    R234847  23.234  15.055  10.777
11829CHOL    R334848  23.216  15.260  10.815
11829CHOL    R434849  23.364  15.107  10.782
11829CHOL    R534850  23.365  15.319  10.820
11829CHOL    C134851  23.588  15.407  10.829
11829CHOL    C234852  23.811  15.495  10.838
11830CHOL   ROH34853  20.222   5.732   1.444
11830CHOL    R134854  20.335   5.677   1.345
11830CHOL    R234855  20.301   5.674   1.114
11830CHOL    R334856  20.462   5.615   1.234
11830CHOL    R434857  20.400   5.626   1.027
11830CHOL    R534858  20.575   5.560   1.135
11830CHOL    C134859  20.744   5.477   0.986
11830CHOL    C234860  20.914   5.394   0.837
11831CHOL   ROH34861  14.917  19.874  18.572
11831CHOL    R134862  14.972  19.991  18.666
11831CHOL    R234863  15.061  19.943  18.877
11831CHOL    R334864  15.034  20.122  18.773
11831CHOL    R434865  15.109  20.045  18.959
11831CHOL    R534866  15.089  20.239  18.867
11831CHOL    C134867  15.172  20.414  19.009
11831CHOL    C234868  15.254  20.589  19.150
11832CHOL   ROH34869  21.135  18.352   9.535
11832CHOL    R134870  21.267  18.443   9.527
11832CHOL    R234871  21.478  18.346   9.511
11832CHOL    R334872  21.414  18.545   9.517
11832CHOL    R434873  21.593  18.425   9.504
11832CHOL    R534874  21.546  18.636   9.509
11832CHOL    C134875  21.743  18.772   9.497
11832CHOL    C234876  21.941  18.908   9.484
11833CHOL   ROH34877  21.800  12.307   2.927
11833CHOL    R134878  21.935  12.331   2.845
11833CHOL    R234879  21.980  12.536   2.743
11833CHOL    R334880  22.087  12.357   2.752
11833CHOL    R434881  22.098  12.557   2.671
11833CHOL    R534882  22.222  12.381   2.670
11833CHOL    C134883  22.425  12.417   2.547
11833CHOL    C234884  22.628  12.452   2.423
11834CHOL   ROH34885  -2.650  10.777  16.321
11834CHOL    R134886  -2.791  10.783  16.396
11834CHOL    R234887  -2.841  10.637  16.570
11834CHOL    R334888  -2.950  10.791  16.480
11834CHOL    R434889  -2.965  10.642  16.635
11834CHOL    R534890  -3.091  10.797  16.555
11834CHOL    C134891  -3.303  10.807  16.667
11834CHOL    C234892  -3.515  10.816  16.779
11835CHOL   ROH34893  -2.923   4.991  12.762
11835CHOL    R134894  -3.070   4.935  12.793
11835CHOL    R234895  -3.172   4.974  12.998
11835CHOL    R334896  -3.234   4.872  12.827
11835CHOL    R434897  -3.300   4.925  13.025
11835CHOL    R534898  -3.381   4.816  12.858
11835CHOL    C134899  -3.601   4.731  12.904
11835CHOL    C234900  -3.821   4.647  12.950
11836CHOL   ROH34901  18.583  19.086  15.924
11836CHOL    R134902  18.683  19.194  15.988
11836CHOL    R234903  18.749  19.382  15.867
11836CHOL    R334904  18.795  19.315  16.059
11836CHOL    R434905  18.836  19.476  15.923
11836CHOL    R534906  18.895  19.422  16.123
11836CHOL    C134907  19.044  19.584  16.219
11836CHOL    C234908  19.194  19.746  16.314
11837CHOL   ROH34909   7.106  23.769  10.980
11837CHOL    R134910   7.078  23.926  10.991
11837CHOL    R234911   7.129  24.044  11.186
11837CHOL    R334912   7.046  24.103  11.004
11837CHOL    R434913   7.105  24.181  11.196
11837CHOL    R534914   7.017  24.260  11.015
11837CHOL    C134915   6.975  24.496  11.032
11837CHOL    C234916   6.933  24.731  11.049
11838CHOL   ROH34917  16.253  12.454  22.239
11838CHOL    R134918  16.335  12.486  22.373
11838CHOL    R234919  16.489  12.333  22.458
11838CHOL    R334920  16.427  12.522  22.523
11838CHOL    R434921  16.560  12.361  22.575
11838CHOL    R534922  16.509  12.554  22.657
11838CHOL    C134923  16.632  12.602  22.857
11838CHOL    C234924  16.755  12.650  23.057
11839CHOL   ROH34925  18.353  14.463  -0.339
11839CHOL    R134926  18.447  14.513  -0.459
11839CHOL    R234927  18.476  14.384  -0.651
11839CHOL    R334928  18.552  14.570  -0.593
11839CHOL    R434929  18.559  14.428  -0.755
11839CHOL    R534930  18.646  14.621  -0.713
11839CHOL    C134931  18.787  14.696  -0.892
11839CHOL    C234932  18.927  14.772  -1.071
11840CHOL   ROH34933  18.037  15.586  -0.043
11840CHOL    R134934  18.127  15.649  -0.159
11840CHOL    R234935  18.170  15.531  -0.356
11840CHOL    R334936  18.229  15.720  -0.289
11840CHOL    R434937  18.248  15.587  -0.457
11840CHOL    R534938  18.319  15.783  -0.405
11840CHOL    C134939  18.454  15.878  -0.579
11840CHOL    C234940  18.590  15.973  -0.753
11841CHOL   ROH34941  12.847  17.516  21.411
11841CHOL    R134942  12.880  17.598  21.544
11841CHOL    R234943  13.098  17.610  21.627
11841CHOL    R334944  12.917  17.690  21.694
11841CHOL    R434945  13.127  17.681  21.744
11841CHOL    R534946  12.950  17.772  21.827
11841CHOL    C134947  12.999  17.896  22.027
11841CHOL    C234948  13.049  18.019  22.227
11842CHOL   ROH34949  19.572  11.381  -0.109
11842CHOL    R134950  19.686  11.396  -0.220
11842CHOL    R234951  19.755  11.212  -0.346
11842CHOL    R334952  19.815  11.412  -0.345
11842CHOL    R434953  19.855  11.225  -0.443
11842CHOL    R534954  19.930  11.427  -0.455
11842CHOL    C134955  20.101  11.448  -0.622
11842CHOL    C234956  20.273  11.470  -0.788
11843CHOL   ROH34957   6.285   7.981  -3.515
11843CHOL    R134958   6.248   7.959  -3.669
11843CHOL    R234959   6.087   7.803  -3.733
11843CHOL    R334960   6.205   7.935  -3.842
11843CHOL    R434961   6.054   7.784  -3.868
11843CHOL    R534962   6.168   7.914  -3.996
11843CHOL    C134963   6.112   7.881  -4.228
11843CHOL    C234964   6.056   7.849  -4.459
11844CHOL   ROH34965  -1.409   8.074  18.122
11844CHOL    R134966  -1.537   8.056  18.217
11844CHOL    R234967  -1.552   8.170  18.420
11844CHOL    R334968  -1.680   8.036  18.324
11844CHOL    R434969  -1.664   8.154  18.503
11844CHOL    R534970  -1.808   8.018  18.418
11844CHOL    C134971  -1.999   7.990  18.561
11844CHOL    C234972  -2.190   7.963  18.703
11845CHOL   ROH34973  -0.908   4.237  16.967
11845CHOL    R134974  -1.027   4.169  17.049
11845CHOL    R234975  -1.026   3.940  17.094
11845CHOL    R334976  -1.162   4.091  17.140
11845CHOL    R434977  -1.131   3.880  17.165
11845CHOL    R534978  -1.281   4.023  17.222
11845CHOL    C134979  -1.460   3.920  17.344
11845CHOL    C234980  -1.639   3.818  17.467
11846CHOL   ROH34981   7.291  12.275  -3.719
11846CHOL    R134982   7.263  12.298  -3.875
11846CHOL    R234983   7.046  12.327  -3.954
11846CHOL    R334984   7.231  12.325  -4.050
11846CHOL    R434985   7.021  12.348  -4.090
11846CHOL    R534986   7.203  12.348  -4.205
11846CHOL    C134987   7.161  12.383  -4.439
11846CHOL    C234988   7.119  12.418  -4.673
11847CHOL   ROH34989   8.374  -3.734  12.614
11847CHOL    R134990   8.358  -3.891  12.638
11847CHOL    R234991   8.344  -3.978  12.854
11847CHOL    R334992   8.339  -4.068  12.666
11847CHOL    R434993   8.330  -4.116  12.876
11847CHOL    R534994   8.323  -4.226  12.691
11847CHOL    C134995   8.298  -4.461  12.727
11847CHOL    C234996   8.273  -4.697  12.764
11848CHOL   ROH34997  11.019  23.726   7.302
11848CHOL    R134998  11.033  23.882   7.271
11848CHOL    R234999  11.159  24.021   7.409
11848CHOL    R335000  11.049  24.058   7.236
11848CHOL    R435001  11.171  24.158   7.382
11848CHOL    R535002  11.063  24.214   7.205
11848CHOL    C135003  11.083  24.449   7.158
11848CHOL    C235004  11.104  24.683   7.112
11849CHOL   ROH35005  17.849   2.838   0.902
11849CHOL    R135006  17.945   2.760   0.800
11849CHOL    R235007  17.866   2.683   0.595
11849CHOL    R335008  18.053   2.672   0.686
11849CHOL    R435009  17.950   2.615   0.506
11849CHOL    R535010  18.149   2.595   0.585
11849CHOL    C135011  18.293   2.478   0.432
11849CHOL    C235012  18.437   2.361   0.280
11850CHOL   ROH35013  -2.701   5.579  14.443
11850CHOL    R135014  -2.845   5.526  14.488
11850CHOL    R235015  -2.928   5.571  14.701
11850CHOL    R335016  -3.007   5.466  14.539
11850CHOL    R435017  -3.054   5.524  14.741
11850CHOL    R535018  -3.152   5.414  14.584
11850CHOL    C135019  -3.368   5.334  14.651
11850CHOL    C235020  -3.584   5.255  14.718
11851CHOL   ROH35021  12.354   2.563  -1.714
11851CHOL    R135022  12.379   2.476  -1.846
11851CHOL    R235023  12.572   2.505  -1.973
11851CHOL    R335024  12.408   2.378  -1.995
11851CHOL    R435025  12.595   2.429  -2.089
11851CHOL    R535026  12.433   2.292  -2.127
11851CHOL    C135027  12.471   2.161  -2.325
11851CHOL    C235028  12.509   2.031  -2.523
11852CHOL   ROH35029   5.866   2.184  20.998
11852CHOL    R135030   5.824   2.096  21.125
11852CHOL    R235031   5.872   1.867  21.133
11852CHOL    R335032   5.777   1.996  21.267
11852CHOL    R435033   5.835   1.790  21.243
11852CHOL    R535034   5.735   1.907  21.394
11852CHOL    C135035   5.671   1.775  21.583
11852CHOL    C235036   5.608   1.642  21.773
11853CHOL   ROH35037  16.505  15.483  -1.162
11853CHOL    R135038  16.583  15.546  -1.287
11853CHOL    R235039  16.606  15.428  -1.486
11853CHOL    R335040  16.671  15.617  -1.427
11853CHOL    R435041  16.674  15.483  -1.595
11853CHOL    R535042  16.749  15.681  -1.552
11853CHOL    C135043  16.865  15.775  -1.738
11853CHOL    C235044  16.982  15.870  -1.925
11854CHOL   ROH35045   9.287  -0.122  19.661
11854CHOL    R135046   9.286  -0.238  19.771
11854CHOL    R235047   9.301  -0.462  19.709
11854CHOL    R335048   9.286  -0.369  19.895
11854CHOL    R435049   9.301  -0.564  19.805
11854CHOL    R535050   9.285  -0.485  20.005
11854CHOL    C135051   9.284  -0.659  20.170
11854CHOL    C235052   9.283  -0.833  20.335
11855CHOL   ROH35053  -3.768   6.685  10.448
11855CHOL    R135054  -3.923   6.645  10.457
11855CHOL    R235055  -3.990   6.447  10.560
11855CHOL    R335056  -4.097   6.601  10.467
11855CHOL    R435057  -4.125   6.412  10.568
11855CHOL    R535058  -4.252   6.561  10.476
11855CHOL    C135059  -4.484   6.501  10.489
11855CHOL    C235060  -4.716   6.442  10.503
11856CHOL   ROH35061   7.955  10.740  23.739
11856CHOL    R135062   7.926  10.753  23.896
11856CHOL    R235063   7.960  10.954  24.008
11856CHOL    R335064   7.893  10.767  24.072
11856CHOL    R435065   7.934  10.965  24.145
11856CHOL    R535066   7.863  10.780  24.229
11856CHOL    C135067   7.820  10.799  24.464
11856CHOL    C235068   7.776  10.818  24.699
11857CHOL   ROH35069  20.638  14.985   2.385
11857CHOL    R135070  20.762  15.041   2.301
11857CHOL    R235071  20.739  15.094   2.075
11857CHOL    R335072  20.901  15.105   2.206
11857CHOL    R435073  20.848  15.143   2.001
11857CHOL    R535074  21.025  15.161   2.122
11857CHOL    C135075  21.211  15.245   1.996
11857CHOL    C235076  21.397  15.330   1.870
11858CHOL   ROH35077   0.390   0.676  14.623
11858CHOL    R135078   0.281   0.572  14.676
11858CHOL    R235079   0.335   0.412  14.836
11858CHOL    R335080   0.157   0.455  14.736
11858CHOL    R435081   0.239   0.321  14.883
11858CHOL    R535082   0.048   0.351  14.789
11858CHOL    C135083  -0.116   0.195  14.868
11858CHOL    C235084  -0.280   0.039  14.947
11859CHOL   ROH35085  10.837   9.023  23.949
11859CHOL    R135086  10.849   9.012  24.108
11859CHOL    R235087  10.883   8.806  24.212
11859CHOL    R335088  10.862   9.000  24.287
11859CHOL    R435089  10.893   8.796  24.351
11859CHOL    R535090  10.874   8.989  24.446
11859CHOL    C135091  10.892   8.972  24.685
11859CHOL    C235092  10.910   8.955  24.924
11860CHOL   ROH35093   8.630  -2.509  16.282
11860CHOL    R135094   8.614  -2.651  16.354
11860CHOL    R235095   8.799  -2.789  16.389
11860CHOL    R335096   8.597  -2.810  16.436
11860CHOL    R435097   8.785  -2.913  16.452
11860CHOL    R535098   8.581  -2.952  16.509
11860CHOL    C135099   8.557  -3.165  16.617
11860CHOL    C235100   8.534  -3.377  16.726
11861CHOL   ROH35101  -1.209  18.157   6.782
11861CHOL    R135102  -1.334  18.248   6.742
11861CHOL    R235103  -1.519  18.268   6.883
11861CHOL    R335104  -1.475  18.350   6.696
11861CHOL    R435105  -1.628  18.347   6.848
11861CHOL    R535106  -1.600  18.442   6.656
11861CHOL    C135107  -1.788  18.578   6.596
11861CHOL    C235108  -1.975  18.715   6.535
11862CHOL   ROH35109  15.653  -1.966   5.497
11862CHOL    R135110  15.719  -2.103   5.447
11862CHOL    R235111  15.941  -2.111   5.375
11862CHOL    R335112  15.792  -2.257   5.390
11862CHOL    R435113  15.998  -2.231   5.331
11862CHOL    R535114  15.858  -2.394   5.339
11862CHOL    C135115  15.956  -2.599   5.264
11862CHOL    C235116  16.055  -2.805   5.188
11863CHOL   ROH35117  10.534   7.303  23.727
11863CHOL    R135118  10.539   7.270  23.883
11863CHOL    R235119  10.548   7.441  24.042
11863CHOL    R335120  10.545   7.233  24.060
11863CHOL    R435121  10.552   7.413  24.179
11863CHOL    R535122  10.550   7.200  24.216
11863CHOL    C135123  10.558   7.151  24.451
11863CHOL    C235124  10.565   7.102  24.685
11864CHOL   ROH35125  21.892  15.158   4.749
11864CHOL    R135126  22.029  15.219   4.693
11864CHOL    R235127  22.029  15.412   4.562
11864CHOL    R335128  22.183  15.287   4.629
11864CHOL    R435129  22.149  15.465   4.513
11864CHOL    R535130  22.320  15.348   4.573
11864CHOL    C135131  22.525  15.439   4.488
11864CHOL    C235132  22.730  15.530   4.403
11865CHOL   ROH35133  19.802   0.543  12.980
11865CHOL    R135134  19.918   0.438  13.014
11865CHOL    R235135  20.079   0.382  12.855
11865CHOL    R335136  20.048   0.320  13.052
11865CHOL    R435137  20.180   0.290  12.885
11865CHOL    R535138  20.163   0.214  13.086
11865CHOL    C135139  20.337   0.057  13.137
11865CHOL    C235140  20.511  -0.101  13.188
11866CHOL   ROH35141   5.379  14.713  -2.530
11866CHOL    R135142   5.327  14.769  -2.671
11866CHOL    R235143   5.185  14.954  -2.681
11866CHOL    R335144   5.268  14.831  -2.829
11866CHOL    R435145   5.139  15.002  -2.804
11866CHOL    R535146   5.216  14.887  -2.969
11866CHOL    C135147   5.137  14.970  -3.180
11866CHOL    C235148   5.059  15.053  -3.391
11867CHOL   ROH35149  17.080  13.161  -1.717
11867CHOL    R135150  17.166  13.197  -1.847
11867CHOL    R235151  17.064  13.289  -2.036
11867CHOL    R335152  17.262  13.238  -1.994
11867CHOL    R435153  17.139  13.321  -2.150
11867CHOL    R535154  17.347  13.275  -2.124
11867CHOL    C135155  17.476  13.329  -2.319
11867CHOL    C235156  17.604  13.383  -2.515
11868CHOL   ROH35157  21.593  12.202   2.569
11868CHOL    R135158  21.726  12.224   2.482
11868CHOL    R235159  21.753  12.415   2.350
11868CHOL    R335160  21.875  12.249   2.384
11868CHOL    R435161  21.869  12.434   2.274
11868CHOL    R535162  22.007  12.271   2.298
11868CHOL    C135163  22.206  12.304   2.167
11868CHOL    C235164  22.405  12.337   2.037
11869CHOL   ROH35165  12.436   9.010  23.693
11869CHOL    R135166  12.470   8.998  23.849
11869CHOL    R235167  12.668   8.898  23.921
11869CHOL    R335168  12.509   8.985  24.024
11869CHOL    R435169  12.698   8.888  24.057
11869CHOL    R535170  12.544   8.974  24.180
11869CHOL    C135171  12.595   8.956  24.414
11869CHOL    C235172  12.647   8.938  24.648
11870CHOL   ROH35173   2.596   6.797  -1.707
11870CHOL    R135174   2.511   6.761  -1.838
11870CHOL    R235175   2.290   6.832  -1.859
11870CHOL    R335176   2.415   6.721  -1.984
11870CHOL    R435177   2.215   6.800  -1.974
11870CHOL    R535178   2.329   6.685  -2.115
11870CHOL    C135179   2.202   6.631  -2.311
11870CHOL    C235180   2.074   6.577  -2.507
11871CHOL   ROH35181   8.616  -3.834  12.061
11871CHOL    R135182   8.602  -3.992  12.081
11871CHOL    R235183   8.592  -4.086  12.294
11871CHOL    R335184   8.587  -4.170  12.103
11871CHOL    R435185   8.580  -4.225  12.311
11871CHOL    R535186   8.574  -4.329  12.122
11871CHOL    C135187   8.553  -4.566  12.152
11871CHOL    C235188   8.533  -4.803  12.182
11872CHOL   ROH35189  12.317   8.923  -3.921
11872CHOL    R135190  12.344   8.910  -4.078
11872CHOL    R235191  12.420   9.092  -4.202
11872CHOL    R335192  12.374   8.895  -4.255
11872CHOL    R435193  12.443   9.081  -4.340
11872CHOL    R535194  12.401   8.882  -4.412
11872CHOL    C135195  12.441   8.862  -4.648
11872CHOL    C235196  12.482   8.843  -4.883
11873CHOL   ROH35197  19.541  -0.165  10.969
11873CHOL    R135198  19.649  -0.282  10.985
11873CHOL    R235199  19.876  -0.241  10.948
11873CHOL    R335200  19.771  -0.414  11.002
11873CHOL    R435201  19.970  -0.344  10.962
11873CHOL    R535202  19.879  -0.531  11.017
11873CHOL    C135203  20.041  -0.706  11.041
11873CHOL    C235204  20.203  -0.881  11.064
11874CHOL   ROH35205  16.808  21.649   6.255
11874CHOL    R135206  16.881  21.787   6.220
11874CHOL    R235207  17.077  21.791   6.095
11874CHOL    R335208  16.962  21.943   6.181
11874CHOL    R435209  17.141  21.912   6.064
11874CHOL    R535210  17.035  22.081   6.146
11874CHOL    C135211  17.144  22.288   6.094
11874CHOL    C235212  17.253  22.496   6.041
11875CHOL   ROH35213  -2.273   9.083   2.904
11875CHOL    R135214  -2.412   9.072   2.826
11875CHOL    R235215  -2.524   8.868   2.808
11875CHOL    R335216  -2.569   9.059   2.738
11875CHOL    R435217  -2.645   8.858   2.740
11875CHOL    R535218  -2.708   9.048   2.660
11875CHOL    C135219  -2.917   9.031   2.543
11875CHOL    C235220  -3.126   9.014   2.426
11876CHOL   ROH35221  10.509  -3.876  12.007
11876CHOL    R135222  10.516  -4.034  12.028
11876CHOL    R235223  10.661  -4.166  11.901
11876CHOL    R335224  10.524  -4.213  12.052
11876CHOL    R435225  10.667  -4.305  11.920
11876CHOL    R535226  10.531  -4.371  12.073
11876CHOL    C135227  10.542  -4.609  12.105
11876CHOL    C235228  10.553  -4.846  12.136
11877CHOL   ROH35229  22.824   9.328  15.415
11877CHOL    R135230  22.970   9.318  15.481
11877CHOL    R235231  23.126   9.162  15.405
11877CHOL    R335232  23.133   9.308  15.555
11877CHOL    R435233  23.253   9.154  15.462
11877CHOL    R535234  23.279   9.298  15.621
11877CHOL    C135235  23.497   9.284  15.719
11877CHOL    C235236  23.716   9.269  15.818
11878CHOL   ROH35237   9.128  -2.931  15.476
11878CHOL    R135238   9.117  -3.078  15.539
11878CHOL    R235239   9.267  -3.149  15.703
11878CHOL    R335240   9.106  -3.243  15.609
11878CHOL    R435241   9.257  -3.278  15.758
11878CHOL    R535242   9.095  -3.390  15.672
11878CHOL    C135243   9.079  -3.610  15.766
11878CHOL    C235244   9.063  -3.831  15.860
11879CHOL   ROH35245  -3.709   8.261   6.691
11879CHOL    R135246  -3.863   8.250   6.650
11879CHOL    R235247  -4.026   8.374   6.761
11879CHOL    R335248  -4.037   8.238   6.603
11879CHOL    R435249  -4.161   8.365   6.725
11879CHOL    R535250  -4.191   8.226   6.562
11879CHOL    C135251  -4.422   8.210   6.500
11879CHOL    C235252  -4.654   8.193   6.438
11880CHOL   ROH35253  -2.944  13.348   5.436
11880CHOL    R135254  -3.091  13.388   5.386
11880CHOL    R235255  -3.242  13.491   5.530
11880CHOL    R335256  -3.256  13.432   5.331
11880CHOL    R435257  -3.371  13.525   5.487
11880CHOL    R535258  -3.403  13.471   5.281
11880CHOL    C135259  -3.623  13.531   5.207
11880CHOL    C235260  -3.844  13.590   5.132
11881CHOL   ROH35261  11.003   0.317  19.957
11881CHOL    R135262  11.023   0.205  20.069
11881CHOL    R235263  11.056  -0.019  20.010
11881CHOL    R335264  11.046   0.078  20.195
11881CHOL    R435265  11.074  -0.117  20.108
11881CHOL    R535266  11.066  -0.035  20.307
11881CHOL    C135267  11.096  -0.203  20.475
11881CHOL    C235268  11.126  -0.372  20.643
11882CHOL   ROH35269   9.095  23.191   5.057
11882CHOL    R135270   9.087  23.342   5.004
11882CHOL    R235271   9.181  23.402   4.799
11882CHOL    R335272   9.079  23.511   4.944
11882CHOL    R435273   9.174  23.533   4.753
11882CHOL    R535274   9.071  23.662   4.892
11882CHOL    C135275   9.060  23.888   4.812
11882CHOL    C235276   9.049  24.114   4.733
11883CHOL   ROH35277  11.322  12.767  -3.762
11883CHOL    R135278  11.338  12.802  -3.917
11883CHOL    R235279  11.459  12.663  -4.060
11883CHOL    R335280  11.357  12.842  -4.092
11883CHOL    R435281  11.474  12.694  -4.196
11883CHOL    R535282  11.373  12.877  -4.247
11883CHOL    C135283  11.397  12.931  -4.480
11883CHOL    C235284  11.422  12.984  -4.713
11884CHOL   ROH35285  -0.116  19.426  12.947
11884CHOL    R135286  -0.232  19.530  12.983
11884CHOL    R235287  -0.391  19.479  13.146
11884CHOL    R335288  -0.363  19.646  13.025
11884CHOL    R435289  -0.493  19.570  13.178
11884CHOL    R535290  -0.479  19.750  13.061
11884CHOL    C135291  -0.653  19.906  13.116
11884CHOL    C235292  -0.827  20.061  13.170
11885CHOL   ROH35293  21.018  13.941   2.345
11885CHOL    R135294  21.146  13.983   2.258
11885CHOL    R235295  21.122  14.066   2.042
11885CHOL    R335296  21.289  14.031   2.161
11885CHOL    R435297  21.233  14.103   1.966
11885CHOL    R535298  21.417  14.074   2.075
11885CHOL    C135299  21.609  14.137   1.945
11885CHOL    C235300  21.800  14.201   1.815
11886CHOL   ROH35301  16.513   2.580  19.841
11886CHOL    R135302  16.591   2.496  19.953
11886CHOL    R235303  16.786   2.379  19.900
11886CHOL    R335304  16.679   2.402  20.078
11886CHOL    R435305  16.855   2.306  19.998
11886CHOL    R535306  16.758   2.318  20.189
11886CHOL    C135307  16.875   2.192  20.357
11886CHOL    C235308  16.992   2.066  20.524
11887CHOL   ROH35309  16.746  10.911  -2.239
11887CHOL    R135310  16.824  10.919  -2.378
11887CHOL    R235311  16.915  10.728  -2.476
11887CHOL    R335312  16.913  10.929  -2.535
11887CHOL    R435313  16.984  10.736  -2.598
11887CHOL    R535314  16.991  10.937  -2.674
11887CHOL    C135315  17.109  10.949  -2.883
11887CHOL    C235316  17.226  10.962  -3.092
11888CHOL   ROH35317   0.655  11.268  20.458
11888CHOL    R135318   0.552  11.286  20.579
11888CHOL    R235319   0.595  11.191  20.788
11888CHOL    R335320   0.436  11.306  20.716
11888CHOL    R435321   0.505  11.207  20.894
11888CHOL    R535322   0.334  11.325  20.837
11888CHOL    C135323   0.179  11.352  21.019
11888CHOL    C235324   0.025  11.379  21.201
11889CHOL   ROH35325  21.755   2.773  12.075
11889CHOL    R135326  21.889   2.690  12.101
11889CHOL    R235327  21.932   2.492  11.985
11889CHOL    R335328  22.041   2.597  12.129
11889CHOL    R435329  22.050   2.419  12.008
11889CHOL    R535330  22.175   2.514  12.155
11889CHOL    C135331  22.377   2.389  12.193
11889CHOL    C235332  22.578   2.264  12.232
11890CHOL   ROH35333   2.153   4.764  -0.544
11890CHOL    R135334   2.065   4.700  -0.661
11890CHOL    R235335   1.836   4.664  -0.633
11890CHOL    R335336   1.965   4.627  -0.793
11890CHOL    R435337   1.759   4.608  -0.735
11890CHOL    R535338   1.877   4.563  -0.909
11890CHOL    C135339   1.745   4.467  -1.085
11890CHOL    C235340   1.612   4.370  -1.260
11891CHOL   ROH35341  11.191  23.758   7.556
11891CHOL    R135342  11.206  23.915   7.527
11891CHOL    R235343  11.369  24.041   7.636
11891CHOL    R335344  11.224  24.091   7.495
11891CHOL    R435345  11.383  24.178   7.611
11891CHOL    R535346  11.239  24.248   7.467
11891CHOL    C135347  11.262  24.482   7.424
11891CHOL    C235348  11.285  24.717   7.381
11892CHOL   ROH35349   2.889   0.009   2.922
11892CHOL    R135350   2.812  -0.099   2.833
11892CHOL    R235351   2.922  -0.287   2.749
11892CHOL    R335352   2.724  -0.220   2.733
11892CHOL    R435353   2.854  -0.381   2.671
11892CHOL    R535354   2.647  -0.328   2.644
11892CHOL    C135355   2.531  -0.490   2.511
11892CHOL    C235356   2.415  -0.652   2.377
11893CHOL   ROH35357   4.746  20.165  18.154
11893CHOL    R135358   4.692  20.281  18.250
11893CHOL    R235359   4.803  20.486  18.264
11893CHOL    R335360   4.631  20.412  18.357
11893CHOL    R435361   4.756  20.588  18.348
11893CHOL    R535362   4.577  20.528  18.453
11893CHOL    C135363   4.496  20.703  18.596
11893CHOL    C235364   4.415  20.877  18.739
11894CHOL   ROH35365  -1.215  18.668   8.890
11894CHOL    R135366  -1.339  18.769   8.881
11894CHOL    R235367  -1.459  18.829   9.072
11894CHOL    R335368  -1.478  18.883   8.871
11894CHOL    R435369  -1.567  18.918   9.064
11894CHOL    R535370  -1.602  18.984   8.862
11894CHOL    C135371  -1.787  19.136   8.848
11894CHOL    C235372  -1.973  19.287   8.834
11895CHOL   ROH35373   9.745  20.760  18.970
11895CHOL    R135374   9.745  20.881  19.075
11895CHOL    R235375   9.773  20.843  19.303
11895CHOL    R335376   9.745  21.017  19.192
11895CHOL    R435377   9.773  20.949  19.394
11895CHOL    R535378   9.744  21.139  19.297
11895CHOL    C135379   9.744  21.320  19.454
11895CHOL    C235380   9.744  21.502  19.611
11896CHOL   ROH35381  13.596  17.994  20.885
11896CHOL    R135382  13.638  18.082  21.012
11896CHOL    R235383  13.846  18.187  21.022
11896CHOL    R335384  13.685  18.181  21.155
11896CHOL    R435385  13.883  18.264  21.133
11896CHOL    R535386  13.727  18.269  21.281
11896CHOL    C135387  13.790  18.401  21.472
11896CHOL    C235388  13.853  18.533  21.662
11897CHOL   ROH35389  13.943  15.934  21.963
11897CHOL    R135390  13.986  16.002  22.101
11897CHOL    R235391  14.128  15.892  22.250
11897CHOL    R335392  14.035  16.078  22.257
11897CHOL    R435393  14.166  15.951  22.371
11897CHOL    R535394  14.078  16.146  22.395
11897CHOL    C135395  14.143  16.248  22.602
11897CHOL    C235396  14.208  16.350  22.810
11898CHOL   ROH35397  10.281  13.497  23.511
11898CHOL    R135398  10.289  13.541  23.664
11898CHOL    R235399  10.440  13.441  23.811
11898CHOL    R335400  10.298  13.592  23.837
11898CHOL    R435401  10.447  13.480  23.945
11898CHOL    R535402  10.306  13.636  23.990
11898CHOL    C135403  10.318  13.703  24.221
11898CHOL    C235404  10.330  13.769  24.451
11899CHOL   ROH35405   2.392  13.888  -1.274
11899CHOL    R135406   2.306  13.930  -1.402
11899CHOL    R235407   2.085  14.001  -1.381
11899CHOL    R335408   2.210  13.977  -1.547
11899CHOL    R435409   2.010  14.037  -1.494
11899CHOL    R535410   2.124  14.018  -1.675
11899CHOL    C135411   1.995  14.081  -1.868
11899CHOL    C235412   1.867  14.144  -2.061
11900CHOL   ROH35413  21.524   3.663   5.185
11900CHOL    R135414  21.656   3.590   5.132
11900CHOL    R235415  21.855   3.708   5.102
11900CHOL    R335416  21.805   3.508   5.073
11900CHOL    R435417  21.971   3.644   5.056
11900CHOL    R535418  21.937   3.435   5.020
11900CHOL    C135419  22.135   3.325   4.942
11900CHOL    C235420  22.333   3.215   4.863
11901CHOL   ROH35421  23.229  13.938  11.644
11901CHOL    R135422  23.382  13.981  11.664
11901CHOL    R235423  23.544  13.927  11.506
11901CHOL    R335424  23.554  14.029  11.687
11901CHOL    R435425  23.678  13.964  11.524
11901CHOL    R535426  23.706  14.073  11.707
11901CHOL    C135427  23.936  14.137  11.738
11901CHOL    C235428  24.165  14.202  11.768
11902CHOL   ROH35429  15.107  20.623  17.442
11902CHOL    R135430  15.168  20.746  17.525
11902CHOL    R235431  15.177  20.960  17.433
11902CHOL    R335432  15.237  20.883  17.618
11902CHOL    R435433  15.230  21.067  17.506
11902CHOL    R535434  15.298  21.006  17.701
11902CHOL    C135435  15.390  21.190  17.825
11902CHOL    C235436  15.481  21.374  17.950
11903CHOL   ROH35437   7.444   8.232  -3.782
11903CHOL    R135438   7.419   8.211  -3.939
11903CHOL    R235439   7.236   8.087  -4.015
11903CHOL    R335440   7.391   8.187  -4.115
11903CHOL    R435441   7.214   8.069  -4.152
11903CHOL    R535442   7.366   8.166  -4.272
11903CHOL    C135443   7.328   8.134  -4.506
11903CHOL    C235444   7.290   8.102  -4.741
11904CHOL   ROH35445  -3.257   8.110  14.659
11904CHOL    R135446  -3.407   8.090  14.711
11904CHOL    R235447  -3.463   7.914  14.853
11904CHOL    R335448  -3.576   8.069  14.769
11904CHOL    R435449  -3.594   7.897  14.898
11904CHOL    R535450  -3.726   8.049  14.821
11904CHOL    C135451  -3.951   8.020  14.899
11904CHOL    C235452  -4.176   7.990  14.977
11905CHOL   ROH35453  -1.721  17.823  11.405
11905CHOL    R135454  -1.851  17.914  11.425
11905CHOL    R235455  -1.944  17.944  11.637
11905CHOL    R335456  -1.997  18.016  11.448
11905CHOL    R435457  -2.058  18.024  11.655
11905CHOL    R535458  -2.127  18.107  11.469
11905CHOL    C135459  -2.323  18.243  11.499
11905CHOL    C235460  -2.518  18.380  11.529
11906CHOL   ROH35461  13.677  -3.120   6.633
11906CHOL    R135462  13.727  -3.267   6.595
11906CHOL    R235463  13.953  -3.311   6.556
11906CHOL    R335464  13.783  -3.433   6.553
11906CHOL    R435465  13.996  -3.440   6.522
11906CHOL    R535466  13.833  -3.580   6.515
11906CHOL    C135467  13.908  -3.801   6.458
11906CHOL    C235468  13.983  -4.022   6.402
11907CHOL   ROH35469   7.376   4.632  22.581
11907CHOL    R135470   7.349   4.572  22.727
11907CHOL    R235471   7.506   4.597  22.898
11907CHOL    R335472   7.318   4.505  22.891
11907CHOL    R435473   7.482   4.544  23.025
11907CHOL    R535474   7.291   4.446  23.037
11907CHOL    C135475   7.249   4.356  23.256
11907CHOL    C235476   7.208   4.266  23.475
11908CHOL   ROH35477  18.180  12.217  -1.173
11908CHOL    R135478  18.274  12.241  -1.300
11908CHOL    R235479  18.424  12.077  -1.371
11908CHOL    R335480  18.381  12.268  -1.443
11908CHOL    R435481  18.507  12.098  -1.482
11908CHOL    R535482  18.475  12.292  -1.570
11908CHOL    C135483  18.617  12.327  -1.761
11908CHOL    C235484  18.758  12.363  -1.951
11909CHOL   ROH35485   4.739  -2.175   5.027
11909CHOL    R135486   4.684  -2.316   4.974
11909CHOL    R235487   4.637  -2.490   5.122
11909CHOL    R335488   4.623  -2.474   4.914
11909CHOL    R435489   4.590  -2.613   5.075
11909CHOL    R535490   4.569  -2.614   4.861
11909CHOL    C135491   4.487  -2.825   4.781
11909CHOL    C235492   4.405  -3.036   4.701
11910CHOL   ROH35493  10.803  14.467  23.157
11910CHOL    R135494  10.816  14.521  23.307
11910CHOL    R235495  10.921  14.394  23.472
11910CHOL    R335496  10.831  14.583  23.476
11910CHOL    R435497  10.933  14.442  23.603
11910CHOL    R535498  10.844  14.637  23.625
11910CHOL    C135499  10.864  14.719  23.850
11910CHOL    C235500  10.884  14.800  24.075
11911CHOL   ROH35501  22.151  12.600  16.267
11911CHOL    R135502  22.293  12.629  16.334
11911CHOL    R235503  22.431  12.455  16.405
11911CHOL    R335504  22.453  12.663  16.410
11911CHOL    R435505  22.555  12.481  16.464
11911CHOL    R535506  22.595  12.692  16.477
11911CHOL    C135507  22.809  12.736  16.578
11911CHOL    C235508  23.022  12.780  16.679
11912CHOL   ROH35509  17.341   4.263  20.317
11912CHOL    R135510  17.430   4.198  20.433
11912CHOL    R235511  17.501   3.977  20.421
11912CHOL    R335512  17.530   4.126  20.564
11912CHOL    R435513  17.579   3.920  20.523
11912CHOL    R535514  17.618   4.061  20.681
11912CHOL    C135515  17.752   3.964  20.855
11912CHOL    C235516  17.885   3.867  21.029
11913CHOL   ROH35517   8.463  -1.273   1.663
11913CHOL    R135518   8.446  -1.402   1.571
11913CHOL    R235519   8.580  -1.590   1.600
11913CHOL    R335520   8.426  -1.548   1.466
11913CHOL    R435521   8.565  -1.704   1.519
11913CHOL    R535522   8.409  -1.677   1.374
11913CHOL    C135523   8.382  -1.872   1.235
11913CHOL    C235524   8.356  -2.066   1.097
11914CHOL   ROH35525  -4.126   9.085  11.160
11914CHOL    R135526  -4.284   9.071  11.179
11914CHOL    R235527  -4.391   9.163  11.365
11914CHOL    R335528  -4.462   9.055  11.201
11914CHOL    R435529  -4.530   9.151  11.382
11914CHOL    R535530  -4.620   9.041  11.220
11914CHOL    C135531  -4.858   9.020  11.250
11914CHOL    C235532  -5.095   8.999  11.279
11915CHOL   ROH35533  18.270  -1.108  11.787
11915CHOL    R135534  18.364  -1.236  11.808
11915CHOL    R235535  18.565  -1.257  11.692
11915CHOL    R335536  18.470  -1.379  11.833
11915CHOL    R435537  18.648  -1.369  11.711
11915CHOL    R535538  18.564  -1.507  11.854
11915CHOL    C135539  18.706  -1.698  11.886
11915CHOL    C235540  18.847  -1.889  11.918
11916CHOL   ROH35541   9.360   6.825  -3.692
11916CHOL    R135542   9.354   6.786  -3.847
11916CHOL    R235543   9.524   6.848  -3.993
11916CHOL    R335544   9.346   6.742  -4.021
11916CHOL    R435545   9.519   6.814  -4.129
11916CHOL    R535546   9.340   6.704  -4.176
11916CHOL    C135547   9.330   6.645  -4.409
11916CHOL    C235548   9.321   6.587  -4.642
11917CHOL   ROH35549  16.087  22.377  12.110
11917CHOL    R135550  16.153  22.522  12.121
11917CHOL    R235551  16.234  22.633  11.932
11917CHOL    R335552  16.227  22.686  12.134
11917CHOL    R435553  16.291  22.760  11.942
11917CHOL    R535554  16.293  22.831  12.146
11917CHOL    C135555  16.392  23.050  12.163
11917CHOL    C235556  16.491  23.268  12.180
11918CHOL   ROH35557   5.675  -3.303  11.756
11918CHOL    R135558   5.626  -3.454  11.776
11918CHOL    R235559   5.544  -3.528  11.981
11918CHOL    R335560   5.572  -3.624  11.798
11918CHOL    R435561   5.501  -3.660  11.998
11918CHOL    R535562   5.523  -3.776  11.818
11918CHOL    C135563   5.450  -4.002  11.848
11918CHOL    C235564   5.377  -4.229  11.878
11919CHOL   ROH35565  18.001   8.356  -1.379
11919CHOL    R135566  18.090   8.336  -1.511
11919CHOL    R235567  18.156   8.518  -1.640
11919CHOL    R335568  18.189   8.313  -1.659
11919CHOL    R435569  18.234   8.500  -1.755
11919CHOL    R535570  18.278   8.293  -1.791
11919CHOL    C135571  18.411   8.262  -1.988
11919CHOL    C235572  18.544   8.232  -2.186
11920CHOL   ROH35573   5.988   3.914  -2.213
11920CHOL    R135574   5.942   3.845  -2.350
11920CHOL    R235575   6.005   3.626  -2.401
11920CHOL    R335576   5.890   3.767  -2.503
11920CHOL    R435577   5.964   3.566  -2.520
11920CHOL    R535578   5.844   3.698  -2.640
11920CHOL    C135579   5.774   3.594  -2.845
11920CHOL    C235580   5.705   3.491  -3.050
11921CHOL   ROH35581  10.593   0.247  -0.181
11921CHOL    R135582  10.603   0.137  -0.297
11921CHOL    R235583  10.754  -0.040  -0.280
11921CHOL    R335584  10.615   0.013  -0.426
11921CHOL    R435585  10.763  -0.137  -0.381
11921CHOL    R535586  10.625  -0.097  -0.542
11921CHOL    C135587  10.641  -0.262  -0.715
11921CHOL    C235588  10.657  -0.427  -0.889
11922CHOL   ROH35589  21.522   5.966   3.092
11922CHOL    R135590  21.654   5.921   3.013
11922CHOL    R235591  21.681   5.972   2.787
11922CHOL    R335592  21.801   5.870   2.924
11922CHOL    R435593  21.796   5.932   2.717
11922CHOL    R535594  21.933   5.825   2.844
11922CHOL    C135595  22.130   5.757   2.726
11922CHOL    C235596  22.328   5.689   2.607
11923CHOL   ROH35597   9.469  12.258  -3.940
11923CHOL    R135598   9.465  12.284  -4.098
11923CHOL    R235599   9.636  12.206  -4.236
11923CHOL    R335600   9.461  12.313  -4.275
11923CHOL    R435601   9.633  12.229  -4.374
11923CHOL    R535602   9.457  12.339  -4.433
11923CHOL    C135603   9.452  12.378  -4.670
11923CHOL    C235604   9.446  12.417  -4.906
11924CHOL   ROH35605  16.464  21.557   5.363
11924CHOL    R135606  16.533  21.692   5.311
11924CHOL    R235607  16.762  21.726   5.334
11924CHOL    R335608  16.610  21.844   5.254
11924CHOL    R435609  16.822  21.844   5.289
11924CHOL    R535610  16.679  21.979   5.202
11924CHOL    C135611  16.781  22.182   5.125
11924CHOL    C235612  16.884  22.384   5.047
11925CHOL   ROH35613  19.097  -0.208  12.810
11925CHOL    R135614  19.201  -0.325  12.843
11925CHOL    R235615  19.302  -0.447  12.672
11925CHOL    R335616  19.318  -0.457  12.880
11925CHOL    R435617  19.393  -0.550  12.700
11925CHOL    R535618  19.423  -0.574  12.912
11925CHOL    C135619  19.579  -0.749  12.962
11925CHOL    C235620  19.735  -0.924  13.011
11926CHOL   ROH35621  12.560  18.132  21.077
11926CHOL    R135622  12.590  18.222  21.206
11926CHOL    R235623  12.809  18.270  21.270
11926CHOL    R335624  12.624  18.323  21.351
11926CHOL    R435625  12.835  18.349  21.382
11926CHOL    R535626  12.654  18.413  21.479
11926CHOL    C135627  12.699  18.548  21.673
11926CHOL    C235628  12.744  18.683  21.866
11927CHOL   ROH35629  23.255  12.592  13.135
11927CHOL    R135630  23.407  12.621  13.174
11927CHOL    R235631  23.502  12.832  13.140
11927CHOL    R335632  23.579  12.655  13.218
11927CHOL    R435633  23.635  12.858  13.174
11927CHOL    R535634  23.731  12.684  13.257
11927CHOL    C135635  23.959  12.728  13.316
11927CHOL    C235636  24.188  12.772  13.374
11928CHOL   ROH35637  15.702  22.208  13.742
11928CHOL    R135638  15.767  22.346  13.790
11928CHOL    R235639  15.892  22.478  13.643
11928CHOL    R335640  15.840  22.501  13.844
11928CHOL    R435641  15.949  22.598  13.685
11928CHOL    R535642  15.905  22.639  13.892
11928CHOL    C135643  16.003  22.847  13.964
11928CHOL    C235644  16.101  23.054  14.036
11929CHOL   ROH35645   2.142   3.050  19.332
11929CHOL    R135646   2.052   2.975  19.441
11929CHOL    R235647   2.146   2.888  19.636
11929CHOL    R335648   1.950   2.891  19.563
11929CHOL    R435649   2.067   2.823  19.731
11929CHOL    R535650   1.860   2.817  19.672
11929CHOL    C135651   1.724   2.704  19.835
11929CHOL    C235652   1.588   2.592  19.998
11930CHOL   ROH35653   1.464   8.590  21.135
11930CHOL    R135654   1.364   8.570  21.259
11930CHOL    R235655   1.436   8.606  21.478
11930CHOL    R335656   1.253   8.546  21.398
11930CHOL    R435657   1.349   8.588  21.586
11930CHOL    R535658   1.153   8.526  21.521
11930CHOL    C135659   1.004   8.495  21.707
11930CHOL    C235660   0.854   8.465  21.893
11931CHOL   ROH35661  22.208  14.702  14.732
11931CHOL    R135662  22.351  14.751  14.784
11931CHOL    R235663  22.508  14.842  14.637
11931CHOL    R335664  22.512  14.807  14.843
11931CHOL    R435665  22.633  14.885  14.683
11931CHOL    R535666  22.655  14.856  14.895
11931CHOL    C135667  22.870  14.930  14.973
11931CHOL    C235668  23.084  15.004  15.051
11932CHOL   ROH35669  16.214   8.098  -2.381
11932CHOL    R135670  16.285   8.075  -2.523
11932CHOL    R235671  16.443   8.227  -2.604
11932CHOL    R335672  16.364   8.050  -2.682
11932CHOL    R435673  16.504   8.207  -2.728
11932CHOL    R535674  16.435   8.027  -2.824
11932CHOL    C135675  16.541   7.993  -3.037
11932CHOL    C235676  16.647   7.959  -3.249
11933CHOL   ROH35677   2.091  14.146  20.779
11933CHOL    R135678   2.001  14.194  20.902
11933CHOL    R235679   2.097  14.247  21.108
11933CHOL    R335680   1.899  14.248  21.040
11933CHOL    R435681   2.017  14.289  21.215
11933CHOL    R535682   1.808  14.296  21.164
11933CHOL    C135683   1.673  14.367  21.348
11933CHOL    C235684   1.537  14.439  21.533
11934CHOL   ROH35685  16.140   4.239  -1.271
11934CHOL    R135686  16.216   4.180  -1.399
11934CHOL    R235687  16.400   4.291  -1.490
11934CHOL    R335688  16.301   4.115  -1.543
11934CHOL    R435689  16.466   4.239  -1.603
11934CHOL    R535690  16.377   4.056  -1.672
11934CHOL    C135691  16.490   3.968  -1.864
11934CHOL    C235692  16.604   3.880  -2.056
11935CHOL   ROH35693   0.744  14.513  19.549
11935CHOL    R135694   0.645  14.566  19.663
11935CHOL    R235695   0.725  14.627  19.873
11935CHOL    R335696   0.533  14.625  19.791
11935CHOL    R435697   0.638  14.673  19.972
11935CHOL    R535698   0.433  14.677  19.904
11935CHOL    C135699   0.284  14.756  20.075
11935CHOL    C235700   0.135  14.835  20.246
11936CHOL   ROH35701  -2.989   4.643  11.620
11936CHOL    R135702  -3.136   4.584  11.640
11936CHOL    R235703  -3.172   4.392  11.768
11936CHOL    R335704  -3.302   4.517  11.664
11936CHOL    R435705  -3.300   4.340  11.786
11936CHOL    R535706  -3.449   4.458  11.684
11936CHOL    C135707  -3.670   4.369  11.715
11936CHOL    C235708  -3.891   4.280  11.745
11937CHOL   ROH35709   1.333   2.669  18.321
11937CHOL    R135710   1.236   2.589  18.420
11937CHOL    R235711   1.320   2.427  18.565
11937CHOL    R335712   1.127   2.498  18.531
11937CHOL    R435713   1.235   2.357  18.652
11937CHOL    R535714   1.030   2.418  18.630
11937CHOL    C135715   0.885   2.298  18.778
11937CHOL    C235716   0.739   2.177  18.926
11938CHOL   ROH35717  13.972  13.680  22.873
11938CHOL    R135718  14.010  13.728  23.021
11938CHOL    R235719  14.131  13.925  23.055
11938CHOL    R335720  14.053  13.782  23.187
11938CHOL    R435721  14.164  13.967  23.185
11938CHOL    R535722  14.092  13.830  23.335
11938CHOL    C135723  14.149  13.902  23.556
11938CHOL    C235724  14.206  13.974  23.778
11939CHOL   ROH35725  12.720  -0.087   0.586
11939CHOL    R135726  12.756  -0.201   0.480
11939CHOL    R235727  12.876  -0.152   0.286
11939CHOL    R335728  12.796  -0.330   0.361
11939CHOL    R435729  12.907  -0.252   0.194
11939CHOL    R535730  12.832  -0.444   0.255
11939CHOL    C135731  12.886  -0.616   0.096
11939CHOL    C235732  12.940  -0.788  -0.063
11940CHOL   ROH35733   9.577   1.525  21.163
11940CHOL    R135734   9.575   1.430  21.291
11940CHOL    R235735   9.761   1.415  21.432
11940CHOL    R335736   9.574   1.322  21.436
11940CHOL    R435737   9.759   1.331  21.544
11940CHOL    R535738   9.572   1.227  21.564
11940CHOL    C135739   9.570   1.084  21.757
11940CHOL    C235740   9.567   0.941  21.950
11941CHOL   ROH35741  18.251   5.302  -0.270
11941CHOL    R135742  18.348   5.246  -0.384
11941CHOL    R235743  18.559   5.338  -0.418
11941CHOL    R335744  18.457   5.182  -0.512
11941CHOL    R435745  18.644   5.289  -0.518
11941CHOL    R535746  18.555   5.126  -0.627
11941CHOL    C135747  18.700   5.042  -0.798
11941CHOL    C235748  18.846   4.957  -0.969
11942CHOL   ROH35749   5.426  -2.964   6.710
11942CHOL    R135750   5.379  -3.112   6.671
11942CHOL    R235751   5.533  -3.285   6.649
11942CHOL    R335752   5.326  -3.278   6.627
11942CHOL    R435753   5.492  -3.414   6.615
11942CHOL    R535754   5.278  -3.426   6.588
11942CHOL    C135755   5.208  -3.648   6.529
11942CHOL    C235756   5.137  -3.870   6.471
11943CHOL   ROH35757  14.509  -2.875   6.848
11943CHOL    R135758  14.565  -3.021   6.812
11943CHOL    R235759  14.788  -3.077   6.852
11943CHOL    R335760  14.628  -3.184   6.772
11943CHOL    R435761  14.837  -3.204   6.821
11943CHOL    R535762  14.683  -3.330   6.736
11943CHOL    C135763  14.767  -3.548   6.682
11943CHOL    C235764  14.851  -3.767   6.628
11944CHOL   ROH35765   9.671  12.337  23.780
11944CHOL    R135766   9.665  12.364  23.938
11944CHOL    R235767   9.727  12.198  24.090
11944CHOL    R335768   9.658  12.394  24.115
11944CHOL    R435769   9.721  12.221  24.228
11944CHOL    R535770   9.653  12.420  24.273
11944CHOL    C135771   9.644  12.461  24.509
11944CHOL    C235772   9.635  12.501  24.745
11945CHOL   ROH35773  23.439  12.847   7.496
11945CHOL    R135774  23.594  12.879   7.471
11945CHOL    R235775  23.683  12.883   7.256
11945CHOL    R335776  23.768  12.915   7.444
11945CHOL    R435777  23.818  12.911   7.234
11945CHOL    R535778  23.922  12.947   7.419
11945CHOL    C135779  24.155  12.996   7.382
11945CHOL    C235780  24.387  13.044   7.345
11946CHOL   ROH35781  15.379  -2.065   5.419
11946CHOL    R135782  15.442  -2.203   5.368
11946CHOL    R235783  15.657  -2.210   5.276
11946CHOL    R335784  15.513  -2.358   5.310
11946CHOL    R435785  15.712  -2.330   5.231
11946CHOL    R535786  15.577  -2.495   5.259
11946CHOL    C135787  15.671  -2.702   5.182
11946CHOL    C235788  15.766  -2.909   5.105
11947CHOL   ROH35789  19.900  18.911   5.942
11947CHOL    R135790  20.018  19.009   5.896
11947CHOL    R235791  20.139  18.967   5.701
11947CHOL    R335792  20.151  19.118   5.844
11947CHOL    R435793  20.242  19.053   5.661
11947CHOL    R535794  20.269  19.216   5.799
11947CHOL    C135795  20.447  19.362   5.730
11947CHOL    C235796  20.624  19.509   5.661
11948CHOL   ROH35797   8.954  -0.516   0.633
11948CHOL    R135798   8.942  -0.636   0.528
11948CHOL    R235799   9.111  -0.677   0.373
11948CHOL    R335800   8.929  -0.771   0.410
11948CHOL    R435801   9.101  -0.782   0.281
11948CHOL    R535802   8.917  -0.892   0.305
11948CHOL    C135803   8.899  -1.072   0.148
11948CHOL    C235804   8.881  -1.252  -0.010
11949CHOL   ROH35805  15.864  18.646   0.590
11949CHOL    R135806  15.937  18.745   0.487
11949CHOL    R235807  16.145  18.691   0.396
11949CHOL    R335808  16.018  18.856   0.372
11949CHOL    R435809  16.208  18.778   0.307
11949CHOL    R535810  16.091  18.955   0.269
11949CHOL    C135811  16.200  19.103   0.115
11949CHOL    C235812  16.309  19.251  -0.039
11950CHOL   ROH35813  20.806  12.859  18.284
11950CHOL    R135814  20.924  12.893  18.387
11950CHOL    R235815  21.042  13.094  18.372
11950CHOL    R335816  21.057  12.931  18.502
11950CHOL    R435817  21.145  13.123  18.462
11950CHOL    R535818  21.175  12.965  18.604
11950CHOL    C135819  21.352  13.016  18.758
11950CHOL    C235820  21.529  13.067  18.912
11951CHOL   ROH35821   6.545  18.803  -0.528
11951CHOL    R135822   6.514  18.910  -0.643
11951CHOL    R235823   6.665  18.947  -0.817
11951CHOL    R335824   6.479  19.030  -0.772
11951CHOL    R435825   6.638  19.040  -0.917
11951CHOL    R535826   6.448  19.136  -0.887
11951CHOL    C135827   6.401  19.297  -1.060
11951CHOL    C235828   6.355  19.457  -1.233
11952CHOL   ROH35829  18.087  14.413  20.248
11952CHOL    R135830  18.182  14.461  20.368
11952CHOL    R235831  18.402  14.527  20.327
11952CHOL    R335832  18.288  14.516  20.502
11952CHOL    R435833  18.485  14.570  20.432
11952CHOL    R535834  18.383  14.565  20.622
11952CHOL    C135835  18.525  14.637  20.801
11952CHOL    C235836  18.667  14.710  20.980
11953CHOL   ROH35837   1.320  14.405  -0.312
11953CHOL    R135838   1.226  14.452  -0.433
11953CHOL    R235839   0.997  14.486  -0.401
11953CHOL    R335840   1.120  14.506  -0.568
11953CHOL    R435841   0.915  14.527  -0.506
11953CHOL    R535842   1.027  14.553  -0.689
11953CHOL    C135843   0.886  14.624  -0.870
11953CHOL    C235844   0.745  14.695  -1.051
11954CHOL   ROH35845   3.354   7.754  -2.358
11954CHOL    R135846   3.279   7.731  -2.497
11954CHOL    R235847   3.173   7.529  -2.545
11954CHOL    R335848   3.194   7.706  -2.654
11954CHOL    R435849   3.107   7.509  -2.667
11954CHOL    R535850   3.118   7.684  -2.793
11954CHOL    C135851   3.005   7.650  -3.003
11954CHOL    C235852   2.892   7.616  -3.212
11955CHOL   ROH35853   1.809  12.029  21.220
11955CHOL    R135854   1.716  12.057  21.347
11955CHOL    R235855   1.794  12.022  21.564
11955CHOL    R335856   1.611  12.089  21.490
11955CHOL    R435857   1.713  12.047  21.675
11955CHOL    R535858   1.518  12.117  21.617
11955CHOL    C135859   1.378  12.160  21.808
11955CHOL    C235860   1.239  12.202  21.998
11956CHOL   ROH35861  12.070  19.541  19.976
11956CHOL    R135862  12.093  19.653  20.088
11956CHOL    R235863  12.300  19.676  20.194
11956CHOL    R335864  12.119  19.778  20.215
11956CHOL    R435865  12.320  19.774  20.292
11956CHOL    R535866  12.142  19.889  20.327
11956CHOL    C135867  12.176  20.057  20.495
11956CHOL    C235868  12.210  20.224  20.664
11957CHOL   ROH35869  -3.242  14.244   7.392
11957CHOL    R135870  -3.391  14.291   7.358
11957CHOL    R235871  -3.521  14.403   7.515
11957CHOL    R335872  -3.559  14.343   7.319
11957CHOL    R435873  -3.651  14.444   7.485
11957CHOL    R535874  -3.708  14.390   7.285
11957CHOL    C135875  -3.932  14.459   7.233
11957CHOL    C235876  -4.155  14.529   7.181
11958CHOL   ROH35877   7.977  15.644  22.706
11958CHOL    R135878   7.958  15.706  22.852
11958CHOL    R235879   8.122  15.841  22.947
11958CHOL    R335880   7.937  15.775  23.017
11958CHOL    R435881   8.106  15.895  23.076
11958CHOL    R535882   7.918  15.837  23.164
11958CHOL    C135883   7.890  15.930  23.383
11958CHOL    C235884   7.861  16.022  23.603
11959CHOL   ROH35885  -2.559   5.261  14.507
11959CHOL    R135886  -2.701   5.204  14.553
11959CHOL    R235887  -2.781   5.241  14.769
11959CHOL    R335888  -2.862   5.140  14.605
11959CHOL    R435889  -2.906   5.192  14.809
11959CHOL    R535890  -3.004   5.083  14.651
11959CHOL    C135891  -3.218   4.998  14.720
11959CHOL    C235892  -3.431   4.913  14.789
11960CHOL   ROH35893   3.188  21.475   5.625
11960CHOL    R135894   3.108  21.604   5.576
11960CHOL    R235895   3.219  21.803   5.527
11960CHOL    R335896   3.017  21.750   5.520
11960CHOL    R435897   3.149  21.917   5.484
11960CHOL    R535898   2.937  21.879   5.471
11960CHOL    C135899   2.817  22.073   5.397
11960CHOL    C235900   2.696  22.267   5.323
11961CHOL   ROH35901   8.507   6.831  23.527
11961CHOL    R135902   8.488   6.789  23.680
11961CHOL    R235903   8.664   6.694  23.801
11961CHOL    R335904   8.468   6.742  23.853
11961CHOL    R435905   8.648   6.657  23.935
11961CHOL    R535906   8.449   6.699  24.006
11961CHOL    C135907   8.421   6.636  24.236
11961CHOL    C235908   8.393   6.573  24.466
11962CHOL   ROH35909  20.164   0.550  11.514
11962CHOL    R135910  20.279   0.442  11.538
11962CHOL    R235911  20.309   0.264  11.390
11962CHOL    R335912  20.409   0.319  11.564
11962CHOL    R435913  20.410   0.169  11.410
11962CHOL    R535914  20.524   0.211  11.588
11962CHOL    C135915  20.697   0.048  11.624
11962CHOL    C235916  20.870  -0.114  11.659
11963CHOL   ROH35917  22.864   5.285   7.436
11963CHOL    R135918  23.011   5.229   7.406
11963CHOL    R235919  23.065   5.139   7.197
11963CHOL    R335920  23.176   5.165   7.372
11963CHOL    R435921  23.193   5.090   7.171
11963CHOL    R535922  23.323   5.109   7.342
11963CHOL    C135923  23.543   5.024   7.298
11963CHOL    C235924  23.763   4.939   7.253
11964CHOL   ROH35925  15.211  18.662  19.674
11964CHOL    R135926  15.270  18.760  19.786
11964CHOL    R235927  15.488  18.841  19.771
11964CHOL    R335928  15.337  18.870  19.912
11964CHOL    R435929  15.540  18.927  19.868
11964CHOL    R535930  15.397  18.968  20.023
11964CHOL    C135931  15.486  19.115  20.191
11964CHOL    C235932  15.575  19.262  20.359
11965CHOL   ROH35933  14.972  -2.841   7.522
11965CHOL    R135934  15.032  -2.987   7.493
11965CHOL    R235935  15.262  -3.024   7.492
11965CHOL    R335936  15.098  -3.150   7.460
11965CHOL    R435937  15.314  -3.151   7.466
11965CHOL    R535938  15.158  -3.296   7.431
11965CHOL    C135939  15.247  -3.514   7.388
11965CHOL    C235940  15.337  -3.733   7.345
11966CHOL   ROH35941  11.491  -3.916  11.085
11966CHOL    R135942  11.504  -4.075  11.099
11966CHOL    R235943  11.635  -4.199  10.951
11966CHOL    R335944  11.519  -4.254  11.116
11966CHOL    R435945  11.646  -4.338  10.964
11966CHOL    R535946  11.532  -4.413  11.130
11966CHOL    C135947  11.551  -4.651  11.152
11966CHOL    C235948  11.570  -4.889  11.173
11967CHOL   ROH35949   0.480   0.013  13.197
11967CHOL    R135950   0.373  -0.101  13.232
11967CHOL    R235951   0.424  -0.270  13.384
11967CHOL    R335952   0.253  -0.229  13.272
11967CHOL    R435953   0.331  -0.370  13.415
11967CHOL    R535954   0.146  -0.343  13.307
11967CHOL    C135955  -0.014  -0.514  13.360
11967CHOL    C235956  -0.174  -0.685  13.413
11968CHOL   ROH35957  23.516   7.076   8.598
11968CHOL    R135958  23.673   7.049   8.582
11968CHOL    R235959  23.803   7.177   8.437
11968CHOL    R335960  23.850   7.019   8.565
11968CHOL    R435961  23.940   7.154   8.424
11968CHOL    R535962  24.007   6.992   8.550
11968CHOL    C135963  24.242   6.952   8.526
11968CHOL    C235964  24.477   6.911   8.503
11969CHOL   ROH35965  20.666  17.533   5.174
11969CHOL    R135966  20.791  17.621   5.126
11969CHOL    R235967  20.975  17.522   5.023
11969CHOL    R335968  20.931  17.720   5.072
11969CHOL    R435969  21.084  17.599   4.982
11969CHOL    R535970  21.056  17.809   5.024
11969CHOL    C135971  21.242  17.941   4.953
11969CHOL    C235972  21.429  18.073   4.881
11970CHOL   ROH35973   5.478  10.555  23.168
11970CHOL    R135974   5.434  10.568  23.321
11970CHOL    R235975   5.405  10.778  23.420
11970CHOL    R335976   5.385  10.584  23.494
11970CHOL    R435977   5.367  10.789  23.554
11970CHOL    R535978   5.341  10.597  23.647
11970CHOL    C135979   5.275  10.617  23.877
11970CHOL    C235980   5.209  10.637  24.107
11971CHOL   ROH35981  -1.184  16.002  16.253
11971CHOL    R135982  -1.308  16.075  16.323
11971CHOL    R235983  -1.296  16.299  16.385
11971CHOL    R335984  -1.448  16.157  16.402
11971CHOL    R435985  -1.405  16.363  16.446
11971CHOL    R535986  -1.572  16.229  16.472
11971CHOL    C135987  -1.758  16.339  16.577
11971CHOL    C235988  -1.944  16.448  16.682
11972CHOL   ROH35989   9.959   3.980  -2.749
11972CHOL    R135990   9.958   3.916  -2.896
11972CHOL    R235991  10.133   3.955  -3.045
11972CHOL    R335992   9.957   3.844  -3.060
11972CHOL    R435993  10.133   3.899  -3.173
11972CHOL    R535994   9.957   3.780  -3.207
11972CHOL    C135995   9.955   3.683  -3.427
11972CHOL    C235996   9.954   3.587  -3.647
11973CHOL   ROH35997   6.888   9.071  -3.763
11973CHOL    R135998   6.856   9.061  -3.919
11973CHOL    R235999   6.650   8.980  -3.994
11973CHOL    R336000   6.820   9.049  -4.095
11973CHOL    R436001   6.622   8.972  -4.131
11973CHOL    R536002   6.788   9.039  -4.251
11973CHOL    C136003   6.739   9.024  -4.486
11973CHOL    C236004   6.691   9.008  -4.720
11974CHOL   ROH36005   1.822   7.448  21.156
11974CHOL    R136006   1.728   7.413  21.280
11974CHOL    R236007   1.800   7.446  21.500
11974CHOL    R336008   1.621   7.373  21.420
11974CHOL    R436009   1.718   7.415  21.608
11974CHOL    R536010   1.527   7.338  21.545
11974CHOL    C136011   1.385   7.285  21.731
11974CHOL    C236012   1.244   7.232  21.917
11975CHOL   ROH36013  -3.747  11.354  13.222
11975CHOL    R136014  -3.902  11.366  13.261
11975CHOL    R236015  -3.984  11.269  13.456
11975CHOL    R336016  -4.076  11.379  13.304
11975CHOL    R436017  -4.120  11.279  13.490
11975CHOL    R536018  -4.230  11.391  13.343
11975CHOL    C136019  -4.463  11.409  13.401
11975CHOL    C236020  -4.695  11.427  13.459
11976CHOL   ROH36021  18.804  19.539  14.711
11976CHOL    R136022  18.906  19.649  14.767
11976CHOL    R236023  18.953  19.842  14.644
11976CHOL    R336024  19.021  19.773  14.829
11976CHOL    R436025  19.042  19.939  14.693
11976CHOL    R536026  19.122  19.883  14.885
11976CHOL    C136027  19.275  20.048  14.969
11976CHOL    C236028  19.428  20.213  15.052
11977CHOL   ROH36029  18.428   3.477  18.914
11977CHOL    R136030  18.527   3.407  19.018
11977CHOL    R236031  18.746   3.354  18.958
11977CHOL    R336032  18.639   3.327  19.135
11977CHOL    R436033  18.833   3.292  19.048
11977CHOL    R536034  18.738   3.257  19.239
11977CHOL    C136035  18.888   3.151  19.394
11977CHOL    C236036  19.037   3.046  19.550
11978CHOL   ROH36037  -3.388  14.277   8.149
11978CHOL    R136038  -3.539  14.323   8.122
11978CHOL    R236039  -3.654  14.454   8.277
11978CHOL    R336040  -3.708  14.376   8.091
11978CHOL    R436041  -3.786  14.495   8.253
11978CHOL    R536042  -3.859  14.422   8.064
11978CHOL    C136043  -4.085  14.492   8.023
11978CHOL    C236044  -4.311  14.561   7.982
11979CHOL   ROH36045  -2.604  13.854   4.911
11979CHOL    R136046  -2.747  13.900   4.856
11979CHOL    R236047  -2.893  14.023   4.990
11979CHOL    R336048  -2.908  13.953   4.794
11979CHOL    R436049  -3.018  14.064   4.942
11979CHOL    R536050  -3.051  13.999   4.739
11979CHOL    C136051  -3.265  14.069   4.656
11979CHOL    C236052  -3.479  14.138   4.574
11980CHOL   ROH36053  22.025  10.265   2.969
11980CHOL    R136054  22.161  10.268   2.885
11980CHOL    R236055  22.257  10.470   2.818
11980CHOL    R336056  22.315  10.271   2.791
11980CHOL    R436057  22.376  10.473   2.745
11980CHOL    R536058  22.451  10.274   2.707
11980CHOL    C136059  22.655  10.279   2.581
11980CHOL    C236060  22.860  10.284   2.455
11981CHOL   ROH36061   8.006  23.747   7.681
11981CHOL    R136062   7.988  23.904   7.658
11981CHOL    R236063   8.112  24.017   7.496
11981CHOL    R336064   7.967  24.081   7.633
11981CHOL    R436065   8.096  24.155   7.477
11981CHOL    R536066   7.949  24.238   7.610
11981CHOL    C136067   7.922  24.474   7.576
11981CHOL    C236068   7.894  24.710   7.542
11982CHOL   ROH36069   1.271  15.099   0.028
11982CHOL    R136070   1.176  15.155  -0.088
11982CHOL    R236071   1.244  15.330  -0.225
11982CHOL    R336072   1.069  15.217  -0.218
11982CHOL    R436073   1.161  15.379  -0.327
11982CHOL    R536074   0.973  15.273  -0.334
11982CHOL    C136075   0.831  15.357  -0.508
11982CHOL    C236076   0.688  15.440  -0.682
11983CHOL   ROH36077   6.329  22.638  14.888
11983CHOL    R136078   6.287  22.782  14.944
11983CHOL    R236079   6.332  22.976  14.822
11983CHOL    R336080   6.239  22.944  15.006
11983CHOL    R436081   6.295  23.101  14.871
11983CHOL    R536082   6.197  23.087  15.062
11983CHOL    C136083   6.134  23.303  15.146
11983CHOL    C236084   6.070  23.519  15.229
11984CHOL   ROH36085  19.234  20.401  11.233
11984CHOL    R136086  19.340  20.519  11.252
11984CHOL    R236087  19.551  20.509  11.152
11984CHOL    R336088  19.460  20.652  11.274
11984CHOL    R436089  19.643  20.612  11.169
11984CHOL    R536090  19.566  20.769  11.293
11984CHOL    C136091  19.725  20.946  11.323
11984CHOL    C236092  19.885  21.123  11.352
11985CHOL   ROH36093   8.409  20.117   0.383
11985CHOL    R136094   8.391  20.234   0.276
11985CHOL    R236095   8.498  20.440   0.304
11985CHOL    R336096   8.372  20.366   0.155
11985CHOL    R436097   8.482  20.542   0.210
11985CHOL    R536098   8.354  20.484   0.047
11985CHOL    C136099   8.328  20.659  -0.114
11985CHOL    C236100   8.301  20.835  -0.275
11986CHOL   ROH36101  18.893   2.611   2.158
11986CHOL    R136102  18.997   2.530   2.067
11986CHOL    R236103  18.923   2.405   1.884
11986CHOL    R336104  19.113   2.439   1.964
11986CHOL    R436105  19.014   2.334   1.804
11986CHOL    R536106  19.217   2.358   1.872
11986CHOL    C136107  19.372   2.237   1.735
11986CHOL    C236108  19.527   2.115   1.598
11987CHOL   ROH36109  22.395  11.826   3.860
11987CHOL    R136110  22.537  11.845   3.788
11987CHOL    R236111  22.618  11.684   3.639
11987CHOL    R336112  22.696  11.865   3.706
11987CHOL    R436113  22.741  11.700   3.576
11987CHOL    R536114  22.837  11.884   3.634
11987CHOL    C136115  23.050  11.912   3.526
11987CHOL    C236116  23.262  11.940   3.417
11988CHOL   ROH36117  -3.913  12.927   9.872
11988CHOL    R136118  -4.069  12.962   9.868
11988CHOL    R236119  -4.225  12.827   9.977
11988CHOL    R336120  -4.244  13.002   9.864
11988CHOL    R436121  -4.362  12.858   9.973
11988CHOL    R536122  -4.400  13.038   9.860
11988CHOL    C136123  -4.634  13.091   9.855
11988CHOL    C236124  -4.868  13.144   9.849
11989CHOL   ROH36125  10.811  -3.486   5.801
11989CHOL    R136126  10.817  -3.638   5.753
11989CHOL    R236127  10.870  -3.810   5.902
11989CHOL    R336128  10.825  -3.810   5.698
11989CHOL    R436129  10.875  -3.943   5.860
11989CHOL    R536130  10.831  -3.962   5.650
11989CHOL    C136131  10.841  -4.190   5.578
11989CHOL    C236132  10.850  -4.419   5.505
11990CHOL   ROH36133  -1.723  17.261   6.587
11990CHOL    R136134  -1.857  17.337   6.543
11990CHOL    R236135  -2.017  17.398   6.702
11990CHOL    R336136  -2.007  17.424   6.495
11990CHOL    R436137  -2.134  17.465   6.664
11990CHOL    R536138  -2.140  17.500   6.451
11990CHOL    C136139  -2.341  17.615   6.386
11990CHOL    C236140  -2.541  17.729   6.320
11991CHOL   ROH36141   2.987  20.457  16.340
11991CHOL    R136142   2.910  20.579  16.409
11991CHOL    R236143   3.017  20.715  16.566
11991CHOL    R336144   2.824  20.717  16.487
11991CHOL    R436145   2.950  20.822  16.627
11991CHOL    R536146   2.747  20.839  16.555
11991CHOL    C136147   2.632  21.023  16.659
11991CHOL    C236148   2.517  21.207  16.762
11992CHOL   ROH36149   6.319   4.915  22.482
11992CHOL    R136150   6.289   4.858  22.629
11992CHOL    R236151   6.453   4.862  22.794
11992CHOL    R336152   6.256   4.795  22.794
11992CHOL    R436153   6.427   4.813  22.923
11992CHOL    R536154   6.226   4.738  22.940
11992CHOL    C136155   6.181   4.653  23.161
11992CHOL    C236156   6.137   4.568  23.381
11993CHOL   ROH36157  17.276  17.033   0.287
11993CHOL    R136158  17.360  17.113   0.176
11993CHOL    R236159  17.576  17.047   0.119
11993CHOL    R336160  17.454  17.203   0.052
11993CHOL    R436161  17.649  17.117   0.022
11993CHOL    R536162  17.537  17.283  -0.059
11993CHOL    C136163  17.663  17.402  -0.224
11993CHOL    C236164  17.789  17.522  -0.390
11994CHOL   ROH36165   2.570  20.689   4.727
11994CHOL    R136166   2.486  20.812   4.669
11994CHOL    R236167   2.588  21.017   4.624
11994CHOL    R336168   2.391  20.950   4.604
11994CHOL    R436169   2.514  21.124   4.574
11994CHOL    R536170   2.307  21.074   4.546
11994CHOL    C136171   2.181  21.258   4.459
11994CHOL    C236172   2.055  21.443   4.372
11995CHOL   ROH36173   5.851   2.359  -1.187
11995CHOL    R136174   5.802   2.270  -1.311
11995CHOL    R236175   5.662   2.087  -1.279
11995CHOL    R336176   5.748   2.170  -1.450
11995CHOL    R436177   5.619   2.009  -1.387
11995CHOL    R536178   5.699   2.081  -1.574
11995CHOL    C136179   5.626   1.948  -1.760
11995CHOL    C236180   5.553   1.814  -1.946
11996CHOL   ROH36181   0.121  11.724   0.004
11996CHOL    R136182   0.013  11.740  -0.113
11996CHOL    R236183  -0.137  11.918  -0.114
11996CHOL    R336184  -0.108  11.758  -0.245
11996CHOL    R436185  -0.232  11.932  -0.217
11996CHOL    R536186  -0.216  11.774  -0.362
11996CHOL    C136187  -0.378  11.798  -0.538
11996CHOL    C236188  -0.540  11.822  -0.713
11997CHOL   ROH36189   8.529   1.184  20.843
11997CHOL    R136190   8.516   1.085  20.968
11997CHOL    R236191   8.695   1.052  21.114
11997CHOL    R336192   8.502   0.974  21.109
11997CHOL    R436193   8.684   0.966  21.223
11997CHOL    R536194   8.490   0.874  21.233
11997CHOL    C136195   8.471   0.726  21.421
11997CHOL    C236196   8.452   0.577  21.608
11998CHOL   ROH36197  19.768  19.887  11.248
11998CHOL    R136198  19.882  19.997  11.271
11998CHOL    R236199  20.081  19.992  11.150
11998CHOL    R336200  20.009  20.122  11.297
11998CHOL    R436201  20.180  20.088  11.170
11998CHOL    R536202  20.123  20.232  11.320
11998CHOL    C136203  20.293  20.398  11.355
11998CHOL    C236204  20.464  20.563  11.389
11999CHOL   ROH36205   4.458   8.476  -2.975
11999CHOL    R136206   4.397   8.461  -3.122
11999CHOL    R236207   4.252   8.621  -3.209
11999CHOL    R336208   4.328   8.444  -3.287
11999CHOL    R436209   4.198   8.608  -3.337
11999CHOL    R536210   4.267   8.428  -3.435
11999CHOL    C136211   4.175   8.406  -3.655
11999CHOL    C236212   4.083   8.383  -3.876
12000CHOL   ROH36213  -3.517  13.485   7.673
12000CHOL    R136214  -3.669  13.523   7.642
12000CHOL    R236215  -3.797  13.643   7.796
12000CHOL    R336216  -3.840  13.567   7.607
12000CHOL    R436217  -3.930  13.676   7.769
12000CHOL    R536218  -3.993  13.605   7.575
12000CHOL    C136219  -4.221  13.663   7.529
12000CHOL    C236220  -4.449  13.720   7.482
12001CHOL   ROH36221  12.072  16.572  22.110
12001CHOL    R136222  12.100  16.643  22.251
12001CHOL    R236223  12.317  16.680  22.326
12001CHOL    R336224  12.131  16.723  22.409
12001CHOL    R436225  12.342  16.742  22.449
12001CHOL    R536226  12.159  16.793  22.550
12001CHOL    C136227  12.200  16.900  22.761
12001CHOL    C236228  12.242  17.006  22.972
12002CHOL   ROH36229  -0.162  19.838  10.468
12002CHOL    R136230  -0.275  19.951  10.472
12002CHOL    R236231  -0.289  20.100  10.651
12002CHOL    R336232  -0.403  20.078  10.477
12002CHOL    R436233  -0.389  20.199  10.655
12002CHOL    R536234  -0.516  20.191  10.481
12002CHOL    C136235  -0.687  20.360  10.488
12002CHOL    C236236  -0.857  20.529  10.494
12003CHOL   ROH36237  -2.024   8.698   2.544
12003CHOL    R136238  -2.160   8.683   2.460
12003CHOL    R236239  -2.241   8.472   2.401
12003CHOL    R336240  -2.312   8.666   2.366
12003CHOL    R436241  -2.360   8.459   2.327
12003CHOL    R536242  -2.447   8.650   2.282
12003CHOL    C136243  -2.651   8.628   2.156
12003CHOL    C236244  -2.854   8.605   2.030
12004CHOL   ROH36245  19.946   5.385  18.477
12004CHOL    R136246  20.060   5.333  18.577
12004CHOL    R236247  20.188   5.146  18.525
12004CHOL    R336248  20.188   5.275  18.689
12004CHOL    R436249  20.288   5.100  18.612
12004CHOL    R536250  20.302   5.223  18.789
12004CHOL    C136251  20.472   5.145  18.939
12004CHOL    C236252  20.643   5.067  19.089
12005CHOL   ROH36253  17.250  -1.553   6.830
12005CHOL    R136254  17.330  -1.687   6.792
12005CHOL    R236255  17.427  -1.713   6.582
12005CHOL    R336256  17.419  -1.837   6.750
12005CHOL    R436257  17.496  -1.830   6.549
12005CHOL    R536258  17.499  -1.971   6.712
12005CHOL    C136259  17.618  -2.171   6.656
12005CHOL    C236260  17.737  -2.371   6.600
12006CHOL   ROH36261   8.832  -3.261  14.605
12006CHOL    R136262   8.819  -3.410  14.662
12006CHOL    R236263   8.967  -3.490  14.823
12006CHOL    R336264   8.804  -3.578  14.726
12006CHOL    R436265   8.956  -3.621  14.873
12006CHOL    R536266   8.791  -3.727  14.783
12006CHOL    C136267   8.771  -3.950  14.868
12006CHOL    C236268   8.752  -4.173  14.954
12007CHOL   ROH36269  18.758  -0.896   9.135
12007CHOL    R136270  18.859  -1.020   9.126
12007CHOL    R236271  18.872  -1.151   8.934
12007CHOL    R336272  18.973  -1.158   9.116
12007CHOL    R436273  18.961  -1.259   8.926
12007CHOL    R536274  19.074  -1.282   9.107
12007CHOL    C136275  19.226  -1.467   9.094
12007CHOL    C236276  19.378  -1.653   9.081
12008CHOL   ROH36277  -2.497   4.727  14.000
12008CHOL    R136278  -2.638   4.666  14.043
12008CHOL    R236279  -2.735   4.721  14.248
12008CHOL    R336280  -2.797   4.597  14.092
12008CHOL    R436281  -2.859   4.667  14.286
12008CHOL    R536282  -2.938   4.536  14.136
12008CHOL    C136283  -3.150   4.444  14.201
12008CHOL    C236284  -3.362   4.352  14.266
12009CHOL   ROH36285   3.201  20.010   2.759
12009CHOL    R136286   3.123  20.127   2.682
12009CHOL    R236287   3.223  20.334   2.646
12009CHOL    R336288   3.035  20.258   2.596
12009CHOL    R436289   3.154  20.436   2.579
12009CHOL    R536290   2.957  20.375   2.519
12009CHOL    C136291   2.840  20.549   2.404
12009CHOL    C236292   2.723  20.724   2.289
12010CHOL   ROH36293  -2.706  15.492  13.081
12010CHOL    R136294  -2.849  15.554  13.115
12010CHOL    R236295  -2.946  15.526  13.325
12010CHOL    R336296  -3.011  15.625  13.153
12010CHOL    R436297  -3.071  15.580  13.355
12010CHOL    R536298  -3.154  15.687  13.187
12010CHOL    C136299  -3.369  15.781  13.238
12010CHOL    C236300  -3.584  15.874  13.289
12011CHOL   ROH36301  11.164  23.933   8.920
12011CHOL    R136302  11.177  24.092   8.910
12011CHOL    R236303  11.375  24.201   8.968
12011CHOL    R336304  11.191  24.271   8.898
12011CHOL    R436305  11.386  24.340   8.959
12011CHOL    R536306  11.204  24.430   8.888
12011CHOL    C136307  11.223  24.669   8.872
12011CHOL    C236308  11.242  24.908   8.856
12012CHOL   ROH36309  18.440   2.080   2.141
12012CHOL    R136310  18.539   1.993   2.051
12012CHOL    R236311  18.466   1.894   1.853
12012CHOL    R336312  18.651   1.895   1.949
12012CHOL    R436313  18.553   1.818   1.774
12012CHOL    R536314  18.750   1.809   1.859
12012CHOL    C136315  18.900   1.678   1.723
12012CHOL    C236316  19.049   1.548   1.587
12013CHOL   ROH36317  17.335   2.749   0.501
12013CHOL    R136318  17.427   2.671   0.396
12013CHOL    R236319  17.338   2.588   0.197
12013CHOL    R336320  17.530   2.582   0.278
12013CHOL    R436321  17.418   2.520   0.105
12013CHOL    R536322  17.622   2.504   0.173
12013CHOL    C136323  17.760   2.386   0.016
12013CHOL    C236324  17.898   2.269  -0.142
12014CHOL   ROH36325  -2.067  17.522   9.509
12014CHOL    R136326  -2.202  17.608   9.507
12014CHOL    R236327  -2.350  17.603   9.688
12014CHOL    R336328  -2.354  17.704   9.505
12014CHOL    R436329  -2.468  17.678   9.686
12014CHOL    R536330  -2.489  17.790   9.503
12014CHOL    C136331  -2.692  17.918   9.500
12014CHOL    C236332  -2.895  18.046   9.497
12015CHOL   ROH36333  17.078  13.265  21.427
12015CHOL    R136334  17.169  13.306  21.552
12015CHOL    R236335  17.401  13.293  21.541
12015CHOL    R336336  17.271  13.351  21.693
12015CHOL    R436337  17.481  13.329  21.650
12015CHOL    R536338  17.362  13.392  21.818
12015CHOL    C136339  17.498  13.453  22.006
12015CHOL    C236340  17.635  13.514  22.194
12016CHOL   ROH36341  15.217   1.842  20.063
12016CHOL    R136342  15.277   1.747  20.177
12016CHOL    R236343  15.408   1.562  20.123
12016CHOL    R336344  15.344   1.640  20.305
12016CHOL    R436345  15.460   1.479  20.222
12016CHOL    R536346  15.403   1.545  20.419
12016CHOL    C136347  15.493   1.402  20.591
12016CHOL    C236348  15.583   1.260  20.762
12017CHOL   ROH36349  21.274   2.371  12.974
12017CHOL    R136350  21.401   2.281  13.010
12017CHOL    R236351  21.512   2.158  12.845
12017CHOL    R336352  21.545   2.180  13.051
12017CHOL    R436353  21.623   2.079  12.877
12017CHOL    R536354  21.672   2.090  13.087
12017CHOL    C136355  21.863   1.955  13.141
12017CHOL    C236356  22.054   1.820  13.195
12018CHOL   ROH36357   6.198  23.514   8.322
12018CHOL    R136358   6.158  23.668   8.305
12018CHOL    R236359   6.100  23.798   8.490
12018CHOL    R336360   6.113  23.841   8.286
12018CHOL    R436361   6.065  23.933   8.475
12018CHOL    R536362   6.073  23.995   8.269
12018CHOL    C136363   6.012  24.226   8.243
12018CHOL    C236364   5.952  24.457   8.217
12019CHOL   ROH36365   0.421   5.717  19.324
12019CHOL    R136366   0.319   5.664  19.435
12019CHOL    R236367   0.395   5.586  19.641
12019CHOL    R336368   0.204   5.604  19.560
12019CHOL    R436369   0.306   5.539  19.738
12019CHOL    R536370   0.102   5.551  19.671
12019CHOL    C136371  -0.052   5.471  19.838
12019CHOL    C236372  -0.205   5.392  20.004
12020CHOL   ROH36373  14.806  17.145  -1.117
12020CHOL    R136374  14.862  17.224  -1.244
12020CHOL    R236375  14.934  17.110  -1.434
12020CHOL    R336376  14.925  17.313  -1.388
12020CHOL    R436377  14.983  17.179  -1.546
12020CHOL    R536378  14.981  17.393  -1.515
12020CHOL    C136379  15.064  17.511  -1.706
12020CHOL    C236380  15.148  17.630  -1.897
12021CHOL   ROH36381  16.149  19.325   1.572
12021CHOL    R136382  16.226  19.435   1.485
12021CHOL    R236383  16.265  19.401   1.257
12021CHOL    R336384  16.313  19.558   1.387
12021CHOL    R436385  16.333  19.497   1.181
12021CHOL    R536386  16.390  19.668   1.300
12021CHOL    C136387  16.506  19.832   1.169
12021CHOL    C236388  16.622  19.996   1.038
12022CHOL   ROH36389  -3.658  13.760   9.004
12022CHOL    R136390  -3.812  13.802   8.989
12022CHOL    R236391  -3.983  13.653   9.045
12022CHOL    R336392  -3.985  13.849   8.973
12022CHOL    R436393  -4.117  13.690   9.032
12022CHOL    R536394  -4.139  13.891   8.958
12022CHOL    C136395  -4.369  13.954   8.936
12022CHOL    C236396  -4.600  14.017   8.914
12023CHOL   ROH36397  15.113  18.917   0.361
12023CHOL    R136398  15.176  19.018   0.254
12023CHOL    R236399  15.398  18.996   0.185
12023CHOL    R336400  15.247  19.131   0.134
12023CHOL    R436401  15.453  19.084   0.091
12023CHOL    R536402  15.311  19.232   0.027
12023CHOL    C136403  15.405  19.383  -0.133
12023CHOL    C236404  15.500  19.534  -0.294
12024CHOL   ROH36405  -2.690  15.455   6.950
12024CHOL    R136406  -2.833  15.514   6.910
12024CHOL    R236407  -2.897  15.728   6.976
12024CHOL    R336408  -2.995  15.580   6.866
12024CHOL    R436409  -3.023  15.780   6.942
12024CHOL    R536410  -3.138  15.640   6.826
12024CHOL    C136411  -3.353  15.728   6.766
12024CHOL    C236412  -3.568  15.817   6.707
12025CHOL   ROH36413   2.367   2.009  18.720
12025CHOL    R136414   2.280   1.922  18.822
12025CHOL    R236415   2.371   1.845  19.022
12025CHOL    R336416   2.181   1.824  18.937
12025CHOL    R436417   2.294   1.769  19.112
12025CHOL    R536418   2.094   1.737  19.039
12025CHOL    C136419   1.963   1.606  19.192
12025CHOL    C236420   1.832   1.476  19.345
12026CHOL   ROH36421  15.657  -1.499  15.647
12026CHOL    R136422  15.720  -1.632  15.709
12026CHOL    R236423  15.885  -1.621  15.874
12026CHOL    R336424  15.791  -1.782  15.780
12026CHOL    R436425  15.940  -1.738  15.929
12026CHOL    R536426  15.854  -1.916  15.842
12026CHOL    C136427  15.949  -2.115  15.936
12026CHOL    C236428  16.043  -2.315  16.029
12027CHOL   ROH36429  20.067   9.148  19.554
12027CHOL    R136430  20.185   9.137  19.662
12027CHOL    R236431  20.392   9.237  19.624
12027CHOL    R336432  20.317   9.125  19.784
12027CHOL    R436433  20.495   9.228  19.719
12027CHOL    R536434  20.434   9.114  19.892
12027CHOL    C136435  20.611   9.098  20.054
12027CHOL    C236436  20.787   9.081  20.216
12028CHOL   ROH36437   4.296  13.054  -2.600
12028CHOL    R136438   4.228  13.088  -2.741
12028CHOL    R236439   4.030  13.210  -2.752
12028CHOL    R336440   4.152  13.126  -2.900
12028CHOL    R436441   3.970  13.239  -2.876
12028CHOL    R536442   4.084  13.159  -3.041
12028CHOL    C136443   3.982  13.210  -3.252
12028CHOL    C236444   3.880  13.261  -3.463
12029CHOL   ROH36445  23.740   9.857   8.152
12029CHOL    R136446  23.899   9.853   8.134
12029CHOL    R236447  24.021  10.050   8.106
12029CHOL    R336448  24.078   9.849   8.114
12029CHOL    R436449  24.160  10.047   8.090
12029CHOL    R536450  24.237   9.846   8.096
12029CHOL    C136451  24.475   9.840   8.068
12029CHOL    C236452  24.713   9.834   8.041
12030CHOL   ROH36453  18.575  20.376   6.038
12030CHOL    R136454  18.678  20.489   5.991
12030CHOL    R236455  18.898  20.492   6.070
12030CHOL    R336456  18.794  20.616   5.939
12030CHOL    R436457  18.988  20.591   6.030
12030CHOL    R536458  18.897  20.729   5.892
12030CHOL    C136459  19.052  20.899   5.822
12030CHOL    C236460  19.206  21.069   5.752
12031CHOL   ROH36461  14.147  21.377   2.896
12031CHOL    R136462  14.197  21.508   2.819
12031CHOL    R236463  14.357  21.649   2.913
12031CHOL    R336464  14.253  21.655   2.731
12031CHOL    R436465  14.401  21.764   2.845
12031CHOL    R536466  14.303  21.785   2.654
12031CHOL    C136467  14.379  21.982   2.538
12031CHOL    C236468  14.454  22.178   2.422
12032CHOL   ROH36469  21.297  17.489   7.044
12032CHOL    R136470  21.428  17.575   7.010
12032CHOL    R236471  21.586  17.497   6.857
12032CHOL    R336472  21.575  17.671   6.972
12032CHOL    R436473  21.700  17.572   6.827
12032CHOL    R536474  21.706  17.757   6.938
12032CHOL    C136475  21.902  17.886   6.886
12032CHOL    C236476  22.098  18.014   6.835
12033CHOL   ROH36477  21.046  12.429  18.129
12033CHOL    R136478  21.169  12.457  18.228
12033CHOL    R236479  21.289  12.656  18.215
12033CHOL    R336480  21.307  12.488  18.338
12033CHOL    R436481  21.397  12.681  18.302
12033CHOL    R536482  21.430  12.516  18.437
12033CHOL    C136483  21.614  12.558  18.585
12033CHOL    C236484  21.799  12.600  18.733
12034CHOL   ROH36485  22.506   4.444   7.391
12034CHOL    R136486  22.650   4.380   7.364
12034CHOL    R236487  22.697   4.272   7.162
12034CHOL    R336488  22.812   4.307   7.334
12034CHOL    R436489  22.823   4.216   7.139
12034CHOL    R536490  22.955   4.242   7.307
12034CHOL    C136491  23.171   4.146   7.266
12034CHOL    C236492  23.387   4.049   7.225
12035CHOL   ROH36493   9.624  23.651   6.646
12035CHOL    R136494   9.624  23.807   6.612
12035CHOL    R236495   9.752  23.957   6.737
12035CHOL    R336496   9.624  23.983   6.573
12035CHOL    R436497   9.752  24.094   6.707
12035CHOL    R536498   9.625  24.139   6.539
12035CHOL    C136499   9.625  24.374   6.488
12035CHOL    C236500   9.625  24.608   6.436
12036CHOL   ROH36501   5.231  22.900   6.659
12036CHOL    R136502   5.172  23.044   6.623
12036CHOL    R236503   5.060  23.172   6.783
12036CHOL    R336504   5.106  23.207   6.582
12036CHOL    R436505   5.009  23.298   6.752
12036CHOL    R536506   5.046  23.351   6.546
12036CHOL    C136507   4.958  23.567   6.492
12036CHOL    C236508   4.869  23.784   6.438
12037CHOL   ROH36509   8.805  -2.689  15.954
12037CHOL    R136510   8.791  -2.833  16.022
12037CHOL    R236511   8.978  -2.949  16.099
12037CHOL    R336512   8.775  -2.995  16.099
12037CHOL    R436513   8.966  -3.075  16.158
12037CHOL    R536514   8.761  -3.139  16.167
12037CHOL    C136515   8.739  -3.355  16.269
12037CHOL    C236516   8.718  -3.571  16.371
12038CHOL   ROH36517  -2.222  15.250   5.275
12038CHOL    R136518  -2.361  15.309   5.221
12038CHOL    R236519  -2.473  15.477   5.338
12038CHOL    R336520  -2.517  15.375   5.161
12038CHOL    R436521  -2.595  15.528   5.291
12038CHOL    R536522  -2.656  15.433   5.107
12038CHOL    C136523  -2.864  15.522   5.027
12038CHOL    C236524  -3.073  15.610   4.947
12039CHOL   ROH36525  20.539   2.701   4.358
12039CHOL    R136526  20.659   2.617   4.293
12039CHOL    R236527  20.870   2.713   4.266
12039CHOL    R336528  20.794   2.524   4.220
12039CHOL    R436529  20.976   2.640   4.209
12039CHOL    R536530  20.914   2.440   4.155
12039CHOL    C136531  21.095   2.315   4.058
12039CHOL    C236532  21.275   2.189   3.961
12040CHOL   ROH36533   0.089   2.966   2.575
12040CHOL    R136534  -0.016   2.884   2.486
12040CHOL    R236535   0.010   2.656   2.448
12040CHOL    R336536  -0.135   2.793   2.386
12040CHOL    R436537  -0.082   2.584   2.371
12040CHOL    R536538  -0.240   2.711   2.297
12040CHOL    C136539  -0.398   2.589   2.164
12040CHOL    C236540  -0.556   2.466   2.031
12041CHOL   ROH36541   4.924  -1.860  15.707
12041CHOL    R136542   4.868  -1.994  15.773
12041CHOL    R236543   5.010  -2.143  15.883
12041CHOL    R336544   4.804  -2.146  15.847
12041CHOL    R436545   4.960  -2.261  15.940
12041CHOL    R536546   4.747  -2.280  15.913
12041CHOL    C136547   4.663  -2.482  16.012
12041CHOL    C236548   4.578  -2.683  16.111
12042CHOL   ROH36549  -1.205   6.089  17.770
12042CHOL    R136550  -1.326   6.046  17.866
12042CHOL    R236551  -1.325   6.103  18.092
12042CHOL    R336552  -1.462   5.998  17.973
12042CHOL    R436553  -1.431   6.065  18.176
12042CHOL    R536554  -1.582   5.955  18.069
12042CHOL    C136555  -1.764   5.891  18.213
12042CHOL    C236556  -1.945   5.826  18.356
12043CHOL   ROH36557   0.456   1.381  15.896
12043CHOL    R136558   0.348   1.284  15.964
12043CHOL    R236559   0.330   1.270  16.196
12043CHOL    R336560   0.227   1.176  16.041
12043CHOL    R436561   0.236   1.185  16.256
12043CHOL    R536562   0.119   1.079  16.109
12043CHOL    C136563  -0.042   0.934  16.211
12043CHOL    C236564  -0.204   0.789  16.313
12044CHOL   ROH36565   3.593  20.446   3.044
12044CHOL    R136566   3.517  20.566   2.970
12044CHOL    R236567   3.569  20.788   3.018
12044CHOL    R336568   3.432  20.701   2.887
12044CHOL    R436569   3.502  20.893   2.953
12044CHOL    R536570   3.356  20.820   2.813
12044CHOL    C136571   3.242  21.000   2.701
12044CHOL    C236572   3.128  21.180   2.590
12045CHOL   ROH36573  -3.251  14.979   8.829
12045CHOL    R136574  -3.400  15.034   8.813
12045CHOL    R236575  -3.441  15.259   8.764
12045CHOL    R336576  -3.569  15.096   8.796
12045CHOL    R436577  -3.572  15.307   8.750
12045CHOL    R536578  -3.718  15.152   8.780
12045CHOL    C136579  -3.942  15.234   8.757
12045CHOL    C236580  -4.166  15.317   8.734
12046CHOL   ROH36581  12.820  23.590  11.842
12046CHOL    R136582  12.851  23.745  11.866
12046CHOL    R236583  13.064  23.816  11.928
12046CHOL    R336584  12.886  23.919  11.894
12046CHOL    R436585  13.092  23.952  11.950
12046CHOL    R536586  12.918  24.075  11.918
12046CHOL    C136587  12.964  24.307  11.954
12046CHOL    C236588  13.011  24.540  11.991
12047CHOL   ROH36589  -3.116  15.409   9.224
12047CHOL    R136590  -3.264  15.469   9.215
12047CHOL    R236591  -3.299  15.699   9.195
12047CHOL    R336592  -3.431  15.537   9.205
12047CHOL    R436593  -3.429  15.752   9.188
12047CHOL    R536594  -3.579  15.597   9.197
12047CHOL    C136595  -3.801  15.687   9.183
12047CHOL    C236596  -4.023  15.777   9.170
12048CHOL   ROH36597  -1.668   1.997  11.099
12048CHOL    R136598  -1.801   1.909  11.113
12048CHOL    R236599  -1.825   1.756  11.288
12048CHOL    R336600  -1.950   1.810  11.130
12048CHOL    R436601  -1.941   1.679  11.301
12048CHOL    R536602  -2.083   1.721  11.144
12048CHOL    C136603  -2.282   1.589  11.166
12048CHOL    C236604  -2.481   1.457  11.187
12049CHOL   ROH36605  12.907  18.091  21.020
12049CHOL    R136606  12.941  18.180  21.148
12049CHOL    R236607  13.161  18.236  21.201
12049CHOL    R336608  12.979  18.281  21.293
12049CHOL    R436609  13.191  18.315  21.313
12049CHOL    R536610  13.013  18.371  21.421
12049CHOL    C136611  13.064  18.505  21.613
12049CHOL    C236612  13.115  18.639  21.806
12050CHOL   ROH36613   9.020   8.233  -3.952
12050CHOL    R136614   9.010   8.211  -4.110
12050CHOL    R236615   9.189   8.121  -4.230
12050CHOL    R336616   8.999   8.186  -4.288
12050CHOL    R436617   9.180   8.102  -4.369
12050CHOL    R536618   8.989   8.165  -4.447
12050CHOL    C136619   8.975   8.132  -4.684
12050CHOL    C236620   8.960   8.099  -4.921
12051CHOL   ROH36621  22.166  14.432  15.087
12051CHOL    R136622  22.309  14.478  15.142
12051CHOL    R236623  22.442  14.627  15.021
12051CHOL    R336624  22.470  14.530  15.204
12051CHOL    R436625  22.567  14.667  15.069
12051CHOL    R536626  22.613  14.575  15.259
12051CHOL    C136627  22.828  14.644  15.341
12051CHOL    C236628  23.042  14.713  15.423
12052CHOL   ROH36629   0.211  19.235   5.624
12052CHOL    R136630   0.108  19.347   5.574
12052CHOL    R236631  -0.081  19.400   5.699
12052CHOL    R336632  -0.008  19.473   5.518
12052CHOL    R436633  -0.171  19.498   5.655
12052CHOL    R536634  -0.110  19.584   5.468
12052CHOL    C136635  -0.265  19.752   5.392
12052CHOL    C236636  -0.419  19.920   5.317
12053CHOL   ROH36637  16.669  21.455   5.378
12053CHOL    R136638  16.741  21.588   5.326
12053CHOL    R236639  16.972  21.616   5.345
12053CHOL    R336640  16.822  21.738   5.267
12053CHOL    R436641  17.035  21.732   5.299
12053CHOL    R536642  16.894  21.871   5.215
12053CHOL    C136643  17.001  22.071   5.137
12053CHOL    C236644  17.109  22.270   5.059
12054CHOL   ROH36645   1.800   1.516  17.738
12054CHOL    R136646   1.708   1.423  17.830
12054CHOL    R236647   1.799   1.295  18.002
12054CHOL    R336648   1.603   1.318  17.932
12054CHOL    R436649   1.718   1.213  18.082
12054CHOL    R536650   1.511   1.225  18.024
12054CHOL    C136651   1.372   1.085  18.161
12054CHOL    C236652   1.234   0.946  18.299
12055CHOL   ROH36653  19.077   0.248   5.660
12055CHOL    R136654  19.182   0.137   5.612
12055CHOL    R236655  19.238   0.113   5.387
12055CHOL    R336656  19.300   0.012   5.559
12055CHOL    R436657  19.329   0.016   5.345
12055CHOL    R536658  19.404  -0.099   5.511
12055CHOL    C136659  19.562  -0.266   5.439
12055CHOL    C236660  19.719  -0.432   5.368
12056CHOL   ROH36661  16.736   4.230  20.734
12056CHOL    R136662  16.818   4.165  20.855
12056CHOL    R236663  16.860   3.935  20.861
12056CHOL    R336664  16.910   4.091  20.991
12056CHOL    R436665  16.932   3.878  20.966
12056CHOL    R536666  16.992   4.026  21.112
12056CHOL    C136667  17.115   3.927  21.293
12056CHOL    C236668  17.238   3.829  21.474
12057CHOL   ROH36669  20.785   1.535  12.461
12057CHOL    R136670  20.908   1.437  12.493
12057CHOL    R236671  20.989   1.291  12.331
12057CHOL    R336672  21.045   1.327  12.529
12057CHOL    R436673  21.097   1.205  12.359
12057CHOL    R536674  21.168   1.230  12.561
12057CHOL    C136675  21.352   1.083  12.608
12057CHOL    C236676  21.536   0.936  12.656
12058CHOL   ROH36677  23.247   5.691   9.347
12058CHOL    R136678  23.399   5.643   9.339
12058CHOL    R236679  23.532   5.693   9.154
12058CHOL    R336680  23.571   5.589   9.331
12058CHOL    R436681  23.665   5.651   9.148
12058CHOL    R536682  23.723   5.541   9.324
12058CHOL    C136683  23.952   5.469   9.312
12058CHOL    C236684  24.181   5.397   9.301
12059CHOL   ROH36685  20.981  17.162   5.341
12059CHOL    R136686  21.109  17.247   5.296
12059CHOL    R236687  21.276  17.151   5.165
12059CHOL    R336688  21.253  17.342   5.245
12059CHOL    R436689  21.388  17.225   5.125
12059CHOL    R536690  21.381  17.427   5.200
12059CHOL    C136691  21.573  17.554   5.132
12059CHOL    C236692  21.765  17.681   5.065
12060CHOL   ROH36693  17.848  -1.575  10.132
12060CHOL    R136694  17.937  -1.708  10.137
12060CHOL    R236695  18.157  -1.708  10.060
12060CHOL    R336696  18.037  -1.857  10.144
12060CHOL    R436697  18.235  -1.824  10.065
12060CHOL    R536698  18.127  -1.990  10.149
12060CHOL    C136699  18.260  -2.189  10.157
12060CHOL    C236700  18.394  -2.388  10.165
12061CHOL   ROH36701   2.070  17.765   1.111
12061CHOL    R136702   1.981  17.854   1.012
12061CHOL    R236703   2.080  17.995   0.855
12061CHOL    R336704   1.880  17.954   0.902
12061CHOL    R436705   2.002  18.073   0.769
12061CHOL    R536706   1.791  18.043   0.803
12061CHOL    C136707   1.657  18.176   0.655
12061CHOL    C236708   1.523  18.310   0.507
12062CHOL   ROH36709   9.092  -3.752   7.049
12062CHOL    R136710   9.081  -3.909   7.019
12062CHOL    R236711   9.272  -4.039   6.987
12062CHOL    R336712   9.068  -4.085   6.984
12062CHOL    R436713   9.262  -4.176   6.961
12062CHOL    R536714   9.056  -4.242   6.954
12062CHOL    C136715   9.039  -4.476   6.908
12062CHOL    C236716   9.022  -4.711   6.863
12063CHOL   ROH36717  -3.115  11.737   4.978
12063CHOL    R136718  -3.265  11.757   4.926
12063CHOL    R236719  -3.441  11.788   5.075
12063CHOL    R336720  -3.433  11.781   4.866
12063CHOL    R436721  -3.572  11.806   5.029
12063CHOL    R536722  -3.583  11.801   4.814
12063CHOL    C136723  -3.808  11.832   4.735
12063CHOL    C236724  -4.032  11.862   4.657
12064CHOL   ROH36725   1.352   3.100   1.203
12064CHOL    R136726   1.260   3.020   1.099
12064CHOL    R236727   1.348   2.850   0.966
12064CHOL    R336728   1.156   2.931   0.983
12064CHOL    R436729   1.267   2.780   0.876
12064CHOL    R536730   1.064   2.851   0.879
12064CHOL    C136731   0.925   2.731   0.724
12064CHOL    C236732   0.787   2.612   0.569
12065CHOL   ROH36733  22.499   4.182  12.027
12065CHOL    R136734  22.643   4.117  12.051
12065CHOL    R236735  22.821   4.164  11.907
12065CHOL    R336736  22.806   4.045  12.077
12065CHOL    R436737  22.947   4.108  11.928
12065CHOL    R536738  22.951   3.980  12.101
12065CHOL    C136739  23.167   3.883  12.137
12065CHOL    C236740  23.384   3.786  12.172
12066CHOL   ROH36741   8.587  -0.109   0.238
12066CHOL    R136742   8.571  -0.224   0.128
12066CHOL    R236743   8.536  -0.446   0.191
12066CHOL    R336744   8.553  -0.354   0.004
12066CHOL    R436745   8.522  -0.547   0.095
12066CHOL    R536746   8.537  -0.469  -0.105
12066CHOL    C136747   8.513  -0.642  -0.270
12066CHOL    C236748   8.489  -0.815  -0.435
12067CHOL   ROH36749  10.037  -3.577  13.736
12067CHOL    R136750  10.042  -3.732  13.774
12067CHOL    R236751  10.242  -3.834  13.838
12067CHOL    R336752  10.048  -3.907  13.817
12067CHOL    R436753  10.246  -3.970  13.872
12067CHOL    R536754  10.052  -4.062  13.855
12067CHOL    C136755  10.060  -4.296  13.912
12067CHOL    C236756  10.067  -4.529  13.969
12068CHOL   ROH36757  -0.600   3.236   3.237
12068CHOL    R136758  -0.716   3.156   3.161
12068CHOL    R236759  -0.699   2.927   3.122
12068CHOL    R336760  -0.847   3.067   3.075
12068CHOL    R436761  -0.801   2.858   3.055
12068CHOL    R536762  -0.963   2.987   2.999
12068CHOL    C136763  -1.137   2.868   2.885
12068CHOL    C236764  -1.311   2.749   2.771
12069CHOL   ROH36765   6.145  23.586  10.226
12069CHOL    R136766   6.103  23.740  10.230
12069CHOL    R236767   6.160  23.876  10.411
12069CHOL    R336768   6.056  23.914  10.233
12069CHOL    R436769   6.123  24.011  10.414
12069CHOL    R536770   6.014  24.068  10.237
12069CHOL    C136771   5.951  24.300  10.242
12069CHOL    C236772   5.888  24.532  10.248
12070CHOL   ROH36773  12.928  -3.767  10.252
12070CHOL    R136774  12.962  -3.923  10.258
12070CHOL    R236775  12.948  -4.057  10.068
12070CHOL    R336776  12.999  -4.099  10.266
12070CHOL    R436777  12.977  -4.194  10.073
12070CHOL    R536778  13.033  -4.255  10.272
12070CHOL    C136779  13.083  -4.490  10.282
12070CHOL    C236780  13.134  -4.724  10.291
12071CHOL   ROH36781  19.587  19.056   5.479
12071CHOL    R136782  19.701  19.156   5.429
12071CHOL    R236783  19.868  19.085   5.282
12071CHOL    R336784  19.829  19.270   5.373
12071CHOL    R436785  19.968  19.173   5.239
12071CHOL    R536786  19.944  19.370   5.323
12071CHOL    C136787  20.115  19.521   5.248
12071CHOL    C236788  20.286  19.671   5.173
12072CHOL   ROH36789  21.515  16.741  13.952
12072CHOL    R136790  21.646  16.821  13.996
12072CHOL    R236791  21.713  17.014  13.882
12072CHOL    R336792  21.794  16.912  14.045
12072CHOL    R436793  21.828  17.084  13.920
12072CHOL    R536794  21.926  16.992  14.089
12072CHOL    C136795  22.123  17.112  14.155
12072CHOL    C236796  22.320  17.233  14.221
12073CHOL   ROH36797  17.395   3.002  19.491
12073CHOL    R136798  17.483   2.924  19.600
12073CHOL    R236799  17.689   2.832  19.544
12073CHOL    R336800  17.581   2.836  19.722
12073CHOL    R436801  17.766   2.763  19.639
12073CHOL    R536802  17.668   2.757  19.830
12073CHOL    C136803  17.800   2.640  19.993
12073CHOL    C236804  17.931   2.523  20.156
12074CHOL   ROH36805  12.535  23.413  12.998
12074CHOL    R136806  12.564  23.566  13.033
12074CHOL    R236807  12.611  23.721  12.865
12074CHOL    R336808  12.597  23.739  13.072
12074CHOL    R436809  12.637  23.855  12.896
12074CHOL    R536810  12.626  23.892  13.108
12074CHOL    C136811  12.670  24.122  13.160
12074CHOL    C236812  12.714  24.352  13.213
12075CHOL   ROH36813  -3.292   5.122  10.059
12075CHOL    R136814  -3.442   5.066  10.059
12075CHOL    R236815  -3.486   4.840  10.090
12075CHOL    R336816  -3.611   5.004  10.058
12075CHOL    R436817  -3.618   4.791  10.090
12075CHOL    R536818  -3.761   4.948  10.058
12075CHOL    C136819  -3.986   4.865  10.058
12075CHOL    C236820  -4.211   4.782  10.057
12076CHOL   ROH36821  16.528   8.296  -2.251
12076CHOL    R136822  16.602   8.275  -2.391
12076CHOL    R236823  16.667   8.458  -2.521
12076CHOL    R336824  16.685   8.251  -2.549
12076CHOL    R436825  16.732   8.439  -2.644
12076CHOL    R536826  16.759   8.231  -2.689
12076CHOL    C136827  16.870   8.199  -2.900
12076CHOL    C236828  16.981   8.168  -3.110
12077CHOL   ROH36829  11.946  17.727  -1.588
12077CHOL    R136830  11.970  17.814  -1.720
12077CHOL    R236831  12.162  17.944  -1.745
12077CHOL    R336832  11.997  17.912  -1.869
12077CHOL    R436833  12.183  18.020  -1.860
12077CHOL    R536834  12.021  17.999  -2.001
12077CHOL    C136835  12.056  18.130  -2.199
12077CHOL    C236836  12.092  18.260  -2.397
12078CHOL   ROH36837   3.722   4.895  -1.672
12078CHOL    R136838   3.647   4.832  -1.799
12078CHOL    R236839   3.734   4.645  -1.909
12078CHOL    R336840   3.564   4.762  -1.942
12078CHOL    R436841   3.668   4.591  -2.020
12078CHOL    R536842   3.489   4.699  -2.069
12078CHOL    C136843   3.377   4.605  -2.260
12078CHOL    C236844   3.265   4.511  -2.450
12079CHOL   ROH36845   4.463  -2.424   6.069
12079CHOL    R136846   4.403  -2.565   6.024
12079CHOL    R236847   4.394  -2.745   6.173
12079CHOL    R336848   4.336  -2.725   5.973
12079CHOL    R436849   4.342  -2.868   6.134
12079CHOL    R536850   4.277  -2.866   5.929
12079CHOL    C136851   4.187  -3.078   5.861
12079CHOL    C236852   4.097  -3.290   5.794
12080CHOL   ROH36853   9.862   9.591  24.006
12080CHOL    R136854   9.857   9.586  24.166
12080CHOL    R236855   9.909   9.390  24.281
12080CHOL    R336856   9.851   9.580  24.346
12080CHOL    R436857   9.905   9.385  24.421
12080CHOL    R536858   9.846   9.575  24.505
12080CHOL    C136859   9.838   9.567  24.745
12080CHOL    C236860   9.830   9.559  24.985
12081CHOL   ROH36861  19.974  18.980  13.421
12081CHOL    R136862  20.086  19.086  13.464
12081CHOL    R236863  20.253  19.029  13.617
12081CHOL    R336864  20.212  19.205  13.512
12081CHOL    R436865  20.351  19.122  13.654
12081CHOL    R536866  20.325  19.311  13.554
12081CHOL    C136867  20.493  19.470  13.619
12081CHOL    C236868  20.661  19.629  13.683
12082CHOL   ROH36869   5.497  -0.986  17.574
12082CHOL    R136870   5.447  -1.110  17.661
12082CHOL    R236871   5.551  -1.318  17.645
12082CHOL    R336872   5.391  -1.250  17.760
12082CHOL    R436873   5.508  -1.427  17.721
12082CHOL    R536874   5.341  -1.375  17.847
12082CHOL    C136875   5.266  -1.561  17.978
12082CHOL    C236876   5.191  -1.747  18.109
12083CHOL   ROH36877   0.672  17.912  17.027
12083CHOL    R136878   0.567  18.001  17.108
12083CHOL    R236879   0.629  18.206  17.200
12083CHOL    R336880   0.448  18.102  17.198
12083CHOL    R436881   0.537  18.285  17.270
12083CHOL    R536882   0.343  18.192  17.279
12083CHOL    C136883   0.185  18.326  17.400
12083CHOL    C236884   0.027  18.460  17.521
12084CHOL   ROH36885  15.596  17.579  20.304
12084CHOL    R136886  15.662  17.662  20.424
12084CHOL    R236887  15.753  17.874  20.388
12084CHOL    R336888  15.737  17.755  20.559
12084CHOL    R436889  15.810  17.946  20.493
12084CHOL    R536890  15.803  17.838  20.679
12084CHOL    C136891  15.902  17.962  20.858
12084CHOL    C236892  16.002  18.086  21.038
12085CHOL   ROH36893   6.183  23.108   6.206
12085CHOL    R136894   6.142  23.257   6.164
12085CHOL    R236895   6.112  23.423   6.325
12085CHOL    R336896   6.096  23.425   6.117
12085CHOL    R436897   6.077  23.553   6.288
12085CHOL    R536898   6.056  23.573   6.075
12085CHOL    C136899   5.994  23.797   6.012
12085CHOL    C236900   5.933  24.020   5.949
12086CHOL   ROH36901  -1.724  13.782  17.019
12086CHOL    R136902  -1.857  13.822  17.099
12086CHOL    R236903  -1.897  14.044  17.160
12086CHOL    R336904  -2.006  13.868  17.188
12086CHOL    R436905  -2.014  14.079  17.229
12086CHOL    R536906  -2.139  13.908  17.267
12086CHOL    C136907  -2.338  13.968  17.387
12086CHOL    C236908  -2.537  14.029  17.506
12087CHOL   ROH36909   5.581  -3.385  10.520
12087CHOL    R136910   5.532  -3.537  10.528
12087CHOL    R236911   5.575  -3.667  10.717
12087CHOL    R336912   5.477  -3.708  10.537
12087CHOL    R436913   5.532  -3.801  10.723
12087CHOL    R536914   5.427  -3.860  10.544
12087CHOL    C136915   5.354  -4.089  10.556
12087CHOL    C236916   5.280  -4.317  10.568
12088CHOL   ROH36917   7.216  23.501  12.913
12088CHOL    R136918   7.185  23.654  12.949
12088CHOL    R236919   7.301  23.763  13.119
12088CHOL    R336920   7.150  23.825  12.991
12088CHOL    R436921   7.274  23.896  13.151
12088CHOL    R536922   7.118  23.978  13.027
12088CHOL    C136923   7.072  24.207  13.082
12088CHOL    C236924   7.025  24.436  13.136
12089CHOL   ROH36925  10.869  23.839  11.926
12089CHOL    R136926  10.881  23.997  11.949
12089CHOL    R236927  11.071  24.114  11.881
12089CHOL    R336928  10.894  24.174  11.976
12089CHOL    R436929  11.081  24.252  11.902
12089CHOL    R536930  10.906  24.332  11.999
12089CHOL    C136931  10.924  24.569  12.034
12089CHOL    C236932  10.942  24.805  12.069
12090CHOL   ROH36933  21.796   4.914  15.433
12090CHOL    R136934  21.933   4.862  15.497
12090CHOL    R236935  22.139   4.922  15.404
12090CHOL    R336936  22.088   4.803  15.568
12090CHOL    R436937  22.259   4.876  15.460
12090CHOL    R536938  22.225   4.751  15.632
12090CHOL    C136939  22.431   4.673  15.728
12090CHOL    C236940  22.637   4.595  15.823
12091CHOL   ROH36941   0.562  16.175   1.337
12091CHOL    R136942   0.456  16.246   1.240
12091CHOL    R236943   0.484  16.468   1.174
12091CHOL    R336944   0.337  16.326   1.132
12091CHOL    R436945   0.391  16.530   1.090
12091CHOL    R536946   0.231  16.397   1.035
12091CHOL    C136947   0.072  16.504   0.890
12091CHOL    C236948  -0.087  16.610   0.745
12092CHOL   ROH36949  15.785  -2.431  12.733
12092CHOL    R136950  15.854  -2.572  12.764
12092CHOL    R236951  16.002  -2.596  12.943
12092CHOL    R336952  15.931  -2.731  12.800
12092CHOL    R436953  16.062  -2.720  12.970
12092CHOL    R536954  15.999  -2.872  12.831
12092CHOL    C136955  16.102  -3.084  12.878
12092CHOL    C236956  16.205  -3.295  12.925
12093CHOL   ROH36957   6.797  13.103  -3.460
12093CHOL    R136958   6.763  13.138  -3.612
12093CHOL    R236959   6.601  13.298  -3.665
12093CHOL    R336960   6.724  13.178  -3.784
12093CHOL    R436961   6.572  13.329  -3.798
12093CHOL    R536962   6.690  13.213  -3.936
12093CHOL    C136963   6.639  13.266  -4.164
12093CHOL    C236964   6.587  13.319  -4.393
12094CHOL   ROH36965  -1.715  14.143   3.147
12094CHOL    R136966  -1.850  14.195   3.079
12094CHOL    R236967  -2.010  14.311   3.202
12094CHOL    R336968  -2.002  14.253   3.002
12094CHOL    R436969  -2.128  14.356   3.143
12094CHOL    R536970  -2.137  14.305   2.933
12094CHOL    C136971  -2.340  14.383   2.831
12094CHOL    C236972  -2.542  14.461   2.729
12095CHOL   ROH36973  -1.095  13.410  18.108
12095CHOL    R136974  -1.219  13.445  18.203
12095CHOL    R236975  -1.186  13.528  18.418
12095CHOL    R336976  -1.358  13.483  18.310
12095CHOL    R436977  -1.294  13.558  18.501
12095CHOL    R536978  -1.482  13.518  18.404
12095CHOL    C136979  -1.668  13.570  18.547
12095CHOL    C236980  -1.854  13.622  18.689
12096CHOL   ROH36981  21.739  14.513   3.865
12096CHOL    R136982  21.873  14.563   3.794
12096CHOL    R236983  21.876  14.761   3.669
12096CHOL    R336984  22.024  14.620   3.714
12096CHOL    R436985  21.993  14.805   3.607
12096CHOL    R536986  22.158  14.670   3.643
12096CHOL    C136987  22.359  14.746   3.536
12096CHOL    C236988  22.560  14.822   3.429
12097CHOL   ROH36989  17.056  17.945   0.854
12097CHOL    R136990  17.140  18.037   0.754
12097CHOL    R236991  17.370  18.010   0.730
12097CHOL    R336992  17.235  18.142   0.641
12097CHOL    R436993  17.444  18.091   0.642
12097CHOL    R536994  17.319  18.234   0.541
12097CHOL    C136995  17.445  18.373   0.391
12097CHOL    C236996  17.571  18.511   0.241
12098CHOL   ROH36997   7.752  18.245  -1.263
12098CHOL    R136998   7.733  18.345  -1.387
12098CHOL    R236999   7.901  18.370  -1.547
12098CHOL    R337000   7.712  18.456  -1.526
12098CHOL    R437001   7.884  18.457  -1.655
12098CHOL    R537002   7.693  18.556  -1.650
12098CHOL    C137003   7.665  18.705  -1.836
12098CHOL    C237004   7.636  18.855  -2.022
12099CHOL   ROH37005   0.203  19.834   7.376
12099CHOL    R137006   0.102  19.954   7.345
12099CHOL    R237007   0.174  20.149   7.240
12099CHOL    R337008  -0.013  20.089   7.310
12099CHOL    R437009   0.086  20.254   7.213
12099CHOL    R537010  -0.114  20.208   7.280
12099CHOL    C137011  -0.266  20.388   7.233
12099CHOL    C237012  -0.418  20.568   7.187
12100CHOL   ROH37013  23.520   8.041   7.514
12100CHOL    R137014  23.677   8.022   7.487
12100CHOL    R237015  23.810   8.200   7.417
12100CHOL    R337016  23.853   8.000   7.457
12100CHOL    R437017  23.947   8.183   7.394
12100CHOL    R537018  24.009   7.980   7.431
12100CHOL    C137019  24.244   7.951   7.390
12100CHOL    C237020  24.479   7.922   7.350
12101CHOL   ROH37021   0.561  19.139   4.777
12101CHOL    R137022   0.460  19.249   4.718
12101CHOL    R237023   0.272  19.315   4.839
12101CHOL    R337024   0.347  19.372   4.653
12101CHOL    R437025   0.184  19.411   4.788
12101CHOL    R537026   0.246  19.481   4.594
12101CHOL    C137027   0.095  19.646   4.506
12101CHOL    C237028  -0.056  19.810   4.418
12102CHOL   ROH37029  12.150  17.593  21.517
12102CHOL    R137030  12.176  17.676  21.651
12102CHOL    R237031  12.379  17.784  21.688
12102CHOL    R337032  12.205  17.769  21.802
12102CHOL    R437033  12.402  17.857  21.805
12102CHOL    R537034  12.231  17.853  21.937
12102CHOL    C137035  12.271  17.977  22.138
12102CHOL    C237036  12.310  18.102  22.339
12103CHOL   ROH37037   5.256   0.080   1.128
12103CHOL    R137038   5.198  -0.030   1.027
12103CHOL    R237039   5.090  -0.221   1.106
12103CHOL    R337040   5.133  -0.153   0.913
12103CHOL    R437041   5.040  -0.317   1.018
12103CHOL    R537042   5.075  -0.263   0.812
12103CHOL    C137043   4.989  -0.428   0.660
12103CHOL    C237044   4.902  -0.592   0.509
12104CHOL   ROH37045  16.199  -2.533  10.348
12104CHOL    R137046  16.272  -2.675  10.354
12104CHOL    R237047  16.502  -2.694  10.319
12104CHOL    R337048  16.354  -2.835  10.361
12104CHOL    R437049  16.566  -2.818  10.324
12104CHOL    R537050  16.427  -2.977  10.367
12104CHOL    C137051  16.536  -3.191  10.375
12104CHOL    C237052  16.646  -3.404  10.384
12105CHOL   ROH37053  -1.750  14.193  16.745
12105CHOL    R137054  -1.883  14.239  16.821
12105CHOL    R237055  -1.904  14.215  17.052
12105CHOL    R337056  -2.033  14.291  16.906
12105CHOL    R437057  -2.021  14.255  17.118
12105CHOL    R537058  -2.166  14.336  16.981
12105CHOL    C137059  -2.366  14.405  17.095
12105CHOL    C237060  -2.566  14.474  17.209
12106CHOL   ROH37061   3.234  16.817  -0.457
12106CHOL    R137062   3.158  16.889  -0.578
12106CHOL    R237063   3.270  17.039  -0.717
12106CHOL    R337064   3.073  16.971  -0.714
12106CHOL    R437065   3.204  17.103  -0.823
12106CHOL    R537066   2.997  17.043  -0.835
12106CHOL    C137067   2.883  17.151  -1.016
12106CHOL    C237068   2.769  17.260  -1.198
12107CHOL   ROH37069  16.677   3.323  20.246
12107CHOL    R137070  16.758   3.249  20.362
12107CHOL    R237071  16.965   3.150  20.321
12107CHOL    R337072  16.848   3.165  20.494
12107CHOL    R437073  17.035   3.086  20.423
12107CHOL    R537074  16.929   3.091  20.610
12107CHOL    C137075  17.050   2.980  20.785
12107CHOL    C237076  17.171   2.868  20.959
12108CHOL   ROH37077  -3.070  13.928   6.361
12108CHOL    R137078  -3.218  13.972   6.318
12108CHOL    R237079  -3.354  14.092   6.464
12108CHOL    R337080  -3.383  14.023   6.270
12108CHOL    R437081  -3.483  14.131   6.426
12108CHOL    R537082  -3.531  14.067   6.227
12108CHOL    C137083  -3.752  14.134   6.162
12108CHOL    C237084  -3.974  14.200   6.097
12109CHOL   ROH37085   7.212   3.349  -2.240
12109CHOL    R137086   7.185   3.276  -2.380
12109CHOL    R237087   7.289   3.073  -2.431
12109CHOL    R337088   7.155   3.193  -2.537
12109CHOL    R437089   7.266   3.009  -2.553
12109CHOL    R537090   7.129   3.120  -2.677
12109CHOL    C137091   7.088   3.010  -2.886
12109CHOL    C237092   7.048   2.900  -3.096
12110CHOL   ROH37093   7.680  22.193   3.322
12110CHOL    R137094   7.653  22.327   3.239
12110CHOL    R237095   7.752  22.529   3.302
12110CHOL    R337096   7.624  22.478   3.145
12110CHOL    R437097   7.728  22.646   3.229
12110CHOL    R537098   7.597  22.611   3.062
12110CHOL    C137099   7.557  22.812   2.936
12110CHOL    C237100   7.517  23.013   2.811
12111CHOL   ROH37101  12.019  20.626   0.956
12111CHOL    R137102  12.035  20.747   0.852
12111CHOL    R237103  12.148  20.717   0.650
12111CHOL    R337104  12.052  20.882   0.735
12111CHOL    R437105  12.162  20.823   0.559
12111CHOL    R537106  12.068  21.003   0.632
12111CHOL    C137107  12.092  21.184   0.476
12111CHOL    C237108  12.115  21.365   0.320
12112CHOL   ROH37109  -3.673   6.929  11.899
12112CHOL    R137110  -3.827   6.893  11.922
12112CHOL    R237111  -3.903   6.820  12.131
12112CHOL    R337112  -4.000   6.851  11.949
12112CHOL    R437113  -4.038   6.788  12.151
12112CHOL    R537114  -4.155   6.815  11.972
12112CHOL    C137115  -4.386   6.760  12.007
12112CHOL    C237116  -4.617   6.706  12.042
12113CHOL   ROH37117  -4.119  11.402   9.131
12113CHOL    R137118  -4.277  11.421   9.113
12113CHOL    R237119  -4.377  11.630   9.139
12113CHOL    R337120  -4.455  11.441   9.094
12113CHOL    R437121  -4.515  11.646   9.123
12113CHOL    R537122  -4.613  11.460   9.076
12113CHOL    C137123  -4.849  11.488   9.050
12113CHOL    C237124  -5.086  11.516   9.023
12114CHOL   ROH37125  -3.203   5.081  11.260
12114CHOL    R137126  -3.352   5.026  11.277
12114CHOL    R237127  -3.393   4.804  11.335
12114CHOL    R337128  -3.520   4.964  11.296
12114CHOL    R437129  -3.523   4.756  11.350
12114CHOL    R537130  -3.669   4.909  11.312
12114CHOL    C137131  -3.893   4.827  11.338
12114CHOL    C237132  -4.117   4.745  11.363
12115CHOL   ROH37133  -1.654   5.440  16.766
12115CHOL    R137134  -1.782   5.383  16.843
12115CHOL    R237135  -1.759   5.218  17.007
12115CHOL    R337136  -1.926   5.318  16.930
12115CHOL    R437137  -1.871   5.168  17.074
12115CHOL    R537138  -2.054   5.261  17.008
12115CHOL    C137139  -2.245   5.174  17.123
12115CHOL    C237140  -2.437   5.088  17.239
12116CHOL   ROH37141  20.001   0.231  10.080
12116CHOL    R137142  20.116   0.119  10.080
12116CHOL    R237143  20.129  -0.038   9.909
12116CHOL    R337144  20.245  -0.006  10.080
12116CHOL    R437145  20.230  -0.136   9.909
12116CHOL    R537146  20.360  -0.117  10.079
12116CHOL    C137147  20.532  -0.285  10.079
12116CHOL    C237148  20.704  -0.452  10.079
12117CHOL   ROH37149  -2.552   8.326  16.338
12117CHOL    R137150  -2.694   8.313  16.410
12117CHOL    R237151  -2.770   8.108  16.491
12117CHOL    R337152  -2.854   8.298  16.491
12117CHOL    R437153  -2.894   8.096  16.554
12117CHOL    R537154  -2.996   8.286  16.563
12117CHOL    C137155  -3.210   8.266  16.671
12117CHOL    C237156  -3.423   8.247  16.779
12118CHOL   ROH37157  23.481   9.064  13.330
12118CHOL    R137158  23.637   9.055  13.363
12118CHOL    R237159  23.784   8.941  13.222
12118CHOL    R337160  23.813   9.045  13.401
12118CHOL    R437161  23.921   8.933  13.251
12118CHOL    R537162  23.969   9.036  13.434
12118CHOL    C137163  24.204   9.022  13.484
12118CHOL    C237164  24.438   9.008  13.534
12119CHOL   ROH37165   4.637   0.885  19.324
12119CHOL    R137166   4.577   0.779  19.428
12119CHOL    R237167   4.559   0.830  19.654
12119CHOL    R337168   4.509   0.660  19.544
12119CHOL    R437169   4.506   0.737  19.745
12119CHOL    R537170   4.449   0.554  19.647
12119CHOL    C137171   4.359   0.394  19.803
12119CHOL    C237172   4.269   0.235  19.958
12120CHOL   ROH37173   9.311  -3.043   4.707
12120CHOL    R137174   9.301  -3.190   4.646
12120CHOL    R237175   9.485  -3.290   4.542
12120CHOL    R337176   9.290  -3.356   4.576
12120CHOL    R437177   9.477  -3.419   4.489
12120CHOL    R537178   9.281  -3.504   4.515
12120CHOL    C137179   9.266  -3.725   4.423
12120CHOL    C237180   9.251  -3.946   4.331
12121CHOL   ROH37181   9.964  -2.380  16.670
12121CHOL    R137182   9.963  -2.519  16.749
12121CHOL    R237183  10.152  -2.655  16.754
12121CHOL    R337184   9.962  -2.676  16.838
12121CHOL    R437185  10.151  -2.777  16.823
12121CHOL    R537186   9.961  -2.815  16.917
12121CHOL    C137187   9.959  -3.024  17.035
12121CHOL    C237188   9.957  -3.233  17.153
12122CHOL   ROH37189  -1.929  14.986   4.307
12122CHOL    R137190  -2.065  15.044   4.246
12122CHOL    R237191  -2.187  15.208   4.358
12122CHOL    R337192  -2.218  15.109   4.177
12122CHOL    R437193  -2.306  15.259   4.305
12122CHOL    R537194  -2.354  15.166   4.116
12122CHOL    C137195  -2.559  15.253   4.024
12122CHOL    C237196  -2.763  15.340   3.933
12123CHOL   ROH37197  11.114  22.868  15.462
12123CHOL    R137198  11.131  23.014  15.524
12123CHOL    R237199  11.332  23.132  15.501
12123CHOL    R337200  11.151  23.179  15.594
12123CHOL    R437201  11.347  23.260  15.556
12123CHOL    R537202  11.168  23.326  15.657
12123CHOL    C137203  11.194  23.545  15.750
12123CHOL    C237204  11.220  23.765  15.843
12124CHOL   ROH37205   9.913  18.263  -1.391
12124CHOL    R137206   9.915  18.362  -1.517
12124CHOL    R237207  10.099  18.497  -1.560
12124CHOL    R337208   9.917  18.473  -1.658
12124CHOL    R437209  10.101  18.584  -1.670
12124CHOL    R537210   9.918  18.572  -1.784
12124CHOL    C137211   9.921  18.720  -1.973
12124CHOL    C237212   9.924  18.869  -2.161
12125CHOL   ROH37213   3.135  22.260   9.590
12125CHOL    R137214   3.054  22.397   9.581
12125CHOL    R237215   3.158  22.594   9.510
12125CHOL    R337216   2.962  22.552   9.571
12125CHOL    R437217   3.086  22.714   9.502
12125CHOL    R537218   2.881  22.690   9.561
12125CHOL    C137219   2.759  22.896   9.548
12125CHOL    C237220   2.637  23.102   9.534
12126CHOL   ROH37221   8.661  19.109  -0.638
12126CHOL    R137222   8.650  19.214  -0.758
12126CHOL    R237223   8.791  19.400  -0.768
12126CHOL    R337224   8.637  19.333  -0.893
12126CHOL    R437225   8.781  19.492  -0.873
12126CHOL    R537226   8.626  19.438  -1.013
12126CHOL    C137227   8.609  19.596  -1.193
12126CHOL    C237228   8.592  19.754  -1.373
12127CHOL   ROH37229   9.528   3.728  22.479
12127CHOL    R137230   9.519   3.658  22.623
12127CHOL    R237231   9.670   3.711  22.792
12127CHOL    R337232   9.508   3.580  22.784
12127CHOL    R437233   9.662   3.650  22.917
12127CHOL    R537234   9.499   3.511  22.928
12127CHOL    C137235   9.484   3.406  23.144
12127CHOL    C237236   9.470   3.302  23.359
12128CHOL   ROH37237  12.613  18.910  -0.591
12128CHOL    R137238  12.636  19.009  -0.715
12128CHOL    R237239  12.790  19.183  -0.702
12128CHOL    R337240  12.662  19.120  -0.854
12128CHOL    R437241  12.811  19.270  -0.810
12128CHOL    R537242  12.686  19.219  -0.978
12128CHOL    C137243  12.720  19.367  -1.164
12128CHOL    C237244  12.755  19.515  -1.350
12129CHOL   ROH37245   9.454   5.660  23.248
12129CHOL    R137246   9.445   5.608  23.399
12129CHOL    R237247   9.518   5.395  23.458
12129CHOL    R337248   9.435   5.550  23.569
12129CHOL    R437249   9.510   5.350  23.590
12129CHOL    R537250   9.425   5.499  23.721
12129CHOL    C137251   9.412   5.421  23.947
12129CHOL    C237252   9.398   5.343  24.174
12130CHOL   ROH37253  20.733   5.742   2.063
12130CHOL    R137254  20.853   5.690   1.971
12130CHOL    R237255  20.873   5.758   1.749
12130CHOL    R337256  20.988   5.630   1.868
12130CHOL    R437257  20.978   5.712   1.669
12130CHOL    R537258  21.108   5.578   1.776
12130CHOL    C137259  21.288   5.499   1.638
12130CHOL    C237260  21.468   5.421   1.500
12131CHOL   ROH37261  11.966  15.025  22.801
12131CHOL    R137262  11.990  15.083  22.948
12131CHOL    R237263  12.106  14.959  23.108
12131CHOL    R337264  12.016  15.147  23.114
12131CHOL    R437265  12.127  15.010  23.237
12131CHOL    R537266  12.039  15.205  23.261
12131CHOL    C137267  12.075  15.291  23.483
12131CHOL    C237268  12.110  15.378  23.704
12132CHOL   ROH37269   1.399   0.420  15.855
12132CHOL    R137270   1.303   0.312  15.925
12132CHOL    R237271   1.244   0.333  16.149
12132CHOL    R337272   1.196   0.191  16.003
12132CHOL    R437273   1.160   0.239  16.210
12132CHOL    R537274   1.100   0.083  16.073
12132CHOL    C137275   0.957  -0.078  16.178
12132CHOL    C237276   0.814  -0.240  16.282
12133CHOL   ROH37277   9.594  -3.406   5.624
12133CHOL    R137278   9.586  -3.558   5.573
12133CHOL    R237279   9.779  -3.680   5.528
12133CHOL    R337280   9.576  -3.728   5.516
12133CHOL    R437281   9.771  -3.813   5.484
12133CHOL    R537282   9.567  -3.879   5.465
12133CHOL    C137283   9.555  -4.107   5.389
12133CHOL    C237284   9.542  -4.334   5.312
12134CHOL   ROH37285   7.183  18.506  20.734
12134CHOL    R137286   7.150  18.608  20.853
12134CHOL    R237287   7.153  18.838  20.818
12134CHOL    R337288   7.114  18.722  20.987
12134CHOL    R437289   7.124  18.927  20.923
12134CHOL    R537290   7.081  18.824  21.107
12134CHOL    C137291   7.032  18.976  21.285
12134CHOL    C237292   6.983  19.128  21.464
12135CHOL   ROH37293  16.309  16.992  20.272
12135CHOL    R137294  16.387  17.067  20.390
12135CHOL    R237295  16.507  17.263  20.349
12135CHOL    R337296  16.474  17.152  20.523
12135CHOL    R437297  16.575  17.329  20.452
12135CHOL    R537298  16.552  17.228  20.640
12135CHOL    C137299  16.668  17.341  20.817
12135CHOL    C237300  16.784  17.454  20.994
12136CHOL   ROH37301  23.697  12.212   8.911
12136CHOL    R137302  23.856  12.230   8.903
12136CHOL    R237303  23.965  12.244   8.697
12136CHOL    R337304  24.034  12.251   8.894
12136CHOL    R437305  24.104  12.260   8.691
12136CHOL    R537306  24.193  12.269   8.886
12136CHOL    C137307  24.431  12.297   8.875
12136CHOL    C237308  24.669  12.325   8.863
12137CHOL   ROH37309  22.150   3.636   7.597
12137CHOL    R137310  22.290   3.563   7.573
12137CHOL    R237311  22.343   3.471   7.365
12137CHOL    R337312  22.447   3.480   7.546
12137CHOL    R437313  22.465   3.407   7.344
12137CHOL    R537314  22.587   3.406   7.522
12137CHOL    C137315  22.797   3.296   7.485
12137CHOL    C237316  23.007   3.186   7.449
12138CHOL   ROH37317  11.494  18.993  20.589
12138CHOL    R137318  11.512  19.098  20.709
12138CHOL    R237319  11.719  19.129  20.811
12138CHOL    R337320  11.532  19.216  20.843
12138CHOL    R437321  11.734  19.221  20.916
12138CHOL    R537322  11.549  19.321  20.963
12138CHOL    C137323  11.576  19.478  21.143
12138CHOL    C237324  11.603  19.635  21.322
12139CHOL   ROH37325   4.698  22.648   6.612
12139CHOL    R137326   4.628  22.787   6.575
12139CHOL    R237327   4.554  22.933   6.741
12139CHOL    R337328   4.548  22.943   6.532
12139CHOL    R437329   4.493  23.054   6.708
12139CHOL    R537330   4.478  23.082   6.495
12139CHOL    C137331   4.372  23.290   6.439
12139CHOL    C237332   4.267  23.498   6.383
12140CHOL   ROH37333  20.181   3.290  16.836
12140CHOL    R137334  20.296   3.217  16.920
12140CHOL    R237335  20.430   3.337  17.069
12140CHOL    R337336  20.425   3.135  17.014
12140CHOL    R437337  20.531   3.273  17.142
12140CHOL    R537338  20.541   3.062  17.098
12140CHOL    C137339  20.713   2.953  17.224
12140CHOL    C237340  20.886   2.843  17.350
12141CHOL   ROH37341   5.476  -2.779  13.914
12141CHOL    R137342   5.425  -2.924  13.958
12141CHOL    R237343   5.561  -3.066  14.083
12141CHOL    R337344   5.368  -3.087  14.008
12141CHOL    R437345   5.516  -3.193  14.122
12141CHOL    R537346   5.317  -3.233  14.052
12141CHOL    C137347   5.240  -3.450  14.118
12141CHOL    C237348   5.163  -3.668  14.184
12142CHOL   ROH37349   3.021  21.590  13.805
12142CHOL    R137350   2.944  21.722  13.851
12142CHOL    R237351   3.018  21.847  14.033
12142CHOL    R337352   2.857  21.871  13.903
12142CHOL    R437353   2.950  21.963  14.074
12142CHOL    R537354   2.779  22.004  13.949
12142CHOL    C137355   2.664  22.202  14.017
12142CHOL    C237356   2.548  22.400  14.086
12143CHOL   ROH37357  18.641  19.854   5.161
12143CHOL    R137358  18.744  19.960   5.099
12143CHOL    R237359  18.915  19.891   4.955
12143CHOL    R337360  18.859  20.078   5.028
12143CHOL    R437361  19.004  19.983   4.901
12143CHOL    R537362  18.962  20.184   4.966
12143CHOL    C137363  19.116  20.342   4.872
12143CHOL    C237364  19.270  20.501   4.779
12144CHOL   ROH37365  -1.384   1.985  12.628
12144CHOL    R137366  -1.514   1.897  12.661
12144CHOL    R237367  -1.521   1.670  12.607
12144CHOL    R337368  -1.659   1.798  12.697
12144CHOL    R437369  -1.635   1.593  12.636
12144CHOL    R537370  -1.789   1.710  12.730
12144CHOL    C137371  -1.983   1.578  12.779
12144CHOL    C237372  -2.178   1.446  12.828
12145CHOL   ROH37373  19.516  10.410  -0.250
12145CHOL    R137374  19.629  10.415  -0.363
12145CHOL    R237375  19.692  10.617  -0.461
12145CHOL    R337376  19.757  10.421  -0.489
12145CHOL    R437377  19.791  10.621  -0.559
12145CHOL    R537378  19.871  10.426  -0.602
12145CHOL    C137379  20.041  10.433  -0.771
12145CHOL    C237380  20.211  10.440  -0.940
12146CHOL   ROH37381  15.233   7.197  -2.670
12146CHOL    R137382  15.296   7.166  -2.814
12146CHOL    R237383  15.168   7.186  -3.008
12146CHOL    R337384  15.367   7.132  -2.976
12146CHOL    R437385  15.223   7.159  -3.133
12146CHOL    R537386  15.430   7.101  -3.120
12146CHOL    C137387  15.525   7.056  -3.335
12146CHOL    C237388  15.619   7.010  -3.551
12147CHOL   ROH37389  17.769  21.402  12.243
12147CHOL    R137390  17.861  21.530  12.270
12147CHOL    R237391  18.082  21.538  12.195
12147CHOL    R337392  17.963  21.675  12.299
12147CHOL    R437393  18.162  21.650  12.219
12147CHOL    R537394  18.055  21.803  12.326
12147CHOL    C137395  18.192  21.996  12.366
12147CHOL    C237396  18.330  22.189  12.406
12148CHOL   ROH37397  13.428  16.396  -2.030
12148CHOL    R137398  13.466  16.468  -2.168
12148CHOL    R237399  13.689  16.500  -2.229
12148CHOL    R337400  13.509  16.550  -2.322
12148CHOL    R437401  13.722  16.563  -2.350
12148CHOL    R537402  13.546  16.623  -2.460
12148CHOL    C137403  13.603  16.731  -2.666
12148CHOL    C237404  13.660  16.840  -2.873
12149CHOL   ROH37405   9.526  -3.824   7.306
12149CHOL    R137406   9.518  -3.982   7.280
12149CHOL    R237407   9.710  -4.104   7.228
12149CHOL    R337408   9.509  -4.159   7.251
12149CHOL    R437409   9.703  -4.242   7.206
12149CHOL    R537410   9.501  -4.316   7.225
12149CHOL    C137411   9.490  -4.553   7.185
12149CHOL    C237412   9.478  -4.789   7.146
12150CHOL   ROH37413  18.322  17.362  18.386
12150CHOL    R137414  18.420  17.442  18.484
12150CHOL    R237415  18.647  17.391  18.496
12150CHOL    R337416  18.529  17.532  18.595
12150CHOL    R437417  18.732  17.461  18.582
12150CHOL    R537418  18.627  17.611  18.693
12150CHOL    C137419  18.773  17.731  18.841
12150CHOL    C237420  18.920  17.851  18.989
12151CHOL   ROH37421   6.308  20.317   1.166
12151CHOL    R137422   6.271  20.438   1.068
12151CHOL    R237423   6.335  20.657   1.117
12151CHOL    R337424   6.230  20.574   0.957
12151CHOL    R437425   6.303  20.762   1.031
12151CHOL    R537426   6.194  20.694   0.859
12151CHOL    C137427   6.139  20.876   0.711
12151CHOL    C237428   6.084  21.057   0.563
12152CHOL   ROH37429   4.386   3.310  21.075
12152CHOL    R137430   4.318   3.236  21.200
12152CHOL    R237431   4.283   3.349  21.401
12152CHOL    R337432   4.242   3.153  21.341
12152CHOL    R437433   4.223   3.285  21.510
12152CHOL    R537434   4.174   3.080  21.465
12152CHOL    C137435   4.073   2.969  21.653
12152CHOL    C237436   3.971   2.858  21.840
12153CHOL   ROH37437  20.833  14.705  17.451
12153CHOL    R137438  20.954  14.757  17.542
12153CHOL    R237439  21.029  14.978  17.525
12153CHOL    R337440  21.090  14.817  17.644
12153CHOL    R437441  21.135  15.024  17.605
12153CHOL    R537442  21.211  14.869  17.734
12153CHOL    C137443  21.392  14.948  17.871
12153CHOL    C237444  21.573  15.026  18.007
12154CHOL   ROH37445  18.896   1.568  16.653
12154CHOL    R137446  18.994   1.469  16.732
12154CHOL    R237447  19.225   1.503  16.730
12154CHOL    R337448  19.105   1.359  16.821
12154CHOL    R437449  19.311   1.417  16.799
12154CHOL    R537450  19.203   1.260  16.900
12154CHOL    C137451  19.350   1.112  17.019
12154CHOL    C237452  19.498   0.964  17.137
12155CHOL   ROH37453  23.783   9.854  11.167
12155CHOL    R137454  23.943   9.854  11.178
12155CHOL    R237455  24.074   9.968  11.023
12155CHOL    R337456  24.122   9.853  11.191
12155CHOL    R437457  24.214   9.968  11.033
12155CHOL    R537458  24.282   9.853  11.203
12155CHOL    C137459  24.521   9.852  11.220
12155CHOL    C237460  24.760   9.851  11.237
12156CHOL   ROH37461   4.164  15.474  -1.677
12156CHOL    R137462   4.098  15.536  -1.809
12156CHOL    R237463   3.975  15.734  -1.800
12156CHOL    R337464   4.025  15.606  -1.958
12156CHOL    R437465   3.917  15.788  -1.916
12156CHOL    R537466   3.959  15.667  -2.090
12156CHOL    C137467   3.861  15.760  -2.288
12156CHOL    C237468   3.762  15.853  -2.486
12157CHOL   ROH37469   7.749  21.843  17.219
12157CHOL    R137470   7.724  21.978  17.302
12157CHOL    R237471   7.901  22.119  17.357
12157CHOL    R337472   7.696  22.129  17.395
12157CHOL    R437473   7.880  22.237  17.429
12157CHOL    R537474   7.672  22.264  17.477
12157CHOL    C137475   7.634  22.466  17.602
12157CHOL    C237476   7.597  22.668  17.726
12158CHOL   ROH37477   8.914  -3.631   6.561
12158CHOL    R137478   8.901  -3.786   6.523
12158CHOL    R237479   9.090  -3.913   6.473
12158CHOL    R337480   8.886  -3.960   6.480
12158CHOL    R437481   9.079  -4.049   6.440
12158CHOL    R537482   8.873  -4.115   6.442
12158CHOL    C137483   8.854  -4.347   6.386
12158CHOL    C237484   8.835  -4.580   6.329
12159CHOL   ROH37485  21.899   2.859   8.891
12159CHOL    R137486  22.037   2.779   8.877
12159CHOL    R237487  22.237   2.869   8.955
12159CHOL    R337488  22.191   2.688   8.861
12159CHOL    R437489  22.358   2.799   8.942
12159CHOL    R537490  22.329   2.607   8.847
12159CHOL    C137491  22.535   2.487   8.826
12159CHOL    C237492  22.742   2.366   8.805
12160CHOL   ROH37493   5.193  13.402  22.737
12160CHOL    R137494   5.142  13.431  22.886
12160CHOL    R237495   5.212  13.621  23.001
12160CHOL    R337496   5.086  13.463  23.054
12160CHOL    R437497   5.168  13.646  23.132
12160CHOL    R537498   5.035  13.492  23.203
12160CHOL    C137499   4.959  13.535  23.426
12160CHOL    C237500   4.883  13.578  23.649
12161CHOL   ROH37501  -2.068   9.751  17.331
12161CHOL    R137502  -2.202   9.750  17.419
12161CHOL    R237503  -2.219   9.618  17.610
12161CHOL    R337504  -2.352   9.749  17.517
12161CHOL    R437505  -2.336   9.617  17.687
12161CHOL    R537506  -2.486   9.748  17.605
12161CHOL    C137507  -2.687   9.747  17.737
12161CHOL    C237508  -2.887   9.745  17.868
12162CHOL   ROH37509  16.696   8.579  22.170
12162CHOL    R137510  16.770   8.557  22.310
12162CHOL    R237511  16.947   8.406  22.330
12162CHOL    R337512  16.853   8.531  22.468
12162CHOL    R437513  17.011   8.386  22.453
12162CHOL    R537514  16.927   8.509  22.608
12162CHOL    C137515  17.038   8.475  22.818
12162CHOL    C237516  17.149   8.442  23.028
12163CHOL   ROH37517  13.541  21.944  16.302
12163CHOL    R137518  13.584  22.080  16.375
12163CHOL    R237519  13.742  22.078  16.547
12163CHOL    R337520  13.633  22.232  16.458
12163CHOL    R437521  13.780  22.197  16.611
12163CHOL    R537522  13.676  22.367  16.531
12163CHOL    C137523  13.741  22.571  16.641
12163CHOL    C237524  13.806  22.774  16.751
12164CHOL   ROH37525  -2.604   3.720  11.447
12164CHOL    R137526  -2.747   3.651  11.466
12164CHOL    R237527  -2.881   3.700  11.651
12164CHOL    R337528  -2.908   3.573  11.487
12164CHOL    R437529  -3.006   3.639  11.667
12164CHOL    R537530  -3.051   3.504  11.506
12164CHOL    C137531  -3.266   3.400  11.534
12164CHOL    C237532  -3.480   3.297  11.562
12165CHOL   ROH37533  23.694  11.247   7.944
12165CHOL    R137534  23.853  11.255   7.924
12165CHOL    R237535  23.948  11.420   7.790
12165CHOL    R337536  24.031  11.265   7.901
12165CHOL    R437537  24.087  11.428   7.772
12165CHOL    R537538  24.190  11.273   7.881
12165CHOL    C137539  24.427  11.285   7.851
12165CHOL    C237540  24.665  11.298   7.821
12166CHOL   ROH37541   8.491  23.633   6.768
12166CHOL    R137542   8.478  23.789   6.735
12166CHOL    R237543   8.547  23.874   6.529
12166CHOL    R337544   8.463  23.965   6.698
12166CHOL    R437545   8.535  24.011   6.500
12166CHOL    R537546   8.451  24.121   6.665
12166CHOL    C137547   8.431  24.355   6.615
12166CHOL    C237548   8.412  24.589   6.565
12167CHOL   ROH37549  23.590   9.776   7.174
12167CHOL    R137550  23.747   9.772   7.145
12167CHOL    R237551  23.856   9.569   7.104
12167CHOL    R337552  23.924   9.766   7.111
12167CHOL    R437553  23.993   9.565   7.079
12167CHOL    R537554  24.081   9.762   7.082
12167CHOL    C137555  24.317   9.755   7.038
12167CHOL    C237556  24.552   9.749   6.994
12168CHOL   ROH37557  16.992  21.965   8.910
12168CHOL    R137558  17.072  22.104   8.901
12168CHOL    R237559  17.296  22.109   8.839
12168CHOL    R337560  17.161  22.259   8.891
12168CHOL    R437561  17.366  22.230   8.831
12168CHOL    R537562  17.240  22.398   8.882
12168CHOL    C137563  17.360  22.606   8.869
12168CHOL    C237564  17.479  22.814   8.855
12169CHOL   ROH37565  16.783  -2.154   8.529
12169CHOL    R137566  16.859  -2.294   8.512
12169CHOL    R237567  17.067  -2.305   8.407
12169CHOL    R337568  16.946  -2.450   8.494
12169CHOL    R437569  17.134  -2.427   8.393
12169CHOL    R537570  17.022  -2.590   8.477
12169CHOL    C137571  17.137  -2.799   8.452
12169CHOL    C237572  17.251  -3.009   8.427
12170CHOL   ROH37573  13.674   2.153  -1.106
12170CHOL    R137574  13.711   2.060  -1.230
12170CHOL    R237575  13.898   2.104  -1.362
12170CHOL    R337576  13.753   1.954  -1.371
12170CHOL    R437577  13.931   2.023  -1.471
12170CHOL    R537578  13.790   1.861  -1.495
12170CHOL    C137579  13.846   1.721  -1.682
12170CHOL    C237580  13.902   1.581  -1.868
12171CHOL   ROH37581  11.946  -2.173   3.156
12171CHOL    R137582  11.968  -2.310   3.076
12171CHOL    R237583  12.047  -2.501   3.184
12171CHOL    R337584  11.993  -2.463   2.985
12171CHOL    R437585  12.066  -2.620   3.113
12171CHOL    R537586  12.015  -2.600   2.905
12171CHOL    C137587  12.047  -2.805   2.785
12171CHOL    C237588  12.080  -3.010   2.664
12172CHOL   ROH37589   5.859   4.480  -2.437
12172CHOL    R137590   5.812   4.418  -2.577
12172CHOL    R237591   5.869   4.200  -2.637
12172CHOL    R337592   5.760   4.348  -2.735
12172CHOL    R437593   5.828   4.146  -2.759
12172CHOL    R537594   5.713   4.287  -2.875
12172CHOL    C137595   5.643   4.194  -3.085
12172CHOL    C237596   5.573   4.101  -3.295
12173CHOL   ROH37597   0.197  20.183  10.501
12173CHOL    R137598   0.088  20.300  10.503
12173CHOL    R237599   0.106  20.478  10.653
12173CHOL    R337600  -0.035  20.432  10.506
12173CHOL    R437601   0.010  20.580  10.655
12173CHOL    R537602  -0.144  20.548  10.508
12173CHOL    C137603  -0.308  20.724  10.511
12173CHOL    C237604  -0.471  20.899  10.515
12174CHOL   ROH37605  17.093  21.868  12.066
12174CHOL    R137606  17.173  22.006  12.083
12174CHOL    R237607  17.370  22.045  11.965
12174CHOL    R337608  17.262  22.161  12.101
12174CHOL    R437609  17.440  22.166  11.980
12174CHOL    R537610  17.342  22.299  12.118
12174CHOL    C137611  17.462  22.505  12.143
12174CHOL    C237612  17.581  22.712  12.168
12175CHOL   ROH37613  10.220  23.159  14.907
12175CHOL    R137614  10.226  23.309  14.962
12175CHOL    R237615  10.363  23.365  15.142
12175CHOL    R337616  10.233  23.478  15.025
12175CHOL    R437617  10.368  23.496  15.191
12175CHOL    R537618  10.238  23.628  15.080
12175CHOL    C137619  10.247  23.852  15.163
12175CHOL    C237620  10.256  24.077  15.246
12176CHOL   ROH37621  13.358   3.525  21.976
12176CHOL    R137622  13.397   3.449  22.111
12176CHOL    R237623  13.610   3.360  22.141
12176CHOL    R337624  13.441   3.364  22.263
12176CHOL    R437625  13.645   3.293  22.259
12176CHOL    R537626  13.480   3.288  22.399
12176CHOL    C137627  13.539   3.174  22.601
12176CHOL    C237628  13.598   3.060  22.804
12177CHOL   ROH37629  23.275  14.120   9.184
12177CHOL    R137630  23.426  14.173   9.174
12177CHOL    R237631  23.547  14.155   8.976
12177CHOL    R337632  23.595  14.232   9.164
12177CHOL    R437633  23.678  14.202   8.967
12177CHOL    R537634  23.746  14.285   9.154
12177CHOL    C137635  23.972  14.364   9.140
12177CHOL    C237636  24.198  14.443   9.125
12178CHOL   ROH37637  11.606   1.750  -1.285
12178CHOL    R137638  11.626   1.657  -1.414
12178CHOL    R237639  11.819   1.675  -1.545
12178CHOL    R337640  11.650   1.553  -1.559
12178CHOL    R437641  11.837   1.594  -1.658
12178CHOL    R537642  11.670   1.460  -1.688
12178CHOL    C137643  11.701   1.322  -1.881
12178CHOL    C237644  11.731   1.183  -2.074
12179CHOL   ROH37645   7.782  22.779  15.398
12179CHOL    R137646   7.757  22.924  15.460
12179CHOL    R237647   7.791  23.117  15.333
12179CHOL    R337648   7.728  23.088  15.530
12179CHOL    R437649   7.769  23.244  15.388
12179CHOL    R537650   7.703  23.233  15.592
12179CHOL    C137651   7.664  23.451  15.686
12179CHOL    C237652   7.626  23.669  15.779
12180CHOL   ROH37653  14.872  22.546  13.767
12180CHOL    R137654  14.926  22.689  13.814
12180CHOL    R237655  15.139  22.763  13.754
12180CHOL    R337656  14.986  22.850  13.867
12180CHOL    R437657  15.186  22.889  13.795
12180CHOL    R537658  15.040  22.994  13.914
12180CHOL    C137659  15.121  23.208  13.985
12180CHOL    C237660  15.201  23.423  14.055
12181CHOL   ROH37661  18.844   9.567  -0.870
12181CHOL    R137662  18.946   9.563  -0.993
12181CHOL    R237663  19.012   9.759  -1.100
12181CHOL    R337664  19.061   9.559  -1.132
12181CHOL    R437665  19.101   9.756  -1.208
12181CHOL    R537666  19.162   9.555  -1.255
12181CHOL    C137667  19.315   9.549  -1.440
12181CHOL    C237668  19.468   9.543  -1.625
12182CHOL   ROH37669   6.656  -2.488   4.347
12182CHOL    R137670   6.621  -2.631   4.284
12182CHOL    R237671   6.785  -2.795   4.259
12182CHOL    R337672   6.582  -2.792   4.213
12182CHOL    R437673   6.754  -2.920   4.204
12182CHOL    R537674   6.547  -2.935   4.150
12182CHOL    C137675   6.494  -3.149   4.055
12182CHOL    C237676   6.441  -3.363   3.961
12183CHOL   ROH37677  -2.307  10.610  16.929
12183CHOL    R137678  -2.442  10.617  17.014
12183CHOL    R237679  -2.512  10.436  17.144
12183CHOL    R337680  -2.594  10.625  17.110
12183CHOL    R437681  -2.630  10.442  17.219
12183CHOL    R537682  -2.730  10.632  17.196
12183CHOL    C137683  -2.932  10.643  17.323
12183CHOL    C237684  -3.135  10.653  17.451
12184CHOL   ROH37685  10.016  23.820  12.321
12184CHOL    R137686  10.020  23.978  12.347
12184CHOL    R237687  10.192  24.110  12.260
12184CHOL    R337688  10.025  24.155  12.377
12184CHOL    R437689  10.196  24.248  12.284
12184CHOL    R537690  10.029  24.313  12.404
12184CHOL    C137691  10.035  24.550  12.443
12184CHOL    C237692  10.041  24.786  12.483
12185CHOL   ROH37693  23.130   6.272   7.163
12185CHOL    R137694  23.282   6.234   7.131
12185CHOL    R237695  23.361   6.230   6.911
12185CHOL    R337696  23.453   6.191   7.095
12185CHOL    R437697  23.494   6.196   6.883
12185CHOL    R537698  23.605   6.153   7.062
12185CHOL    C137699  23.833   6.095   7.014
12185CHOL    C237700  24.061   6.038   6.966
12186CHOL   ROH37701  16.672   0.696   1.855
12186CHOL    R137702  16.748   0.588   1.764
12186CHOL    R237703  16.785   0.628   1.537
12186CHOL    R337704  16.834   0.468   1.662
12186CHOL    R437705  16.852   0.534   1.458
12186CHOL    R537706  16.910   0.360   1.571
12186CHOL    C137707  17.024   0.199   1.435
12186CHOL    C237708  17.138   0.037   1.299
12187CHOL   ROH37709   7.828  -0.014   0.278
12187CHOL    R137710   7.803  -0.128   0.169
12187CHOL    R237711   7.815  -0.354   0.226
12187CHOL    R337712   7.776  -0.257   0.046
12187CHOL    R437713   7.794  -0.454   0.131
12187CHOL    R537714   7.751  -0.371  -0.063
12187CHOL    C137715   7.714  -0.542  -0.227
12187CHOL    C237716   7.677  -0.714  -0.391
12188CHOL   ROH37717  -1.514  17.953  12.032
12188CHOL    R137718  -1.642  18.046  12.059
12188CHOL    R237719  -1.634  18.275  12.017
12188CHOL    R337720  -1.785  18.151  12.089
12188CHOL    R437721  -1.745  18.357  12.041
12188CHOL    R537722  -1.912  18.244  12.115
12188CHOL    C137723  -2.104  18.383  12.156
12188CHOL    C237724  -2.295  18.522  12.196
12189CHOL   ROH37725  18.573  18.612   3.227
12189CHOL    R137726  18.671  18.712   3.149
12189CHOL    R237727  18.727  18.676   2.926
12189CHOL    R337728  18.780  18.825   3.062
12189CHOL    R437729  18.812  18.764   2.858
12189CHOL    R537730  18.878  18.925   2.984
12189CHOL    C137731  19.024  19.075   2.868
12189CHOL    C237732  19.171  19.225   2.752
12190CHOL   ROH37733  22.183   4.404   6.038
12190CHOL    R137734  22.324   4.339   6.000
12190CHOL    R237735  22.519   4.467   6.000
12190CHOL    R337736  22.483   4.266   5.956
12190CHOL    R437737  22.642   4.411   5.966
12190CHOL    R537738  22.624   4.201   5.918
12190CHOL    C137739  22.836   4.104   5.860
12190CHOL    C237740  23.047   4.007   5.803
12191CHOL   ROH37741  15.099  21.097   3.127
12191CHOL    R137742  15.161  21.223   3.050
12191CHOL    R237743  15.092  21.276   2.833
12191CHOL    R337744  15.231  21.364   2.962
12191CHOL    R437745  15.146  21.386   2.766
12191CHOL    R537746  15.293  21.489   2.885
12191CHOL    C137747  15.385  21.678   2.769
12191CHOL    C237748  15.478  21.866   2.653
12192CHOL   ROH37749   4.024   0.833   1.145
12192CHOL    R137750   3.952   0.732   1.044
12192CHOL    R237751   4.072   0.630   0.871
12192CHOL    R337752   3.872   0.619   0.929
12192CHOL    R437753   4.009   0.542   0.783
12192CHOL    R537754   3.800   0.518   0.828
12192CHOL    C137755   3.692   0.367   0.676
12192CHOL    C237756   3.585   0.216   0.524
12193CHOL   ROH37757   4.901  19.164  19.325
12193CHOL    R137758   4.849  19.270  19.433
12193CHOL    R237759   4.843  19.217  19.660
12193CHOL    R337760   4.790  19.389  19.554
12193CHOL    R437761   4.797  19.310  19.754
12193CHOL    R537762   4.738  19.495  19.662
12193CHOL    C137763   4.660  19.655  19.824
12193CHOL    C237764   4.582  19.814  19.986
12194CHOL   ROH37765   0.999  11.925  20.620
12194CHOL    R137766   0.900  11.952  20.743
12194CHOL    R237767   0.977  11.943  20.963
12194CHOL    R337768   0.789  11.982  20.881
12194CHOL    R437769   0.890  11.966  21.071
12194CHOL    R537770   0.690  12.009  21.004
12194CHOL    C137771   0.541  12.049  21.188
12194CHOL    C237772   0.392  12.089  21.373
12195CHOL   ROH37773  -1.396   9.179   1.603
12195CHOL    R137774  -1.520   9.169   1.502
12195CHOL    R237775  -1.608   8.962   1.441
12195CHOL    R337776  -1.659   9.157   1.389
12195CHOL    R437777  -1.716   8.953   1.353
12195CHOL    R537778  -1.783   9.147   1.288
12195CHOL    C137779  -1.969   9.132   1.137
12195CHOL    C237780  -2.155   9.116   0.986
12196CHOL   ROH37781  -3.065  14.201   6.643
12196CHOL    R137782  -3.212  14.248   6.602
12196CHOL    R237783  -3.346  14.366   6.752
12196CHOL    R337784  -3.378  14.301   6.556
12196CHOL    R437785  -3.475  14.407   6.716
12196CHOL    R537786  -3.525  14.348   6.515
12196CHOL    C137787  -3.747  14.419   6.454
12196CHOL    C237788  -3.968  14.489   6.392
12197CHOL   ROH37789  17.817  18.679   2.420
12197CHOL    R137790  17.909  18.780   2.337
12197CHOL    R237791  17.963  18.738   2.114
12197CHOL    R337792  18.012  18.895   2.244
12197CHOL    R437793  18.043  18.827   2.041
12197CHOL    R537794  18.103  18.996   2.161
12197CHOL    C137795  18.241  19.148   2.036
12197CHOL    C237796  18.379  19.300   1.911
12198CHOL   ROH37797   7.428  11.326  23.581
12198CHOL    R137798   7.396  11.341  23.737
12198CHOL    R237799   7.480  11.189  23.893
12198CHOL    R337800   7.359  11.358  23.913
12198CHOL    R437801   7.451  11.202  24.029
12198CHOL    R537802   7.326  11.374  24.069
12198CHOL    C137803   7.278  11.396  24.303
12198CHOL    C237804   7.229  11.419  24.537
12199CHOL   ROH37805   7.863   0.766  -0.490
12199CHOL    R137806   7.838   0.659  -0.606
12199CHOL    R237807   7.920   0.695  -0.822
12199CHOL    R337808   7.811   0.539  -0.737
12199CHOL    R437809   7.899   0.601  -0.924
12199CHOL    R537810   7.786   0.431  -0.854
12199CHOL    C137811   7.749   0.271  -1.028
12199CHOL    C237812   7.712   0.110  -1.202
12200CHOL   ROH37813   5.132   4.198  -2.024
12200CHOL    R137814   5.075   4.130  -2.157
12200CHOL    R237815   5.203   3.976  -2.277
12200CHOL    R337816   5.012   4.054  -2.308
12200CHOL    R437817   5.154   3.917  -2.394
12200CHOL    R537818   4.955   3.986  -2.441
12200CHOL    C137819   4.870   3.884  -2.641
12200CHOL    C237820   4.785   3.782  -2.841
12201CHOL   ROH37821  22.347  10.815   3.578
12201CHOL    R137822  22.488  10.824   3.503
12201CHOL    R237823  22.575  11.029   3.435
12201CHOL    R337824  22.647  10.834   3.419
12201CHOL    R437825  22.698  11.037   3.369
12201CHOL    R537826  22.788  10.843   3.344
12201CHOL    C137827  23.000  10.856   3.232
12201CHOL    C237828  23.211  10.870   3.120
12202CHOL   ROH37829  15.876  -1.918  14.360
12202CHOL    R137830  15.943  -2.055  14.408
12202CHOL    R237831  16.058  -2.067  14.611
12202CHOL    R337832  16.018  -2.209  14.463
12202CHOL    R437833  16.117  -2.187  14.653
12202CHOL    R537834  16.086  -2.346  14.512
12202CHOL    C137835  16.186  -2.551  14.584
12202CHOL    C237836  16.287  -2.757  14.657
12203CHOL   ROH37837   3.843   3.518  -0.948
12203CHOL    R137838   3.770   3.440  -1.067
12203CHOL    R237839   3.599   3.287  -1.024
12203CHOL    R337840   3.689   3.351  -1.201
12203CHOL    R437841   3.536   3.219  -1.128
12203CHOL    R537842   3.616   3.273  -1.320
12203CHOL    C137843   3.507   3.155  -1.499
12203CHOL    C237844   3.398   3.038  -1.677
12204CHOL   ROH37845   1.458   4.450   0.188
12204CHOL    R137846   1.366   4.382   0.076
12204CHOL    R237847   1.148   4.315   0.125
12204CHOL    R337848   1.262   4.306  -0.050
12204CHOL    R437849   1.067   4.256   0.027
12204CHOL    R537850   1.170   4.239  -0.162
12204CHOL    C137851   1.031   4.137  -0.329
12204CHOL    C237852   0.893   4.035  -0.497
12205CHOL   ROH37853  22.824   4.760  11.465
12205CHOL    R137854  22.972   4.702  11.483
12205CHOL    R237855  23.117   4.682  11.302
12205CHOL    R337856  23.139   4.637  11.504
12205CHOL    R437857  23.246   4.631  11.318
12205CHOL    R537858  23.287   4.579  11.522
12205CHOL    C137859  23.509   4.491  11.550
12205CHOL    C237860  23.731   4.404  11.578
12206CHOL   ROH37861   3.988  20.459  17.274
12206CHOL    R137862   3.924  20.579  17.358
12206CHOL    R237863   4.030  20.787  17.370
12206CHOL    R337864   3.852  20.715  17.452
12206CHOL    R437865   3.975  20.892  17.443
12206CHOL    R537866   3.789  20.835  17.536
12206CHOL    C137867   3.693  21.015  17.662
12206CHOL    C237868   3.597  21.196  17.788
12207CHOL   ROH37869  15.430  22.706   8.213
12207CHOL    R137870  15.496  22.850   8.196
12207CHOL    R237871  15.711  22.874   8.108
12207CHOL    R337872  15.571  23.013   8.176
12207CHOL    R437873  15.769  23.000   8.093
12207CHOL    R537874  15.637  23.157   8.158
12207CHOL    C137875  15.736  23.374   8.132
12207CHOL    C237876  15.836  23.591   8.106
12208CHOL   ROH37877  22.226  16.205  12.348
12208CHOL    R137878  22.366  16.277  12.375
12208CHOL    R237879  22.466  16.411  12.212
12208CHOL    R337880  22.524  16.358  12.406
12208CHOL    R437881  22.589  16.473  12.236
12208CHOL    R537882  22.665  16.430  12.433
12208CHOL    C137883  22.875  16.537  12.474
12208CHOL    C237884  23.085  16.645  12.515
12209CHOL   ROH37885  11.542  19.015  -0.669
12209CHOL    R137886  11.556  19.117  -0.791
12209CHOL    R237887  11.719  19.285  -0.789
12209CHOL    R337888  11.572  19.232  -0.929
12209CHOL    R437889  11.731  19.374  -0.896
12209CHOL    R537890  11.587  19.334  -1.051
12209CHOL    C137891  11.608  19.488  -1.234
12209CHOL    C237892  11.629  19.641  -1.418
12210CHOL   ROH37893   3.502   3.576  20.680
12210CHOL    R137894   3.420   3.507  20.799
12210CHOL    R237895   3.530   3.424  20.988
12210CHOL    R337896   3.328   3.430  20.933
12210CHOL    R437897   3.458   3.364  21.092
12210CHOL    R537898   3.247   3.362  21.053
12210CHOL    C137899   3.124   3.259  21.231
12210CHOL    C237900   3.001   3.156  21.410
12211CHOL   ROH37901  20.700  18.466  12.591
12211CHOL    R137902  20.821  18.566  12.624
12211CHOL    R237903  20.837  18.774  12.519
12211CHOL    R337904  20.956  18.678  12.661
12211CHOL    R437905  20.942  18.861  12.548
12211CHOL    R537906  21.077  18.778  12.694
12211CHOL    C137907  21.258  18.928  12.744
12211CHOL    C237908  21.439  19.078  12.794
12212CHOL   ROH37909  11.710  17.581  -1.724
12212CHOL    R137910  11.732  17.667  -1.857
12212CHOL    R237911  11.927  17.790  -1.890
12212CHOL    R337912  11.756  17.763  -2.008
12212CHOL    R437913  11.946  17.865  -2.007
12212CHOL    R537914  11.778  17.848  -2.141
12212CHOL    C137915  11.811  17.977  -2.341
12212CHOL    C237916  11.843  18.105  -2.541
12213CHOL   ROH37917   3.185   2.710   0.053
12213CHOL    R137918   3.108   2.625  -0.058
12213CHOL    R237919   2.905   2.519  -0.010
12213CHOL    R337920   3.021   2.529  -0.184
12213CHOL    R437921   2.838   2.445  -0.108
12213CHOL    R537922   2.944   2.443  -0.295
12213CHOL    C137923   2.828   2.316  -0.462
12213CHOL    C237924   2.713   2.188  -0.629
12214CHOL   ROH37925  21.652  11.638   2.535
12214CHOL    R137926  21.785  11.654   2.447
12214CHOL    R237927  21.818  11.842   2.313
12214CHOL    R337928  21.934  11.672   2.348
12214CHOL    R437929  21.934  11.856   2.236
12214CHOL    R537930  22.067  11.688   2.259
12214CHOL    C137931  22.265  11.712   2.127
12214CHOL    C237932  22.464  11.736   1.995
12215CHOL   ROH37933  -4.057   8.493   8.254
12215CHOL    R137934  -4.215   8.480   8.230
12215CHOL    R237935  -4.364   8.626   8.332
12215CHOL    R337936  -4.392   8.465   8.203
12215CHOL    R437937  -4.502   8.615   8.311
12215CHOL    R537938  -4.550   8.452   8.179
12215CHOL    C137939  -4.786   8.432   8.142
12215CHOL    C237940  -5.022   8.412   8.106
12216CHOL   ROH37941   2.823  18.938  18.219
12216CHOL    R137942   2.744  19.038  18.315
12216CHOL    R237943   2.773  19.030  18.547
12216CHOL    R337944   2.655  19.151  18.424
12216CHOL    R437945   2.704  19.117  18.631
12216CHOL    R537946   2.576  19.251  18.520
12216CHOL    C137947   2.457  19.401  18.665
12216CHOL    C237948   2.338  19.551  18.810
12217CHOL   ROH37949  13.961  20.527  18.245
12217CHOL    R137950  14.005  20.649  18.339
12217CHOL    R237951  14.095  20.611  18.551
12217CHOL    R337952  14.054  20.786  18.445
12217CHOL    R437953  14.134  20.718  18.633
12217CHOL    R537954  14.098  20.908  18.538
12217CHOL    C137955  14.164  21.091  18.679
12217CHOL    C237956  14.230  21.274  18.820
12218CHOL   ROH37957  10.471  15.193  -3.082
12218CHOL    R137958  10.481  15.252  -3.230
12218CHOL    R237959  10.549  15.118  -3.409
12218CHOL    R337960  10.491  15.319  -3.397
12218CHOL    R437961  10.557  15.170  -3.539
12218CHOL    R537962  10.501  15.378  -3.545
12218CHOL    C137963  10.515  15.467  -3.768
12218CHOL    C237964  10.530  15.556  -3.990
12219CHOL   ROH37965  10.519   6.603  23.560
12219CHOL    R137966  10.523   6.561  23.714
12219CHOL    R237967  10.666   6.392  23.789
12219CHOL    R337968  10.529   6.514  23.888
12219CHOL    R437969  10.670   6.355  23.924
12219CHOL    R537970  10.533   6.472  24.042
12219CHOL    C137971  10.540   6.409  24.274
12219CHOL    C237972  10.546   6.346  24.506
12220CHOL   ROH37973  -2.810  12.405  15.606
12220CHOL    R137974  -2.953  12.433  15.672
12220CHOL    R237975  -3.027  12.309  15.855
12220CHOL    R337976  -3.114  12.465  15.746
12220CHOL    R437977  -3.152  12.334  15.913
12220CHOL    R537978  -3.257  12.493  15.812
12220CHOL    C137979  -3.471  12.536  15.912
12220CHOL    C237980  -3.685  12.578  16.011
12221CHOL   ROH37981   2.588  21.851   8.862
12221CHOL    R137982   2.502  21.985   8.845
12221CHOL    R237983   2.606  22.189   8.800
12221CHOL    R337984   2.406  22.136   8.825
12221CHOL    R437985   2.531  22.306   8.785
12221CHOL    R537986   2.320  22.269   8.808
12221CHOL    C137987   2.191  22.470   8.782
12221CHOL    C237988   2.063  22.671   8.756
12222CHOL   ROH37989   4.021  15.927  21.264
12222CHOL    R137990   3.946  15.993  21.389
12222CHOL    R237991   3.988  15.919  21.606
12222CHOL    R337992   3.863  16.067  21.530
12222CHOL    R437993   3.923  15.977  21.716
12222CHOL    R537994   3.788  16.134  21.655
12222CHOL    C137995   3.676  16.233  21.843
12222CHOL    C237996   3.564  16.332  22.030
12223CHOL   ROH37997   9.603  -3.680   6.575
12223CHOL    R137998   9.595  -3.835   6.538
12223CHOL    R237999   9.788  -3.957   6.488
12223CHOL    R338000   9.586  -4.010   6.496
12223CHOL    R438001   9.781  -4.093   6.456
12223CHOL    R538002   9.579  -4.166   6.458
12223CHOL    C138003   9.567  -4.399   6.403
12223CHOL    C238004   9.555  -4.632   6.347
12224CHOL   ROH38005   2.285  18.119   1.249
12224CHOL    R138006   2.198  18.213   1.153
12224CHOL    R238007   2.301  18.350   0.994
12224CHOL    R338008   2.100  18.319   1.045
12224CHOL    R438009   2.225  18.432   0.910
12224CHOL    R538010   2.013  18.413   0.949
12224CHOL    C138011   1.883  18.553   0.805
12224CHOL    C238012   1.753  18.694   0.661
12225CHOL   ROH38013  14.872  22.743   7.017
12225CHOL    R138014  14.929  22.889   6.984
12225CHOL    R238015  15.098  22.918   6.825
12225CHOL    R338016  14.993  23.052   6.946
12225CHOL    R438017  15.148  23.045   6.796
12225CHOL    R538018  15.050  23.198   6.913
12225CHOL    C138019  15.136  23.416   6.862
12225CHOL    C238020  15.222  23.635   6.812
12226CHOL   ROH38021  20.482   5.022  17.620
12226CHOL    R138022  20.603   4.970  17.711
12226CHOL    R238023  20.713   4.770  17.661
12226CHOL    R338024  20.739   4.912  17.812
12226CHOL    R438025  20.819   4.725  17.740
12226CHOL    R538026  20.860   4.860  17.903
12226CHOL    C138027  21.042   4.782  18.039
12226CHOL    C238028  21.224   4.704  18.175
12227CHOL   ROH38029  11.890  23.085  14.612
12227CHOL    R138030  11.914  23.235  14.663
12227CHOL    R238031  12.128  23.328  14.666
12227CHOL    R338032  11.941  23.403  14.720
12227CHOL    R438033  12.149  23.459  14.710
12227CHOL    R538034  11.965  23.553  14.771
12227CHOL    C138035  12.001  23.778  14.847
12227CHOL    C238036  12.037  24.002  14.924
12228CHOL   ROH38037  13.326  22.850   5.723
12228CHOL    R138038  13.365  22.997   5.672
12228CHOL    R238039  13.586  23.070   5.675
12228CHOL    R338040  13.408  23.162   5.615
12228CHOL    R438041  13.620  23.199   5.630
12228CHOL    R538042  13.446  23.308   5.565
12228CHOL    C138043  13.504  23.529   5.488
12228CHOL    C238044  13.562  23.749   5.412
12229CHOL   ROH38045  22.328   5.543  14.687
12229CHOL    R138046  22.471   5.497  14.742
12229CHOL    R238047  22.657   5.637  14.721
12229CHOL    R338048  22.633   5.446  14.803
12229CHOL    R438049  22.783   5.596  14.769
12229CHOL    R538050  22.776   5.400  14.857
12229CHOL    C138051  22.991   5.331  14.939
12229CHOL    C238052  23.206   5.263  15.021
12230CHOL   ROH38053   2.888  20.834  15.476
12230CHOL    R138054   2.810  20.961  15.535
12230CHOL    R238055   2.867  21.178  15.471
12230CHOL    R338056   2.722  21.103  15.601
12230CHOL    R438057   2.799  21.288  15.523
12230CHOL    R538058   2.645  21.230  15.661
12230CHOL    C138059   2.528  21.420  15.749
12230CHOL    C238060   2.411  21.610  15.838
12231CHOL   ROH38061  11.027  23.405   5.982
12231CHOL    R138062  11.046  23.557   5.936
12231CHOL    R238063  11.181  23.703   6.059
12231CHOL    R338064  11.068  23.728   5.885
12231CHOL    R438065  11.198  23.836   6.019
12231CHOL    R538066  11.087  23.880   5.839
12231CHOL    C138067  11.116  24.109   5.771
12231CHOL    C238068  11.145  24.337   5.703
12232CHOL   ROH38069   7.307  -3.717  11.642
12232CHOL    R138070   7.280  -3.874  11.660
12232CHOL    R238071   7.340  -3.984  11.856
12232CHOL    R338072   7.251  -4.050  11.680
12232CHOL    R438073   7.316  -4.121  11.872
12232CHOL    R538074   7.224  -4.207  11.698
12232CHOL    C138075   7.184  -4.442  11.724
12232CHOL    C238076   7.144  -4.677  11.751
12233CHOL   ROH38077   6.161  11.942  23.223
12233CHOL    R138078   6.121  11.960  23.377
12233CHOL    R238079   6.285  11.961  23.543
12233CHOL    R338080   6.077  11.980  23.550
12233CHOL    R438081   6.250  11.977  23.678
12233CHOL    R538082   6.037  11.998  23.704
12233CHOL    C138083   5.977  12.025  23.935
12233CHOL    C238084   5.918  12.052  24.166
12234CHOL   ROH38085  -1.636   9.447   1.885
12234CHOL    R138086  -1.764   9.439   1.789
12234CHOL    R238087  -1.857   9.234   1.730
12234CHOL    R338088  -1.907   9.431   1.681
12234CHOL    R438089  -1.969   9.227   1.646
12234CHOL    R538090  -2.035   9.423   1.584
12234CHOL    C138091  -2.227   9.411   1.440
12234CHOL    C238092  -2.418   9.400   1.296
12235CHOL   ROH38093  12.697   0.906  -0.392
12235CHOL    R138094  12.730   0.802  -0.509
12235CHOL    R238095  12.905   0.842  -0.658
12235CHOL    R338096  12.767   0.686  -0.642
12235CHOL    R438097  12.934   0.751  -0.761
12235CHOL    R538098  12.800   0.582  -0.759
12235CHOL    C138099  12.849   0.427  -0.935
12235CHOL    C238100  12.898   0.272  -1.111
12236CHOL   ROH38101  -1.713  11.894   2.079
12236CHOL    R138102  -1.845  11.910   1.989
12236CHOL    R238103  -1.995  11.733   1.966
12236CHOL    R338104  -1.993  11.927   1.889
12236CHOL    R438105  -2.111  11.747   1.887
12236CHOL    R538106  -2.125  11.943   1.799
12236CHOL    C138107  -2.322  11.967   1.665
12236CHOL    C238108  -2.520  11.990   1.530
12237CHOL   ROH38109   4.743   0.417   1.079
12237CHOL    R138110   4.679   0.311   0.978
12237CHOL    R238111   4.577   0.116   1.057
12237CHOL    R338112   4.606   0.192   0.864
12237CHOL    R438113   4.521   0.024   0.968
12237CHOL    R538114   4.541   0.086   0.763
12237CHOL    C138115   4.445  -0.073   0.611
12237CHOL    C238116   4.348  -0.232   0.460
12238CHOL   ROH38117   3.841  12.491  22.376
12238CHOL    R138118   3.777  12.518  22.520
12238CHOL    R238119   3.833  12.709  22.642
12238CHOL    R338120   3.704  12.549  22.682
12238CHOL    R438121   3.776  12.733  22.768
12238CHOL    R538122   3.640  12.576  22.826
12238CHOL    C138123   3.544  12.617  23.042
12238CHOL    C238124   3.447  12.658  23.258
12239CHOL   ROH38125  15.163  12.583  -2.852
12239CHOL    R138126  15.223  12.610  -2.998
12239CHOL    R238127  15.167  12.473  -3.178
12239CHOL    R338128  15.291  12.640  -3.162
12239CHOL    R438129  15.220  12.496  -3.305
12239CHOL    R538130  15.351  12.667  -3.308
12239CHOL    C138131  15.441  12.707  -3.526
12239CHOL    C238132  15.531  12.748  -3.745
12240CHOL   ROH38133   6.809  23.042   5.517
12240CHOL    R138134   6.778  23.190   5.466
12240CHOL    R238135   6.878  23.274   5.272
12240CHOL    R338136   6.744  23.358   5.409
12240CHOL    R438137   6.851  23.404   5.227
12240CHOL    R538138   6.713  23.506   5.358
12240CHOL    C138139   6.667  23.729   5.281
12240CHOL    C238140   6.621  23.951   5.204
12241CHOL   ROH38141  14.128  -2.524  14.659
12241CHOL    R138142  14.177  -2.667  14.712
12241CHOL    R238143  14.344  -2.785  14.600
12241CHOL    R338144  14.232  -2.828  14.772
12241CHOL    R438145  14.387  -2.910  14.647
12241CHOL    R538146  14.281  -2.971  14.824
12241CHOL    C138147  14.354  -3.185  14.904
12241CHOL    C238148  14.427  -3.399  14.983
12242CHOL   ROH38149   8.108  17.771  -1.669
12242CHOL    R138150   8.092  17.863  -1.799
12242CHOL    R238151   8.267  17.884  -1.953
12242CHOL    R338152   8.075  17.967  -1.945
12242CHOL    R438153   8.253  17.965  -2.066
12242CHOL    R538154   8.059  18.059  -2.075
12242CHOL    C138155   8.036  18.197  -2.270
12242CHOL    C238156   8.013  18.335  -2.465
12243CHOL   ROH38157  13.149  22.808   5.474
12243CHOL    R138158  13.187  22.954   5.422
12243CHOL    R238159  13.367  23.071   5.512
12243CHOL    R338160  13.229  23.119   5.363
12243CHOL    R438161  13.401  23.199   5.466
12243CHOL    R538162  13.267  23.265   5.311
12243CHOL    C138163  13.324  23.485   5.233
12243CHOL    C238164  13.380  23.705   5.155
12244CHOL   ROH38165  -0.836  16.951  15.825
12244CHOL    R138166  -0.957  17.031  15.892
12244CHOL    R238167  -0.961  17.264  15.895
12244CHOL    R338168  -1.094  17.120  15.968
12244CHOL    R438169  -1.067  17.334  15.954
12244CHOL    R538170  -1.216  17.200  16.035
12244CHOL    C138171  -1.398  17.320  16.137
12244CHOL    C238172  -1.580  17.439  16.238
12245CHOL   ROH38173   4.737   4.979  -2.219
12245CHOL    R138174   4.677   4.921  -2.356
12245CHOL    R238175   4.806   4.783  -2.493
12245CHOL    R338176   4.611   4.856  -2.509
12245CHOL    R438177   4.754   4.732  -2.613
12245CHOL    R538178   4.551   4.798  -2.646
12245CHOL    C138179   4.462   4.710  -2.851
12245CHOL    C238180   4.372   4.623  -3.056
12246CHOL   ROH38181  16.858   5.243  -1.269
12246CHOL    R138182  16.939   5.190  -1.397
12246CHOL    R238183  17.104   5.321  -1.497
12246CHOL    R338184  17.029   5.131  -1.541
12246CHOL    R438185  17.175   5.275  -1.608
12246CHOL    R538186  17.110   5.079  -1.669
12246CHOL    C138187  17.231   5.000  -1.860
12246CHOL    C238188  17.352   4.921  -2.052
12247CHOL   ROH38189   8.245  -2.067  16.994
12247CHOL    R138190   8.226  -2.204  17.075
12247CHOL    R238191   8.298  -2.407  16.985
12247CHOL    R338192   8.205  -2.358  17.165
12247CHOL    R438193   8.281  -2.527  17.056
12247CHOL    R538194   8.185  -2.495  17.246
12247CHOL    C138195   8.157  -2.700  17.367
12247CHOL    C238196   8.128  -2.906  17.488
12248CHOL   ROH38197  10.717  20.621  19.072
12248CHOL    R138198  10.731  20.742  19.176
12248CHOL    R238199  10.757  20.701  19.404
12248CHOL    R338200  10.747  20.877  19.293
12248CHOL    R438201  10.769  20.806  19.496
12248CHOL    R538202  10.760  20.998  19.398
12248CHOL    C138203  10.781  21.179  19.554
12248CHOL    C238204  10.802  21.360  19.710
12249CHOL   ROH38205  -2.437  16.860   9.087
12249CHOL    R138206  -2.578  16.935   9.078
12249CHOL    R238207  -2.759  16.868   9.209
12249CHOL    R338208  -2.737  17.020   9.068
12249CHOL    R438209  -2.882  16.934   9.201
12249CHOL    R538210  -2.878  17.095   9.059
12249CHOL    C138211  -3.089  17.209   9.046
12249CHOL    C238212  -3.300  17.322   9.032
12250CHOL   ROH38213   2.542  21.742  12.437
12250CHOL    R138214   2.463  21.877  12.471
12250CHOL    R238215   2.561  22.086  12.435
12250CHOL    R338216   2.374  22.029  12.508
12250CHOL    R438217   2.492  22.204  12.464
12250CHOL    R538218   2.296  22.164  12.542
12250CHOL    C138219   2.177  22.367  12.592
12250CHOL    C238220   2.059  22.569  12.643
12251CHOL   ROH38221   1.419  11.358  -1.120
12251CHOL    R138222   1.323  11.373  -1.247
12251CHOL    R238223   1.119  11.484  -1.231
12251CHOL    R338224   1.215  11.390  -1.390
12251CHOL    R438225   1.035  11.497  -1.342
12251CHOL    R538226   1.120  11.405  -1.518
12251CHOL    C138227   0.976  11.428  -1.708
12251CHOL    C238228   0.832  11.450  -1.899
12252CHOL   ROH38229   6.208   6.803  23.092
12252CHOL    R138230   6.172   6.761  23.242
12252CHOL    R238231   6.322   6.799  23.417
12252CHOL    R338232   6.132   6.714  23.411
12252CHOL    R438233   6.291   6.763  23.548
12252CHOL    R538234   6.096   6.672  23.561
12252CHOL    C138235   6.042   6.609  23.787
12252CHOL    C238236   5.988   6.546  24.012
12253CHOL   ROH38237   4.025  -1.406  15.792
12253CHOL    R138238   3.960  -1.535  15.860
12253CHOL    R238239   4.077  -1.660  16.019
12253CHOL    R338240   3.886  -1.681  15.936
12253CHOL    R438241   4.019  -1.773  16.078
12253CHOL    R538242   3.821  -1.810  16.004
12253CHOL    C138243   3.723  -2.005  16.105
12253CHOL    C238244   3.625  -2.199  16.207
12254CHOL   ROH38245  18.617  13.196  20.267
12254CHOL    R138246  18.716  13.235  20.387
12254CHOL    R238247  18.894  13.382  20.352
12254CHOL    R338248  18.826  13.280  20.521
12254CHOL    R438249  18.980  13.416  20.457
12254CHOL    R538250  18.925  13.319  20.641
12254CHOL    C138251  19.073  13.378  20.821
12254CHOL    C238252  19.221  13.437  21.000
12255CHOL   ROH38253  23.627   8.099   8.244
12255CHOL    R138254  23.785   8.080   8.227
12255CHOL    R238255  23.918   8.254   8.146
12255CHOL    R338256  23.963   8.060   8.208
12255CHOL    R438257  24.056   8.238   8.131
12255CHOL    R538258  24.121   8.041   8.190
12255CHOL    C138259  24.357   8.013   8.165
12255CHOL    C238260  24.594   7.985   8.139
12256CHOL   ROH38261   7.581   1.669  -1.210
12256CHOL    R138262   7.553   1.570  -1.333
12256CHOL    R238263   7.661   1.365  -1.348
12256CHOL    R338264   7.521   1.460  -1.471
12256CHOL    R438265   7.636   1.278  -1.456
12256CHOL    R538266   7.493   1.361  -1.593
12256CHOL    C138267   7.451   1.213  -1.778
12256CHOL    C238268   7.409   1.065  -1.962
12257CHOL   ROH38269   5.335  -1.455  16.766
12257CHOL    R138270   5.282  -1.583  16.845
12257CHOL    R238271   5.390  -1.658  17.038
12257CHOL    R338272   5.223  -1.728  16.935
12257CHOL    R438273   5.344  -1.770  17.108
12257CHOL    R538274   5.170  -1.857  17.014
12257CHOL    C138275   5.091  -2.049  17.133
12257CHOL    C238276   5.012  -2.242  17.252
12258CHOL   ROH38277   8.676   3.262  22.172
12258CHOL    R138278   8.660   3.189  22.313
12258CHOL    R238279   8.815   3.224  22.484
12258CHOL    R338280   8.643   3.107  22.473
12258CHOL    R438281   8.802   3.160  22.608
12258CHOL    R538282   8.627   3.034  22.614
12258CHOL    C138283   8.604   2.925  22.826
12258CHOL    C238284   8.581   2.815  23.038
12259CHOL   ROH38285  19.737  19.163  13.575
12259CHOL    R138286  19.847  19.271  13.620
12259CHOL    R238287  20.014  19.215  13.773
12259CHOL    R338288  19.970  19.391  13.670
12259CHOL    R438289  20.110  19.309  13.812
12259CHOL    R538290  20.080  19.499  13.715
12259CHOL    C138291  20.245  19.660  13.782
12259CHOL    C238292  20.409  19.822  13.849
12260CHOL   ROH38293   9.903  22.695   3.860
12260CHOL    R138294   9.907  22.839   3.790
12260CHOL    R238295  10.018  22.870   3.587
12260CHOL    R338296   9.910  23.000   3.710
12260CHOL    R438297  10.021  22.996   3.526
12260CHOL    R538298   9.914  23.144   3.640
12260CHOL    C138299   9.919  23.360   3.534
12260CHOL    C238300   9.925  23.575   3.429
12261CHOL   ROH38301   6.224  -0.240   1.012
12261CHOL    R138302   6.184  -0.355   0.909
12261CHOL    R238303   6.093  -0.557   0.984
12261CHOL    R338304   6.138  -0.485   0.793
12261CHOL    R438305   6.057  -0.658   0.893
12261CHOL    R538306   6.098  -0.600   0.690
12261CHOL    C138307   6.037  -0.774   0.535
12261CHOL    C238308   5.976  -0.947   0.380
12262CHOL   ROH38309  17.472   0.525   2.841
12262CHOL    R138310  17.559   0.418   2.760
12262CHOL    R238311  17.520   0.379   2.533
12262CHOL    R338312  17.657   0.297   2.669
12262CHOL    R438313  17.596   0.285   2.462
12262CHOL    R538314  17.744   0.190   2.587
12262CHOL    C138315  17.874   0.029   2.466
12262CHOL    C238316  18.004  -0.132   2.344
12263CHOL   ROH38317  15.845   9.454  -2.719
12263CHOL    R138318  15.914   9.446  -2.863
12263CHOL    R238319  15.797   9.501  -3.057
12263CHOL    R338320  15.993   9.436  -3.025
12263CHOL    R438321  15.857   9.494  -3.183
12263CHOL    R538322  16.062   9.428  -3.169
12263CHOL    C138323  16.166   9.416  -3.385
12263CHOL    C238324  16.270   9.403  -3.601
12264CHOL   ROH38325   7.949  21.291  18.087
12264CHOL    R138326   7.925  21.417  18.182
12264CHOL    R238327   8.094  21.493  18.325
12264CHOL    R338328   7.899  21.559  18.290
12264CHOL    R438329   8.073  21.604  18.408
12264CHOL    R538330   7.875  21.685  18.385
12264CHOL    C138331   7.839  21.875  18.528
12264CHOL    C238332   7.804  22.064  18.671
12265CHOL   ROH38333  18.516  16.456   0.914
12265CHOL    R138334  18.613  16.532   0.811
12265CHOL    R238335  18.844  16.501   0.819
12265CHOL    R338336  18.721  16.617   0.696
12265CHOL    R438337  18.928  16.567   0.730
12265CHOL    R538338  18.818  16.692   0.594
12265CHOL    C138339  18.963  16.806   0.440
12265CHOL    C238340  19.108  16.920   0.286
12266CHOL   ROH38341  -3.269   5.631   7.710
12266CHOL    R138342  -3.417   5.575   7.687
12266CHOL    R238343  -3.493   5.386   7.801
12266CHOL    R338344  -3.584   5.513   7.662
12266CHOL    R438345  -3.623   5.338   7.781
12266CHOL    R538346  -3.733   5.458   7.640
12266CHOL    C138347  -3.955   5.374   7.606
12266CHOL    C238348  -4.177   5.291   7.572
12267CHOL   ROH38349  20.703  11.088   1.175
12267CHOL    R138350  20.829  11.099   1.077
12267CHOL    R238351  20.820  11.013   0.860
12267CHOL    R338352  20.970  11.112   0.966
12267CHOL    R438353  20.930  11.023   0.774
12267CHOL    R538354  21.096  11.123   0.867
12267CHOL    C138355  21.285  11.140   0.720
12267CHOL    C238356  21.473  11.157   0.572
12268CHOL   ROH38357  15.246   0.944   0.613
12268CHOL    R138358  15.303   0.838   0.508
12268CHOL    R238359  15.376   0.905   0.297
12268CHOL    R338360  15.368   0.718   0.390
12268CHOL    R438361  15.426   0.811   0.205
12268CHOL    R538362  15.425   0.611   0.285
12268CHOL    C138363  15.511   0.452   0.128
12268CHOL    C238364  15.597   0.292  -0.030
12269CHOL   ROH38365   4.458  -1.735  15.546
12269CHOL    R138366   4.398  -1.868  15.610
12269CHOL    R238367   4.536  -2.045  15.673
12269CHOL    R338368   4.329  -2.019  15.682
12269CHOL    R438369   4.483  -2.161  15.730
12269CHOL    R538370   4.269  -2.152  15.746
12269CHOL    C138371   4.178  -2.352  15.843
12269CHOL    C238372   4.088  -2.552  15.939
12270CHOL   ROH38373   5.899  15.168  -2.525
12270CHOL    R138374   5.853  15.228  -2.666
12270CHOL    R238375   5.799  15.454  -2.688
12270CHOL    R338376   5.801  15.296  -2.824
12270CHOL    R438377   5.758  15.507  -2.811
12270CHOL    R538378   5.754  15.356  -2.965
12270CHOL    C138379   5.685  15.447  -3.176
12270CHOL    C238380   5.616  15.537  -3.387
12271CHOL   ROH38381  -3.283  13.730  13.373
12271CHOL    R138382  -3.432  13.774  13.409
12271CHOL    R238383  -3.482  13.870  13.616
12271CHOL    R338384  -3.601  13.823  13.450
12271CHOL    R438385  -3.613  13.908  13.648
12271CHOL    R538386  -3.750  13.867  13.487
12271CHOL    C138387  -3.974  13.933  13.541
12271CHOL    C238388  -4.198  13.999  13.595
12272CHOL   ROH38389  15.154   2.489  -0.785
12272CHOL    R138390  15.214   2.399  -0.903
12272CHOL    R238391  15.183   2.459  -1.127
12272CHOL    R338392  15.280   2.298  -1.037
12272CHOL    R438393  15.235   2.381  -1.230
12272CHOL    R538394  15.340   2.208  -1.155
12272CHOL    C138395  15.429   2.074  -1.333
12272CHOL    C238396  15.519   1.939  -1.510
12273CHOL   ROH38397   0.406  11.719  -0.252
12273CHOL    R138398   0.301  11.736  -0.372
12273CHOL    R238399   0.142  11.906  -0.369
12273CHOL    R338400   0.184  11.755  -0.507
12273CHOL    R438401   0.050  11.921  -0.474
12273CHOL    R538402   0.079  11.772  -0.626
12273CHOL    C138403  -0.078  11.797  -0.806
12273CHOL    C238404  -0.235  11.823  -0.986
12274CHOL   ROH38405  16.680  12.982  21.804
12274CHOL    R138406  16.771  13.020  21.930
12274CHOL    R238407  16.977  13.126  21.902
12274CHOL    R338408  16.873  13.062  22.072
12274CHOL    R438409  17.056  13.159  22.012
12274CHOL    R538410  16.965  13.100  22.198
12274CHOL    C138411  17.101  13.157  22.387
12274CHOL    C238412  17.238  13.213  22.576
12275CHOL   ROH38413  -3.351  13.721   7.201
12275CHOL    R138414  -3.501  13.762   7.165
12275CHOL    R238415  -3.636  13.873   7.321
12275CHOL    R338416  -3.671  13.809   7.125
12275CHOL    R438417  -3.767  13.909   7.290
12275CHOL    R538418  -3.821  13.850   7.089
12275CHOL    C138419  -4.047  13.912   7.036
12275CHOL    C238420  -4.272  13.974   6.982
12276CHOL   ROH38421   4.504  19.052  19.232
12276CHOL    R138422   4.447  19.156  19.339
12276CHOL    R238423   4.474  19.120  19.568
12276CHOL    R338424   4.382  19.273  19.459
12276CHOL    R438425   4.423  19.212  19.661
12276CHOL    R538426   4.325  19.378  19.566
12276CHOL    C138427   4.238  19.534  19.726
12276CHOL    C238428   4.152  19.690  19.887
12277CHOL   ROH38429  -1.977  15.997  14.636
12277CHOL    R138430  -2.110  16.068  14.689
12277CHOL    R238431  -2.138  16.116  14.916
12277CHOL    R338432  -2.259  16.149  14.750
12277CHOL    R438433  -2.254  16.178  14.963
12277CHOL    R538434  -2.392  16.220  14.803
12277CHOL    C138435  -2.591  16.327  14.883
12277CHOL    C238436  -2.790  16.434  14.963
12278CHOL   ROH38437  -2.216  15.050  15.147
12278CHOL    R138438  -2.352  15.109  15.207
12278CHOL    R238439  -2.422  15.054  15.423
12278CHOL    R338440  -2.505  15.176  15.275
12278CHOL    R438441  -2.540  15.106  15.476
12278CHOL    R538442  -2.641  15.236  15.335
12278CHOL    C138443  -2.844  15.325  15.426
12278CHOL    C238444  -3.048  15.414  15.516
12279CHOL   ROH38445  20.401   3.259  16.482
12279CHOL    R138446  20.521   3.186  16.558
12279CHOL    R238447  20.723   3.295  16.597
12279CHOL    R338448  20.656   3.103  16.644
12279CHOL    R438449  20.828   3.231  16.664
12279CHOL    R538450  20.776   3.030  16.720
12279CHOL    C138451  20.956   2.919  16.835
12279CHOL    C238452  21.136   2.809  16.949
12280CHOL   ROH38453  -3.863  11.444  12.712
12280CHOL    R138454  -4.019  11.457  12.747
12280CHOL    R238455  -4.090  11.575  12.935
12280CHOL    R338456  -4.194  11.471  12.786
12280CHOL    R438457  -4.227  11.586  12.965
12280CHOL    R538458  -4.350  11.484  12.821
12280CHOL    C138459  -4.583  11.503  12.873
12280CHOL    C238460  -4.817  11.522  12.926
12281CHOL   ROH38461  20.438   1.198   7.059
12281CHOL    R138462  20.560   1.099   7.027
12281CHOL    R238463  20.630   1.062   6.808
12281CHOL    R338464  20.697   0.988   6.991
12281CHOL    R438465  20.737   0.976   6.780
12281CHOL    R538466  20.819   0.889   6.960
12281CHOL    C138467  21.002   0.741   6.912
12281CHOL    C238468  21.185   0.593   6.864
12282CHOL   ROH38469  -1.946  17.636   8.655
12282CHOL    R138470  -2.080  17.722   8.642
12282CHOL    R238471  -2.250  17.705   8.800
12282CHOL    R338472  -2.231  17.819   8.627
12282CHOL    R438473  -2.368  17.780   8.789
12282CHOL    R538474  -2.365  17.905   8.614
12282CHOL    C138475  -2.566  18.035   8.594
12282CHOL    C238476  -2.767  18.164   8.574
12283CHOL   ROH38477  16.463  19.880   2.557
12283CHOL    R138478  16.543  19.990   2.472
12283CHOL    R238479  16.626  19.941   2.260
12283CHOL    R338480  16.632  20.114   2.377
12283CHOL    R438481  16.695  20.037   2.186
12283CHOL    R538482  16.712  20.224   2.293
12283CHOL    C138483  16.832  20.388   2.166
12283CHOL    C238484  16.951  20.553   2.039
12284CHOL   ROH38485   7.658  23.757   8.085
12284CHOL    R138486   7.638  23.915   8.066
12284CHOL    R238487   7.817  24.052   8.005
12284CHOL    R338488   7.616  24.092   8.045
12284CHOL    R438489   7.800  24.190   7.989
12284CHOL    R538490   7.596  24.250   8.026
12284CHOL    C138491   7.566  24.486   7.997
12284CHOL    C238492   7.536  24.722   7.968
12285CHOL   ROH38493   1.170   0.950  16.329
12285CHOL    R138494   1.071   0.847  16.402
12285CHOL    R238495   1.088   0.807  16.631
12285CHOL    R338496   0.960   0.732  16.484
12285CHOL    R438497   1.002   0.717  16.695
12285CHOL    R538498   0.862   0.630  16.557
12285CHOL    C138499   0.713   0.476  16.667
12285CHOL    C238500   0.565   0.322  16.777
12286CHOL   ROH38501   4.575  -1.609   3.894
12286CHOL    R138502   4.516  -1.741   3.826
12286CHOL    R238503   4.620  -1.837   3.640
12286CHOL    R338504   4.451  -1.891   3.749
12286CHOL    R438505   4.569  -1.953   3.581
12286CHOL    R538506   4.392  -2.023   3.681
12286CHOL    C138507   4.304  -2.222   3.579
12286CHOL    C238508   4.216  -2.420   3.477
12287CHOL   ROH38509   8.556   9.678  23.901
12287CHOL    R138510   8.536   9.677  24.060
12287CHOL    R238511   8.697   9.769  24.202
12287CHOL    R338512   8.513   9.677  24.238
12287CHOL    R438513   8.679   9.769  24.340
12287CHOL    R538514   8.493   9.676  24.397
12287CHOL    C138515   8.463   9.675  24.635
12287CHOL    C238516   8.433   9.674  24.873
12288CHOL   ROH38517   9.466   4.063  -2.774
12288CHOL    R138518   9.461   4.001  -2.921
12288CHOL    R238519   9.657   3.955  -3.039
12288CHOL    R338520   9.455   3.930  -3.087
12288CHOL    R438521   9.652   3.901  -3.168
12288CHOL    R538522   9.449   3.868  -3.234
12288CHOL    C138523   9.442   3.774  -3.455
12288CHOL    C238524   9.434   3.681  -3.676
12289CHOL   ROH38525  -2.076   2.934  12.171
12289CHOL    R138526  -2.213   2.856  12.198
12289CHOL    R238527  -2.369   2.938  12.351
12289CHOL    R338528  -2.368   2.769  12.228
12289CHOL    R438529  -2.490   2.870  12.374
12289CHOL    R538530  -2.505   2.691  12.255
12289CHOL    C138531  -2.711   2.574  12.296
12289CHOL    C238532  -2.917   2.458  12.337
12290CHOL   ROH38533  23.438  10.409   6.439
12290CHOL    R138534  23.594  10.411   6.401
12290CHOL    R238535  23.700  10.219   6.321
12290CHOL    R338536  23.768  10.412   6.358
12290CHOL    R438537  23.836  10.220   6.288
12290CHOL    R538538  23.924  10.414   6.320
12290CHOL    C138539  24.157  10.416   6.264
12290CHOL    C238540  24.391  10.419   6.207
12291CHOL   ROH38541  10.211  -2.832   4.146
12291CHOL    R138542  10.211  -2.977   4.078
12291CHOL    R238543  10.337  -3.151   4.167
12291CHOL    R338544  10.210  -3.140   4.001
12291CHOL    R438545  10.337  -3.278   4.107
12291CHOL    R538546  10.210  -3.285   3.933
12291CHOL    C138547  10.210  -3.502   3.831
12291CHOL    C238548  10.209  -3.719   3.729
12292CHOL   ROH38549  11.464   6.418  -3.549
12292CHOL    R138550  11.477   6.374  -3.702
12292CHOL    R238551  11.575   6.514  -3.860
12292CHOL    R338552  11.492   6.323  -3.874
12292CHOL    R438553  11.587   6.475  -3.994
12292CHOL    R538554  11.505   6.279  -4.028
12292CHOL    C138555  11.525   6.212  -4.257
12292CHOL    C238556  11.544   6.146  -4.487
12293CHOL   ROH38557  13.051  23.406  12.564
12293CHOL    R138558  13.085  23.559  12.597
12293CHOL    R238559  13.272  23.663  12.504
12293CHOL    R338560  13.123  23.731  12.634
12293CHOL    R438561  13.301  23.797  12.533
12293CHOL    R538562  13.157  23.883  12.667
12293CHOL    C138563  13.208  24.113  12.717
12293CHOL    C238564  13.259  24.342  12.767
12294CHOL   ROH38565   8.417  -2.399   3.505
12294CHOL    R138566   8.400  -2.540   3.432
12294CHOL    R238567   8.564  -2.621   3.287
12294CHOL    R338568   8.380  -2.699   3.349
12294CHOL    R438569   8.549  -2.745   3.223
12294CHOL    R538570   8.363  -2.840   3.275
12294CHOL    C138571   8.337  -3.052   3.165
12294CHOL    C238572   8.311  -3.263   3.055
12295CHOL   ROH38573  13.506  14.304  22.771
12295CHOL    R138574  13.541  14.358  22.917
12295CHOL    R238575  13.746  14.311  23.017
12295CHOL    R338576  13.580  14.419  23.082
12295CHOL    R438577  13.777  14.358  23.145
12295CHOL    R538578  13.615  14.473  23.228
12295CHOL    C138579  13.667  14.554  23.448
12295CHOL    C238580  13.720  14.635  23.668
12296CHOL   ROH38581  -1.084   9.328  18.680
12296CHOL    R138582  -1.209   9.324  18.779
12296CHOL    R238583  -1.179   9.329  19.010
12296CHOL    R338584  -1.350   9.320  18.891
12296CHOL    R438585  -1.289   9.325  19.097
12296CHOL    R538586  -1.475   9.316  18.991
12296CHOL    C138587  -1.663   9.310  19.140
12296CHOL    C238588  -1.851   9.304  19.289
12297CHOL   ROH38589  11.241  -3.983  10.344
12297CHOL    R138590  11.251  -4.143  10.351
12297CHOL    R238591  11.453  -4.252  10.311
12297CHOL    R338592  11.262  -4.322  10.359
12297CHOL    R438593  11.461  -4.392  10.317
12297CHOL    R538594  11.272  -4.482  10.366
12297CHOL    C138595  11.287  -4.721  10.377
12297CHOL    C238596  11.302  -4.960  10.387
12298CHOL   ROH38597  20.500  14.146  18.129
12298CHOL    R138598  20.613  14.192  18.232
12298CHOL    R238599  20.819  14.082  18.241
12298CHOL    R338600  20.741  14.243  18.348
12298CHOL    R438601  20.918  14.122  18.332
12298CHOL    R538602  20.854  14.289  18.452
12298CHOL    C138603  21.024  14.358  18.606
12298CHOL    C238604  21.194  14.426  18.761
12299CHOL   ROH38605   6.046  19.424   0.242
12299CHOL    R138606   6.009  19.537   0.135
12299CHOL    R238607   6.030  19.763   0.188
12299CHOL    R338608   5.967  19.664   0.015
12299CHOL    R438609   5.997  19.862   0.094
12299CHOL    R538610   5.930  19.778  -0.092
12299CHOL    C138611   5.874  19.947  -0.252
12299CHOL    C238612   5.818  20.117  -0.413
12300CHOL   ROH38613  18.152   0.398   3.817
12300CHOL    R138614  18.246   0.289   3.746
12300CHOL    R238615  18.463   0.250   3.822
12300CHOL    R338616  18.351   0.167   3.667
12300CHOL    R438617  18.545   0.155   3.760
12300CHOL    R538618  18.445   0.058   3.596
12300CHOL    C138619  18.585  -0.105   3.490
12300CHOL    C238620  18.725  -0.268   3.384
12301CHOL   ROH38621   5.257  18.237  20.319
12301CHOL    R138622   5.208  18.334  20.436
12301CHOL    R238623   5.229  18.272  20.660
12301CHOL    R338624   5.153  18.443  20.568
12301CHOL    R438625   5.187  18.357  20.763
12301CHOL    R538626   5.104  18.540  20.686
12301CHOL    C138627   5.031  18.686  20.861
12301CHOL    C238628   4.958  18.832  21.037
12302CHOL   ROH38629  -1.776   3.288   5.847
12302CHOL    R138630  -1.909   3.210   5.804
12302CHOL    R238631  -2.024   3.077   5.957
12302CHOL    R338632  -2.059   3.123   5.757
12302CHOL    R438633  -2.141   3.009   5.920
12302CHOL    R538634  -2.192   3.046   5.714
12302CHOL    C138635  -2.392   2.929   5.650
12302CHOL    C238636  -2.592   2.813   5.586
12303CHOL   ROH38637  12.507  -3.487   6.667
12303CHOL    R138638  12.543  -3.638   6.630
12303CHOL    R238639  12.555  -3.707   6.407
12303CHOL    R338640  12.584  -3.808   6.587
12303CHOL    R438641  12.587  -3.840   6.374
12303CHOL    R538642  12.620  -3.960   6.550
12303CHOL    C138643  12.675  -4.186   6.494
12303CHOL    C238644  12.729  -4.413   6.438
12304CHOL   ROH38645  -2.638  15.531  13.289
12304CHOL    R138646  -2.781  15.594  13.325
12304CHOL    R238647  -2.813  15.825  13.324
12304CHOL    R338648  -2.941  15.665  13.366
12304CHOL    R438649  -2.938  15.880  13.356
12304CHOL    R538650  -3.083  15.728  13.402
12304CHOL    C138651  -3.297  15.823  13.456
12304CHOL    C238652  -3.511  15.917  13.510
12305CHOL   ROH38653  11.582  -3.552  13.284
12305CHOL    R138654  11.600  -3.707  13.320
12305CHOL    R238655  11.766  -3.835  13.219
12305CHOL    R338656  11.621  -3.881  13.362
12305CHOL    R438657  11.782  -3.971  13.251
12305CHOL    R538658  11.639  -4.036  13.398
12305CHOL    C138659  11.666  -4.268  13.453
12305CHOL    C238660  11.694  -4.500  13.507
12306CHOL   ROH38661   6.503  13.331  23.103
12306CHOL    R138662   6.469  13.358  23.257
12306CHOL    R238663   6.573  13.236  23.426
12306CHOL    R338664   6.431  13.388  23.430
12306CHOL    R438665   6.544  13.260  23.561
12306CHOL    R538666   6.397  13.415  23.584
12306CHOL    C138667   6.345  13.456  23.815
12306CHOL    C238668   6.294  13.497  24.046
12307CHOL   ROH38669  22.120   7.203   3.578
12307CHOL    R138670  22.260   7.175   3.506
12307CHOL    R238671  22.279   7.181   3.274
12307CHOL    R338672  22.418   7.145   3.425
12307CHOL    R438673  22.402   7.157   3.211
12307CHOL    R538674  22.558   7.117   3.353
12307CHOL    C138675  22.769   7.076   3.246
12307CHOL    C238676  22.979   7.034   3.138
12308CHOL   ROH38677  -2.923  10.573   4.187
12308CHOL    R138678  -3.071  10.579   4.127
12308CHOL    R238679  -3.242  10.449   4.215
12308CHOL    R338680  -3.238  10.587   4.059
12308CHOL    R438681  -3.372  10.454   4.163
12308CHOL    R538682  -3.386  10.593   3.998
12308CHOL    C138683  -3.608  10.603   3.908
12308CHOL    C238684  -3.830  10.612   3.818
12309CHOL   ROH38685   7.696   0.470  -0.177
12309CHOL    R138686   7.670   0.361  -0.291
12309CHOL    R238687   7.809   0.348  -0.478
12309CHOL    R338688   7.642   0.238  -0.419
12309CHOL    R438689   7.787   0.252  -0.578
12309CHOL    R538690   7.616   0.128  -0.533
12309CHOL    C138691   7.578  -0.035  -0.704
12309CHOL    C238692   7.539  -0.199  -0.875
12310CHOL   ROH38693   8.712  23.835  12.115
12310CHOL    R138694   8.704  23.993  12.137
12310CHOL    R238695   8.749  24.088  12.346
12310CHOL    R338696   8.695  24.171  12.162
12310CHOL    R438697   8.742  24.226  12.365
12310CHOL    R538698   8.687  24.329  12.185
12310CHOL    C138699   8.675  24.567  12.218
12310CHOL    C238700   8.663  24.804  12.251
12311CHOL   ROH38701  20.342  17.640  15.244
12311CHOL    R138702  20.456  17.735  15.304
12311CHOL    R238703  20.535  17.918  15.182
12311CHOL    R338704  20.584  17.842  15.370
12311CHOL    R438705  20.635  18.001  15.234
12311CHOL    R538706  20.698  17.937  15.430
12311CHOL    C138707  20.870  18.080  15.519
12311CHOL    C238708  21.041  18.223  15.609
12312CHOL   ROH38709  -1.841  17.245   6.936
12312CHOL    R138710  -1.976  17.321   6.896
12312CHOL    R238711  -2.140  17.366   7.055
12312CHOL    R338712  -2.128  17.407   6.851
12312CHOL    R438713  -2.258  17.433   7.020
12312CHOL    R538714  -2.263  17.484   6.811
12312CHOL    C138715  -2.465  17.598   6.751
12312CHOL    C238716  -2.667  17.712   6.691
12313CHOL   ROH38717  19.833   3.881  17.711
12313CHOL    R138718  19.944   3.816  17.806
12313CHOL    R238719  20.136   3.719  17.717
12313CHOL    R338720  20.069   3.744  17.913
12313CHOL    R438721  20.234   3.663  17.800
12313CHOL    R538722  20.181   3.679  18.008
12313CHOL    C138723  20.347   3.582  18.151
12313CHOL    C238724  20.514   3.485  18.293
12314CHOL   ROH38725   5.640  12.525  23.012
12314CHOL    R138726   5.598  12.546  23.165
12314CHOL    R238727   5.613  12.755  23.266
12314CHOL    R338728   5.551  12.569  23.337
12314CHOL    R438729   5.577  12.773  23.400
12314CHOL    R538730   5.510  12.589  23.491
12314CHOL    C138731   5.447  12.620  23.720
12314CHOL    C238732   5.384  12.651  23.950
12315CHOL   ROH38733  21.791  14.118  16.184
12315CHOL    R138734  21.929  14.162  16.252
12315CHOL    R238735  22.078  14.003  16.336
12315CHOL    R338736  22.085  14.211  16.328
12315CHOL    R438737  22.198  14.041  16.395
12315CHOL    R538738  22.223  14.255  16.396
12315CHOL    C138739  22.430  14.321  16.497
12315CHOL    C238740  22.638  14.387  16.599
12316CHOL   ROH38741   3.630  21.103   4.173
12316CHOL    R138742   3.553  21.228   4.110
12316CHOL    R238743   3.661  21.433   4.079
12316CHOL    R338744   3.467  21.369   4.038
12316CHOL    R438745   3.594  21.542   4.024
12316CHOL    R538746   3.390  21.495   3.975
12316CHOL    C138747   3.275  21.682   3.880
12316CHOL    C238748   3.160  21.870   3.785
12317CHOL   ROH38749  19.573   4.529  18.416
12317CHOL    R138750  19.683   4.469  18.516
12317CHOL    R238751  19.793   4.270  18.468
12317CHOL    R338752  19.806   4.403  18.629
12317CHOL    R438753  19.889   4.218  18.556
12317CHOL    R538754  19.916   4.343  18.729
12317CHOL    C138755  20.080   4.254  18.879
12317CHOL    C238756  20.244   4.164  19.029
12318CHOL   ROH38757   8.909   0.434  -0.351
12318CHOL    R138758   8.895   0.323  -0.465
12318CHOL    R238759   8.956   0.101  -0.425
12318CHOL    R338760   8.879   0.197  -0.593
12318CHOL    R438761   8.944   0.004  -0.524
12318CHOL    R538762   8.865   0.086  -0.708
12318CHOL    C138763   8.845  -0.081  -0.879
12318CHOL    C238764   8.824  -0.248  -1.050
12319CHOL   ROH38765   9.062  14.893  23.062
12319CHOL    R138766   9.058  14.945  23.213
12319CHOL    R238767   9.081  14.797  23.392
12319CHOL    R338768   9.055  15.004  23.383
12319CHOL    R438769   9.078  14.843  23.524
12319CHOL    R538770   9.051  15.057  23.534
12319CHOL    C138771   9.046  15.135  23.761
12319CHOL    C238772   9.040  15.213  23.988
12320CHOL   ROH38773   9.461   4.197  22.689
12320CHOL    R138774   9.449   4.134  22.836
12320CHOL    R238775   9.623   4.156  22.990
12320CHOL    R338776   9.437   4.063  23.000
12320CHOL    R438777   9.613   4.100  23.118
12320CHOL    R538778   9.425   3.999  23.147
12320CHOL    C138779   9.408   3.905  23.367
12320CHOL    C238780   9.390   3.810  23.587
12321CHOL   ROH38781   0.044   1.258  14.980
12321CHOL    R138782  -0.070   1.161  15.038
12321CHOL    R238783  -0.098   1.133  15.267
12321CHOL    R338784  -0.197   1.052  15.102
12321CHOL    R438785  -0.198   1.049  15.318
12321CHOL    R538786  -0.311   0.956  15.160
12321CHOL    C138787  -0.481   0.810  15.246
12321CHOL    C238788  -0.652   0.665  15.333
12322CHOL   ROH38789   2.736  18.943   1.738
12322CHOL    R138790   2.655  19.050   1.651
12322CHOL    R238791   2.761  19.179   1.489
12322CHOL    R338792   2.563  19.170   1.554
12322CHOL    R438793   2.690  19.273   1.413
12322CHOL    R538794   2.482  19.277   1.467
12322CHOL    C138795   2.359  19.438   1.337
12322CHOL    C238796   2.237  19.599   1.207
12323CHOL   ROH38797  -1.584  10.601  17.989
12323CHOL    R138798  -1.713  10.609  18.083
12323CHOL    R238799  -1.799  10.417  18.185
12323CHOL    R338800  -1.858  10.617  18.190
12323CHOL    R438801  -1.912  10.424  18.267
12323CHOL    R538802  -1.987  10.625  18.284
12323CHOL    C138803  -2.180  10.637  18.426
12323CHOL    C238804  -2.374  10.648  18.567
12324CHOL   ROH38805   7.927  12.152  23.586
12324CHOL    R138806   7.899  12.172  23.742
12324CHOL    R238807   8.004  12.039  23.902
12324CHOL    R338808   7.867  12.195  23.918
12324CHOL    R438809   7.980  12.056  24.038
12324CHOL    R538810   7.838  12.215  24.074
12324CHOL    C138811   7.796  12.245  24.308
12324CHOL    C238812   7.754  12.275  24.542
12325CHOL   ROH38813  17.333  13.732  21.082
12325CHOL    R138814  17.425  13.776  21.206
12325CHOL    R238815  17.654  13.808  21.179
12325CHOL    R338816  17.527  13.826  21.344
12325CHOL    R438817  17.734  13.846  21.287
12325CHOL    R538818  17.619  13.870  21.468
12325CHOL    C138819  17.756  13.936  21.653
12325CHOL    C238820  17.894  14.002  21.839
12326CHOL   ROH38821  10.052  24.008   9.520
12326CHOL    R138822  10.054  24.168   9.516
12326CHOL    R238823  10.233  24.284   9.422
12326CHOL    R338824  10.056  24.348   9.511
12326CHOL    R438825  10.235  24.424   9.418
12326CHOL    R538826  10.057  24.508   9.507
12326CHOL    C138827  10.060  24.748   9.501
12326CHOL    C238828  10.063  24.988   9.495
12327CHOL   ROH38829   3.004  16.633  -0.420
12327CHOL    R138830   2.926  16.703  -0.541
12327CHOL    R238831   3.038  16.844  -0.690
12327CHOL    R338832   2.838  16.783  -0.677
12327CHOL    R438833   2.969  16.905  -0.796
12327CHOL    R538834   2.761  16.853  -0.798
12327CHOL    C138835   2.644  16.959  -0.979
12327CHOL    C238836   2.527  17.064  -1.160
12328CHOL   ROH38837  -0.647   0.967   7.614
12328CHOL    R138838  -0.768   0.867   7.585
12328CHOL    R238839  -0.903   0.788   7.757
12328CHOL    R338840  -0.904   0.754   7.551
12328CHOL    R438841  -1.009   0.700   7.732
12328CHOL    R538842  -1.026   0.654   7.522
12328CHOL    C138843  -1.207   0.503   7.478
12328CHOL    C238844  -1.389   0.353   7.434
12329CHOL   ROH38845   9.972  -3.870  12.163
12329CHOL    R138846   9.974  -4.029  12.185
12329CHOL    R238847  10.071  -4.170  12.027
12329CHOL    R338848   9.976  -4.207  12.209
12329CHOL    R438849  10.073  -4.309  12.046
12329CHOL    R538850   9.978  -4.365  12.231
12329CHOL    C138851   9.980  -4.603  12.264
12329CHOL    C238852   9.983  -4.841  12.296
12330CHOL   ROH38853  14.529  -0.223  18.354
12330CHOL    R138854  14.578  -0.338  18.454
12330CHOL    R238855  14.649  -0.286  18.670
12330CHOL    R338856  14.633  -0.467  18.566
12330CHOL    R438857  14.692  -0.387  18.757
12330CHOL    R538858  14.682  -0.582  18.666
12330CHOL    C138859  14.755  -0.754  18.816
12330CHOL    C238860  14.829  -0.927  18.966
12331CHOL   ROH38861  23.585   7.437   8.723
12331CHOL    R138862  23.743   7.414   8.709
12331CHOL    R238863  23.874   7.556   8.579
12331CHOL    R338864  23.920   7.387   8.693
12331CHOL    R438865  24.012   7.535   8.567
12331CHOL    R538866  24.078   7.364   8.680
12331CHOL    C138867  24.314   7.329   8.659
12331CHOL    C238868  24.550   7.294   8.638
12332CHOL   ROH38869  14.535  12.346  -3.131
12332CHOL    R138870  14.586  12.372  -3.280
12332CHOL    R238871  14.507  12.245  -3.459
12332CHOL    R338872  14.643  12.402  -3.449
12332CHOL    R438873  14.551  12.267  -3.589
12332CHOL    R538874  14.694  12.428  -3.598
12332CHOL    C138875  14.771  12.467  -3.822
12332CHOL    C238876  14.848  12.507  -4.046
12333CHOL   ROH38877   8.294  10.067  23.850
12333CHOL    R138878   8.269  10.076  24.008
12333CHOL    R238879   8.433  10.157  24.151
12333CHOL    R338880   8.240  10.087  24.185
12333CHOL    R438881   8.411  10.165  24.290
12333CHOL    R538882   8.215  10.096  24.343
12333CHOL    C138883   8.176  10.110  24.580
12333CHOL    C238884   8.138  10.124  24.816
12334CHOL   ROH38885  15.989  21.210   4.107
12334CHOL    R138886  16.057  21.338   4.038
12334CHOL    R238887  16.258  21.425   4.117
12334CHOL    R338888  16.132  21.481   3.960
12334CHOL    R438889  16.317  21.537   4.057
12334CHOL    R538890  16.200  21.608   3.890
12334CHOL    C138891  16.301  21.800   3.787
12334CHOL    C238892  16.403  21.991   3.683
12335CHOL   ROH38893  16.404  13.354  21.882
12335CHOL    R138894  16.491  13.395  22.010
12335CHOL    R238895  16.550  13.618  22.048
12335CHOL    R338896  16.589  13.442  22.153
12335CHOL    R438897  16.626  13.654  22.159
12335CHOL    R538898  16.676  13.483  22.281
12335CHOL    C138899  16.807  13.545  22.473
12335CHOL    C238900  16.937  13.607  22.664
12336CHOL   ROH38901  13.308  23.610   9.507
12336CHOL    R138902  13.350  23.764   9.500
12336CHOL    R238903  13.342  23.882   9.299
12336CHOL    R338904  13.397  23.938   9.493
12336CHOL    R438905  13.379  24.017   9.293
12336CHOL    R538906  13.440  24.092   9.486
12336CHOL    C138907  13.503  24.323   9.476
12336CHOL    C238908  13.566  24.555   9.466
12337CHOL   ROH38909   5.687  18.400  20.349
12337CHOL    R138910   5.644  18.499  20.467
12337CHOL    R238911   5.660  18.435  20.690
12337CHOL    R338912   5.595  18.611  20.599
12337CHOL    R438913   5.622  18.522  20.793
12337CHOL    R538914   5.551  18.710  20.717
12337CHOL    C138915   5.486  18.860  20.894
12337CHOL    C238916   5.421  19.009  21.070
12338CHOL   ROH38917  10.307   6.842  -3.713
12338CHOL    R138918  10.308   6.803  -3.868
12338CHOL    R238919  10.486   6.863  -4.006
12338CHOL    R338920  10.309   6.758  -4.042
12338CHOL    R438921  10.487   6.829  -4.142
12338CHOL    R538922  10.310   6.719  -4.198
12338CHOL    C138923  10.311   6.660  -4.430
12338CHOL    C238924  10.312   6.601  -4.663
12339CHOL   ROH38925  16.287  -0.502   3.136
12339CHOL    R138926  16.361  -0.623   3.063
12339CHOL    R238927  16.558  -0.589   2.943
12339CHOL    R338928  16.445  -0.760   2.981
12339CHOL    R438929  16.623  -0.695   2.879
12339CHOL    R538930  16.519  -0.882   2.908
12339CHOL    C138931  16.631  -1.064   2.799
12339CHOL    C238932  16.743  -1.246   2.689
12340CHOL   ROH38933   3.390  -1.449  15.006
12340CHOL    R138934   3.318  -1.580  15.063
12340CHOL    R238935   3.442  -1.752  15.161
12340CHOL    R338936   3.237  -1.727  15.128
12340CHOL    R438937   3.379  -1.866  15.212
12340CHOL    R538938   3.165  -1.858  15.185
12340CHOL    C138939   3.057  -2.054  15.272
12340CHOL    C238940   2.949  -2.251  15.358
12341CHOL   ROH38941   6.470  10.592  -3.696
12341CHOL    R138942   6.433  10.597  -3.852
12341CHOL    R238943   6.450  10.795  -3.973
12341CHOL    R338944   6.391  10.602  -4.026
12341CHOL    R438945   6.418  10.799  -4.109
12341CHOL    R538946   6.353  10.607  -4.182
12341CHOL    C138947   6.298  10.614  -4.415
12341CHOL    C238948   6.242  10.621  -4.649
12342CHOL   ROH38949  -2.043   6.602   3.192
12342CHOL    R138950  -2.180   6.572   3.114
12342CHOL    R238951  -2.377   6.682   3.173
12342CHOL    R338952  -2.333   6.539   3.027
12342CHOL    R438953  -2.497   6.655   3.105
12342CHOL    R538954  -2.470   6.509   2.950
12342CHOL    C138955  -2.675   6.464   2.833
12342CHOL    C238956  -2.880   6.420   2.717
12343CHOL   ROH38957  22.709   6.306   5.507
12343CHOL    R138958  22.857   6.267   5.461
12343CHOL    R238959  22.901   6.197   5.243
12343CHOL    R338960  23.024   6.224   5.409
12343CHOL    R438961  23.031   6.163   5.203
12343CHOL    R538962  23.173   6.185   5.363
12343CHOL    C138963  23.395   6.128   5.295
12343CHOL    C238964  23.617   6.070   5.226
12344CHOL   ROH38965  23.598  12.170   7.782
12344CHOL    R138966  23.755  12.190   7.760
12344CHOL    R238967  23.845  12.217   7.547
12344CHOL    R338968  23.932  12.213   7.736
12344CHOL    R438969  23.982  12.235   7.528
12344CHOL    R538970  24.090  12.233   7.714
12344CHOL    C138971  24.325  12.264   7.682
12344CHOL    C238972  24.561  12.294   7.650
12345CHOL   ROH38973  12.541  18.960  20.428
12345CHOL    R138974  12.568  19.066  20.545
12345CHOL    R238975  12.760  19.198  20.546
12345CHOL    R338976  12.598  19.184  20.677
12345CHOL    R438977  12.784  19.290  20.648
12345CHOL    R538978  12.626  19.290  20.794
12345CHOL    C138979  12.666  19.448  20.970
12345CHOL    C238980  12.707  19.607  21.145
12346CHOL   ROH38981  14.458  18.984   0.071
12346CHOL    R138982  14.512  19.085  -0.041
12346CHOL    R238983  14.708  19.041  -0.158
12346CHOL    R338984  14.572  19.198  -0.167
12346CHOL    R438985  14.755  19.129  -0.256
12346CHOL    R538986  14.626  19.299  -0.279
12346CHOL    C138987  14.706  19.450  -0.447
12346CHOL    C238988  14.786  19.601  -0.615
12347CHOL   ROH38989  20.371   6.653  18.553
12347CHOL    R138990  20.492   6.614  18.650
12347CHOL    R238991  20.618   6.421  18.614
12347CHOL    R338992  20.628   6.571  18.759
12347CHOL    R438993  20.724   6.388  18.699
12347CHOL    R538994  20.749   6.532  18.857
12347CHOL    C138995  20.931   6.474  19.002
12347CHOL    C238996  21.113   6.416  19.148
12348CHOL   ROH38997  20.712   1.137   8.759
12348CHOL    R138998  20.837   1.038   8.744
12348CHOL    R238999  20.908   0.964   8.535
12348CHOL    R339000  20.978   0.927   8.728
12348CHOL    R439001  21.017   0.878   8.522
12348CHOL    R539002  21.103   0.828   8.713
12348CHOL    C139003  21.290   0.680   8.691
12348CHOL    C239004  21.477   0.531   8.669
12349CHOL   ROH39005  21.301   2.089   8.036
12349CHOL    R139006  21.433   2.001   8.014
12349CHOL    R239007  21.562   2.024   7.822
12349CHOL    R339008  21.581   1.902   7.990
12349CHOL    R439009  21.677   1.946   7.803
12349CHOL    R539010  21.712   1.814   7.968
12349CHOL    C139011  21.910   1.681   7.936
12349CHOL    C239012  22.108   1.549   7.904
12350CHOL   ROH39013  15.738  20.305   2.470
12350CHOL    R139014  15.809  20.421   2.385
12350CHOL    R239015  15.755  20.456   2.161
12350CHOL    R339016  15.889  20.550   2.290
12350CHOL    R439017  15.817  20.557   2.087
12350CHOL    R539018  15.961  20.666   2.205
12350CHOL    C139019  16.067  20.839   2.078
12350CHOL    C239020  16.174  21.013   1.951
12351CHOL   ROH39021  16.384  -1.431  14.939
12351CHOL    R139022  16.460  -1.562  14.992
12351CHOL    R239023  16.507  -1.740  14.849
12351CHOL    R339024  16.545  -1.708  15.052
12351CHOL    R439025  16.573  -1.854  14.896
12351CHOL    R539026  16.620  -1.839  15.105
12351CHOL    C139027  16.734  -2.035  15.185
12351CHOL    C239028  16.848  -2.231  15.265
12352CHOL   ROH39029  16.087   2.927  20.374
12352CHOL    R139030  16.161   2.847  20.491
12352CHOL    R239031  16.350   2.718  20.448
12352CHOL    R339032  16.244   2.757  20.623
12352CHOL    R439033  16.415   2.648  20.550
12352CHOL    R539034  16.318   2.677  20.741
12352CHOL    C139035  16.428   2.557  20.916
12352CHOL    C239036  16.539   2.437  21.092
12353CHOL   ROH39037  15.788  22.537   8.204
12353CHOL    R139038  15.857  22.680   8.187
12353CHOL    R239039  16.077  22.699   8.110
12353CHOL    R339040  15.935  22.842   8.168
12353CHOL    R439041  16.137  22.825   8.095
12353CHOL    R539042  16.004  22.985   8.150
12353CHOL    C139043  16.108  23.200   8.125
12353CHOL    C239044  16.211  23.415   8.099
12354CHOL   ROH39045   4.108  15.006  21.754
12354CHOL    R139046   4.032  15.061  21.884
12354CHOL    R239047   4.054  14.955  22.090
12354CHOL    R339048   3.946  15.123  22.029
12354CHOL    R439049   3.988  15.003  22.203
12354CHOL    R539050   3.870  15.178  22.159
12354CHOL    C139051   3.756  15.261  22.353
12354CHOL    C239052   3.642  15.343  22.548
12355CHOL   ROH39053  12.280  -3.894   9.928
12355CHOL    R139054  12.303  -4.052   9.931
12355CHOL    R239055  12.296  -4.179   9.735
12355CHOL    R339056  12.330  -4.230   9.935
12355CHOL    R439057  12.316  -4.317   9.738
12355CHOL    R539058  12.353  -4.388   9.938
12355CHOL    C139059  12.388  -4.626   9.943
12355CHOL    C239060  12.423  -4.863   9.948
12356CHOL   ROH39061  -2.426  12.219  16.434
12356CHOL    R139062  -2.565  12.244  16.510
12356CHOL    R239063  -2.579  12.396  16.687
12356CHOL    R339064  -2.720  12.271  16.596
12356CHOL    R439065  -2.701  12.417  16.753
12356CHOL    R539066  -2.859  12.296  16.672
12356CHOL    C139067  -3.067  12.333  16.786
12356CHOL    C239068  -3.275  12.370  16.900
12357CHOL   ROH39069  13.176   1.659  -0.877
12357CHOL    R139070  13.211   1.564  -1.001
12357CHOL    R239071  13.383   1.618  -1.149
12357CHOL    R339072  13.250   1.456  -1.140
12357CHOL    R439073  13.414   1.534  -1.257
12357CHOL    R539074  13.285   1.361  -1.263
12357CHOL    C139075  13.338   1.218  -1.449
12357CHOL    C239076  13.391   1.075  -1.635
12358CHOL   ROH39077   6.000  -0.260   1.125
12358CHOL    R139078   5.956  -0.375   1.023
12358CHOL    R239079   5.937  -0.597   1.094
12358CHOL    R339080   5.905  -0.505   0.909
12358CHOL    R439081   5.898  -0.698   1.005
12358CHOL    R539082   5.861  -0.620   0.808
12358CHOL    C139083   5.794  -0.794   0.655
12358CHOL    C239084   5.728  -0.967   0.503
12359CHOL   ROH39085   3.253   8.997  -2.437
12359CHOL    R139086   3.175   8.989  -2.576
12359CHOL    R239087   3.029   8.813  -2.623
12359CHOL    R339088   3.087   8.981  -2.733
12359CHOL    R439089   2.961   8.807  -2.745
12359CHOL    R539090   3.009   8.973  -2.873
12359CHOL    C139091   2.891   8.962  -3.082
12359CHOL    C239092   2.774   8.951  -3.291
12360CHOL   ROH39093  23.073   5.648  11.953
12360CHOL    R139094  23.224   5.599  11.976
12360CHOL    R239095  23.354   5.524  11.798
12360CHOL    R339096  23.393   5.544  12.003
12360CHOL    R439097  23.486   5.481  11.819
12360CHOL    R539098  23.544   5.495  12.026
12360CHOL    C139099  23.769   5.422  12.061
12360CHOL    C239100  23.995   5.348  12.096
12361CHOL   ROH39101  22.529   4.293   7.920
12361CHOL    R139102  22.672   4.226   7.897
12361CHOL    R239103  22.713   4.092   7.710
12361CHOL    R339104  22.834   4.150   7.871
12361CHOL    R439105  22.839   4.033   7.690
12361CHOL    R539106  22.977   4.083   7.848
12361CHOL    C139107  23.192   3.982   7.813
12361CHOL    C239108  23.407   3.881   7.779
12362CHOL   ROH39109   4.811  11.308  -3.126
12362CHOL    R139110   4.752  11.323  -3.274
12362CHOL    R239111   4.779  11.521  -3.395
12362CHOL    R339112   4.685  11.340  -3.440
12362CHOL    R439113   4.727  11.534  -3.524
12362CHOL    R539114   4.626  11.354  -3.588
12362CHOL    C139115   4.537  11.377  -3.810
12362CHOL    C239116   4.448  11.399  -4.032
12363CHOL   ROH39117   9.650  13.270  23.584
12363CHOL    R139118   9.647  13.309  23.739
12363CHOL    R239119   9.766  13.185  23.897
12363CHOL    R339120   9.644  13.354  23.913
12363CHOL    R439121   9.763  13.219  24.032
12363CHOL    R539122   9.641  13.393  24.069
12363CHOL    C139123   9.637  13.452  24.301
12363CHOL    C239124   9.633  13.511  24.534
12364CHOL   ROH39125  11.765  20.046   0.297
12364CHOL    R139126  11.779  20.159   0.185
12364CHOL    R239127  11.986  20.253   0.134
12364CHOL    R339128  11.794  20.286   0.058
12364CHOL    R439129  11.998  20.352   0.036
12364CHOL    R539130  11.808  20.399  -0.055
12364CHOL    C139131  11.829  20.568  -0.223
12364CHOL    C239132  11.849  20.738  -0.392
12365CHOL   ROH39133   2.027  18.434   1.830
12365CHOL    R139134   1.937  18.534   1.743
12365CHOL    R239135   2.030  18.656   1.567
12365CHOL    R339136   1.837  18.646   1.645
12365CHOL    R439137   1.952  18.744   1.491
12365CHOL    R539138   1.747  18.746   1.558
12365CHOL    C139139   1.613  18.896   1.427
12365CHOL    C239140   1.478  19.046   1.297
12366CHOL   ROH39141  22.526   9.868  16.075
12366CHOL    R139142  22.668   9.866  16.149
12366CHOL    R239143  22.858   9.784  16.041
12366CHOL    R339144  22.828   9.864  16.232
12366CHOL    R439145  22.982   9.783  16.106
12366CHOL    R539146  22.969   9.862  16.305
12366CHOL    C139147  23.182   9.859  16.416
12366CHOL    C239148  23.395   9.856  16.527
12367CHOL   ROH39149   2.941  -0.983  15.428
12367CHOL    R139150   2.863  -1.107  15.493
12367CHOL    R239151   2.973  -1.257  15.633
12367CHOL    R339152   2.776  -1.247  15.565
12367CHOL    R439153   2.905  -1.366  15.689
12367CHOL    R539154   2.698  -1.371  15.630
12367CHOL    C139155   2.582  -1.557  15.727
12367CHOL    C239156   2.466  -1.743  15.824
12368CHOL   ROH39157  22.791   5.910   6.190
12368CHOL    R139158  22.940   5.866   6.152
12368CHOL    R239159  22.992   5.791   5.937
12368CHOL    R339160  23.108   5.815   6.109
12368CHOL    R439161  23.122   5.752   5.904
12368CHOL    R539162  23.257   5.771   6.071
12368CHOL    C139163  23.480   5.704   6.015
12368CHOL    C239164  23.703   5.638   5.958
12369CHOL   ROH39165   1.346   0.059  15.190
12369CHOL    R139166   1.249  -0.052  15.252
12369CHOL    R239167   1.330  -0.264  15.307
12369CHOL    R339168   1.141  -0.178  15.322
12369CHOL    R439169   1.246  -0.362  15.361
12369CHOL    R539170   1.044  -0.289  15.384
12369CHOL    C139171   0.899  -0.456  15.478
12369CHOL    C239172   0.754  -0.623  15.571
12370CHOL   ROH39173   8.325  20.683  18.898
12370CHOL    R139174   8.303  20.800  19.005
12370CHOL    R239175   8.306  20.756  19.234
12370CHOL    R339176   8.278  20.932  19.124
12370CHOL    R439177   8.286  20.859  19.327
12370CHOL    R539178   8.256  21.049  19.231
12370CHOL    C139179   8.222  21.225  19.391
12370CHOL    C239180   8.189  21.401  19.551
12371CHOL   ROH39181  11.373  18.045  21.352
12371CHOL    R139182  11.392  18.136  21.482
12371CHOL    R239183  11.573  18.282  21.502
12371CHOL    R339184  11.413  18.238  21.629
12371CHOL    R439185  11.589  18.362  21.616
12371CHOL    R539186  11.432  18.329  21.759
12371CHOL    C139187  11.460  18.465  21.955
12371CHOL    C239188  11.489  18.602  22.151
12372CHOL   ROH39189  16.156  21.493   4.846
12372CHOL    R139190  16.223  21.625   4.786
12372CHOL    R239191  16.431  21.699   4.860
12372CHOL    R339192  16.297  21.775   4.718
12372CHOL    R439193  16.489  21.815   4.807
12372CHOL    R539194  16.364  21.907   4.658
12372CHOL    C139195  16.464  22.106   4.568
12372CHOL    C239196  16.564  22.304   4.478
12373CHOL   ROH39197  19.305  20.374  10.990
12373CHOL    R139198  19.411  20.492  11.006
12373CHOL    R239199  19.621  20.479  10.905
12373CHOL    R339200  19.531  20.626  11.024
12373CHOL    R439201  19.715  20.583  10.919
12373CHOL    R539202  19.638  20.744  11.040
12373CHOL    C139203  19.797  20.922  11.063
12373CHOL    C239204  19.957  21.099  11.087
12374CHOL   ROH39205  -1.154   1.414  11.791
12374CHOL    R139206  -1.279   1.317  11.813
12374CHOL    R239207  -1.294   1.180  12.001
12374CHOL    R339208  -1.421   1.208  11.838
12374CHOL    R439209  -1.404   1.096  12.020
12374CHOL    R539210  -1.546   1.111  11.860
12374CHOL    C139211  -1.734   0.966  11.892
12374CHOL    C239212  -1.922   0.821  11.925
12375CHOL   ROH39213  -0.249   2.515  16.248
12375CHOL    R139214  -0.363   2.430  16.320
12375CHOL    R239215  -0.340   2.199  16.350
12375CHOL    R339216  -0.492   2.333  16.402
12375CHOL    R439217  -0.440   2.125  16.413
12375CHOL    R539218  -0.606   2.248  16.475
12375CHOL    C139219  -0.777   2.120  16.583
12375CHOL    C239220  -0.949   1.992  16.692
12376CHOL   ROH39221  11.427  -3.986   9.816
12376CHOL    R139222  11.438  -4.146   9.818
12376CHOL    R239223  11.512  -4.264   9.631
12376CHOL    R339224  11.450  -4.325   9.821
12376CHOL    R439225  11.522  -4.403   9.633
12376CHOL    R539226  11.461  -4.485   9.823
12376CHOL    C139227  11.478  -4.725   9.826
12376CHOL    C239228  11.495  -4.964   9.830
12377CHOL   ROH39229  -2.168  12.736   3.156
12377CHOL    R139230  -2.309  12.772   3.089
12377CHOL    R239231  -2.494  12.825   3.221
12377CHOL    R339232  -2.468  12.812   3.014
12377CHOL    R439233  -2.617  12.856   3.163
12377CHOL    R539234  -2.609  12.848   2.948
12377CHOL    C139235  -2.820  12.902   2.847
12377CHOL    C239236  -3.031  12.956   2.747
12378CHOL   ROH39237  22.716  15.371   8.630
12378CHOL    R139238  22.862  15.434   8.614
12378CHOL    R239239  23.050  15.298   8.589
12378CHOL    R339240  23.026  15.505   8.596
12378CHOL    R439241  23.177  15.353   8.574
12378CHOL    R539242  23.172  15.569   8.579
12378CHOL    C139243  23.392  15.663   8.555
12378CHOL    C239244  23.611  15.758   8.531
12379CHOL   ROH39245   5.215   4.753  -2.320
12379CHOL    R139246   5.161   4.693  -2.458
12379CHOL    R239247   5.287   4.540  -2.580
12379CHOL    R339248   5.099   4.625  -2.613
12379CHOL    R439249   5.240   4.487  -2.701
12379CHOL    R539250   5.045   4.565  -2.751
12379CHOL    C139251   4.963   4.475  -2.958
12379CHOL    C239252   4.882   4.385  -3.165
12380CHOL   ROH39253  22.467   4.725  13.283
12380CHOL    R139254  22.612   4.668  13.320
12380CHOL    R239255  22.730   4.535  13.169
12380CHOL    R339256  22.775   4.603  13.361
12380CHOL    R439257  22.857   4.485  13.201
12380CHOL    R539258  22.919   4.545  13.397
12380CHOL    C139259  23.137   4.459  13.452
12380CHOL    C239260  23.354   4.373  13.507
12381CHOL   ROH39261  19.143   5.224   0.584
12381CHOL    R139262  19.247   5.165   0.478
12381CHOL    R239263  19.178   5.016   0.312
12381CHOL    R339264  19.364   5.098   0.358
12381CHOL    R439265  19.269   4.965   0.219
12381CHOL    R539266  19.468   5.039   0.252
12381CHOL    C139267  19.624   4.950   0.093
12381CHOL    C239268  19.780   4.861  -0.067
12382CHOL   ROH39269  23.469  11.698  12.850
12382CHOL    R139270  23.624  11.718  12.883
12382CHOL    R239271  23.733  11.917  12.829
12382CHOL    R339272  23.799  11.741  12.921
12382CHOL    R439273  23.869  11.935  12.858
12382CHOL    R539274  23.954  11.761  12.954
12382CHOL    C139275  24.187  11.792  13.004
12382CHOL    C239276  24.420  11.822  13.054
12383CHOL   ROH39277  16.968  -1.210   5.345
12383CHOL    R139278  17.044  -1.340   5.293
12383CHOL    R239279  17.226  -1.428   5.409
12383CHOL    R339280  17.131  -1.487   5.233
12383CHOL    R439281  17.293  -1.542   5.363
12383CHOL    R539282  17.207  -1.618   5.181
12383CHOL    C139283  17.322  -1.813   5.102
12383CHOL    C239284  17.436  -2.009   5.024
12384CHOL   ROH39285  -3.082  15.439   8.937
12384CHOL    R139286  -3.230  15.499   8.924
12384CHOL    R239287  -3.263  15.726   8.883
12384CHOL    R339288  -3.396  15.567   8.909
12384CHOL    R439289  -3.393  15.779   8.872
12384CHOL    R539290  -3.543  15.627   8.896
12384CHOL    C139291  -3.765  15.717   8.876
12384CHOL    C239292  -3.987  15.807   8.857
12385CHOL   ROH39293  15.995  18.724   0.763
12385CHOL    R139294  16.070  18.824   0.663
12385CHOL    R239295  16.299  18.805   0.623
12385CHOL    R339296  16.154  18.937   0.551
12385CHOL    R439297  16.364  18.893   0.536
12385CHOL    R539298  16.229  19.037   0.452
12385CHOL    C139299  16.341  19.188   0.302
12385CHOL    C239300  16.454  19.338   0.152
12386CHOL   ROH39301  20.742   6.404   1.736
12386CHOL    R139302  20.864   6.362   1.642
12386CHOL    R239303  20.864   6.415   1.415
12386CHOL    R339304  21.001   6.314   1.536
12386CHOL    R439305  20.971   6.378   1.332
12386CHOL    R539306  21.123   6.271   1.442
12386CHOL    C139307  21.307   6.208   1.300
12386CHOL    C239308  21.490   6.144   1.159
12387CHOL   ROH39309  17.902   2.403   1.300
12387CHOL    R139310  17.998   2.321   1.201
12387CHOL    R239311  17.926   2.259   0.989
12387CHOL    R339312  18.105   2.229   1.091
12387CHOL    R439313  18.009   2.187   0.902
12387CHOL    R539314  18.201   2.146   0.992
12387CHOL    C139315  18.345   2.023   0.844
12387CHOL    C239316  18.488   1.900   0.696
12388CHOL   ROH39317  19.504   5.058   1.046
12388CHOL    R139318  19.611   4.997   0.944
12388CHOL    R239319  19.547   4.846   0.778
12388CHOL    R339320  19.732   4.928   0.829
12388CHOL    R439321  19.641   4.793   0.689
12388CHOL    R539322  19.839   4.867   0.727
12388CHOL    C139323  20.000   4.776   0.575
12388CHOL    C239324  20.161   4.685   0.422
12389CHOL   ROH39325  14.321  20.697   1.959
12389CHOL    R139326  14.376  20.820   1.873
12389CHOL    R239327  14.333  20.836   1.644
12389CHOL    R339328  14.438  20.958   1.776
12389CHOL    R439329  14.381  20.943   1.569
12389CHOL    R539330  14.494  21.081   1.690
12389CHOL    C139331  14.576  21.266   1.561
12389CHOL    C239332  14.659  21.451   1.432
12390CHOL   ROH39333   4.248  -2.244  14.052
12390CHOL    R139334   4.185  -2.384  14.098
12390CHOL    R239335   4.312  -2.579  14.098
12390CHOL    R339336   4.114  -2.540  14.150
12390CHOL    R439337   4.257  -2.701  14.139
12390CHOL    R539338   4.050  -2.680  14.196
12390CHOL    C139339   3.956  -2.889  14.265
12390CHOL    C239340   3.861  -3.099  14.334
12391CHOL   ROH39341  -0.986   2.262   5.468
12391CHOL    R139342  -1.112   2.173   5.424
12391CHOL    R239343  -1.263   2.093   5.582
12391CHOL    R339344  -1.253   2.074   5.374
12391CHOL    R439345  -1.373   2.016   5.543
12391CHOL    R539346  -1.378   1.985   5.330
12391CHOL    C139347  -1.567   1.852   5.264
12391CHOL    C239348  -1.755   1.719   5.198
12392CHOL   ROH39349   9.287   3.263  22.227
12392CHOL    R139350   9.277   3.188  22.368
12392CHOL    R239351   9.428   3.236  22.540
12392CHOL    R339352   9.266   3.104  22.527
12392CHOL    R439353   9.419   3.171  22.663
12392CHOL    R539354   9.256   3.029  22.668
12392CHOL    C139355   9.242   2.917  22.880
12392CHOL    C239356   9.227   2.805  23.091
12393CHOL   ROH39357  -0.283  16.466   2.660
12393CHOL    R139358  -0.401  16.539   2.581
12393CHOL    R239359  -0.496  16.736   2.661
12393CHOL    R339360  -0.535  16.620   2.491
12393CHOL    R439361  -0.600  16.799   2.591
12393CHOL    R539362  -0.653  16.693   2.412
12393CHOL    C139363  -0.831  16.802   2.293
12393CHOL    C239364  -1.008  16.911   2.174
12394CHOL   ROH39365   4.161   3.554  -1.160
12394CHOL    R139366   4.091   3.476  -1.281
12394CHOL    R239367   3.932   3.311  -1.241
12394CHOL    R339368   4.013   3.387  -1.417
12394CHOL    R439369   3.871   3.242  -1.347
12394CHOL    R539370   3.943   3.309  -1.538
12394CHOL    C139371   3.839   3.191  -1.719
12394CHOL    C239372   3.735   3.074  -1.901
12395CHOL   ROH39373   7.868  12.463  -3.780
12395CHOL    R139374   7.847  12.490  -3.936
12395CHOL    R239375   8.024  12.471  -4.087
12395CHOL    R339376   7.823  12.520  -4.112
12395CHOL    R439377   8.006  12.495  -4.223
12395CHOL    R539378   7.801  12.547  -4.268
12395CHOL    C139379   7.770  12.587  -4.503
12395CHOL    C239380   7.738  12.627  -4.737
12396CHOL   ROH39381  12.636  20.044  19.311
12396CHOL    R139382  12.665  20.161  19.416
12396CHOL    R239383  12.840  20.145  19.569
12396CHOL    R339384  12.698  20.294  19.533
12396CHOL    R439385  12.866  20.247  19.660
12396CHOL    R539386  12.727  20.411  19.638
12396CHOL    C139387  12.771  20.587  19.795
12396CHOL    C239388  12.815  20.763  19.952
12397CHOL   ROH39389   8.341  -1.102  18.449
12397CHOL    R139390   8.324  -1.228  18.546
12397CHOL    R239391   8.489  -1.393  18.557
12397CHOL    R339392   8.306  -1.371  18.654
12397CHOL    R439393   8.475  -1.504  18.642
12397CHOL    R539394   8.289  -1.497  18.751
12397CHOL    C139395   8.264  -1.687  18.896
12397CHOL    C239396   8.239  -1.876  19.041
12398CHOL   ROH39397  -0.107   3.592   2.271
12398CHOL    R139398  -0.214   3.518   2.178
12398CHOL    R239399  -0.252   3.289   2.196
12398CHOL    R339400  -0.334   3.435   2.072
12398CHOL    R439401  -0.345   3.224   2.114
12398CHOL    R539402  -0.441   3.362   1.979
12398CHOL    C139403  -0.602   3.251   1.839
12398CHOL    C239404  -0.763   3.140   1.699
12399CHOL   ROH39405   2.877   5.099  -1.237
12399CHOL    R139406   2.794   5.039  -1.360
12399CHOL    R239407   2.568   4.986  -1.337
12399CHOL    R339408   2.701   4.971  -1.498
12399CHOL    R439409   2.495   4.933  -1.445
12399CHOL    R539410   2.618   4.910  -1.620
12399CHOL    C139411   2.493   4.820  -1.805
12399CHOL    C239412   2.368   4.730  -1.989
12400CHOL   ROH39413   5.495   5.806  22.620
12400CHOL    R139414   5.456   5.757  22.767
12400CHOL    R239415   5.422   5.910  22.940
12400CHOL    R339416   5.412   5.702  22.933
12400CHOL    R439417   5.388   5.867  23.069
12400CHOL    R539418   5.372   5.653  23.080
12400CHOL    C139419   5.314   5.580  23.301
12400CHOL    C239420   5.255   5.506  23.522
12401CHOL   ROH39421  10.723   4.942  -3.120
12401CHOL    R139422  10.729   4.888  -3.270
12401CHOL    R239423  10.828   5.014  -3.439
12401CHOL    R339424  10.736   4.827  -3.440
12401CHOL    R439425  10.834   4.967  -3.571
12401CHOL    R539426  10.743   4.772  -3.590
12401CHOL    C139427  10.752   4.691  -3.816
12401CHOL    C239428  10.761   4.610  -4.041
12402CHOL   ROH39429   6.661  22.670  15.044
12402CHOL    R139430   6.622  22.814  15.101
12402CHOL    R239431   6.752  23.001  15.054
12402CHOL    R339432   6.578  22.976  15.166
12402CHOL    R439433   6.718  23.128  15.104
12402CHOL    R539434   6.539  23.120  15.224
12402CHOL    C139435   6.480  23.337  15.310
12402CHOL    C239436   6.422  23.553  15.396
12403CHOL   ROH39437  -3.968   8.048  11.381
12403CHOL    R139438  -4.125   8.023  11.401
12403CHOL    R239439  -4.204   7.900  11.583
12403CHOL    R339440  -4.301   7.994  11.424
12403CHOL    R439441  -4.341   7.878  11.601
12403CHOL    R539442  -4.457   7.969  11.444
12403CHOL    C139443  -4.692   7.930  11.474
12403CHOL    C239444  -4.927   7.892  11.504
12404CHOL   ROH39445  -1.318  16.076   4.091
12404CHOL    R139446  -1.449  16.142   4.027
12404CHOL    R239447  -1.514  16.359   4.084
12404CHOL    R339448  -1.595  16.217   3.954
12404CHOL    R439449  -1.628  16.416   4.028
12404CHOL    R539450  -1.726  16.283   3.889
12404CHOL    C139451  -1.922  16.382   3.793
12404CHOL    C239452  -2.118  16.482   3.696
12405CHOL   ROH39453  -1.924   5.972   3.262
12405CHOL    R139454  -2.059   5.933   3.186
12405CHOL    R239455  -2.267   5.975   3.283
12405CHOL    R339456  -2.212   5.888   3.101
12405CHOL    R439457  -2.386   5.941   3.216
12405CHOL    R539458  -2.347   5.849   3.026
12405CHOL    C139459  -2.550   5.790   2.912
12405CHOL    C239460  -2.753   5.731   2.798
12406CHOL   ROH39461   7.951  23.274   5.626
12406CHOL    R139462   7.930  23.425   5.578
12406CHOL    R239463   8.071  23.522   5.420
12406CHOL    R339464   7.906  23.595   5.525
12406CHOL    R439465   8.052  23.654   5.378
12406CHOL    R539466   7.884  23.747   5.477
12406CHOL    C139467   7.853  23.973   5.405
12406CHOL    C239468   7.821  24.200   5.334
12407CHOL   ROH39469  16.275   4.507  -1.311
12407CHOL    R139470  16.351   4.450  -1.440
12407CHOL    R239471  16.527   4.569  -1.537
12407CHOL    R339472  16.437   4.387  -1.585
12407CHOL    R439473  16.594   4.519  -1.649
12407CHOL    R539474  16.513   4.330  -1.714
12407CHOL    C139475  16.627   4.245  -1.907
12407CHOL    C239476  16.741   4.160  -2.100
12408CHOL   ROH39477  10.933  -4.016   9.626
12408CHOL    R139478  10.940  -4.176   9.626
12408CHOL    R239479  11.116  -4.288   9.521
12408CHOL    R339480  10.949  -4.356   9.626
12408CHOL    R439481  11.122  -4.428   9.520
12408CHOL    R539482  10.956  -4.516   9.626
12408CHOL    C139483  10.967  -4.755   9.625
12408CHOL    C239484  10.978  -4.995   9.625
12409CHOL   ROH39485  14.237   1.798  20.468
12409CHOL    R139486  14.283   1.700  20.586
12409CHOL    R239487  14.399   1.503  20.539
12409CHOL    R339488  14.335   1.590  20.718
12409CHOL    R439489  14.440   1.418  20.643
12409CHOL    R539490  14.381   1.492  20.836
12409CHOL    C139491  14.450   1.345  21.013
12409CHOL    C239492  14.519   1.198  21.189
12410CHOL   ROH39493  20.233   1.913   4.903
12410CHOL    R139494  20.351   1.821   4.847
12410CHOL    R239495  20.567   1.905   4.819
12410CHOL    R339496  20.484   1.717   4.783
12410CHOL    R439497  20.670   1.824   4.770
12410CHOL    R539498  20.601   1.625   4.727
12410CHOL    C139499  20.778   1.486   4.643
12410CHOL    C239500  20.955   1.348   4.558
12411CHOL   ROH39501  -0.351  19.396  12.189
12411CHOL    R139502  -0.471  19.498  12.218
12411CHOL    R239503  -0.430  19.708  12.311
12411CHOL    R339504  -0.606  19.613  12.250
12411CHOL    R439505  -0.535  19.797  12.336
12411CHOL    R539506  -0.726  19.715  12.278
12411CHOL    C139507  -0.906  19.867  12.321
12411CHOL    C239508  -1.086  20.020  12.364
12412CHOL   ROH39509  -2.471   7.503  16.312
12412CHOL    R139510  -2.613   7.483  16.383
12412CHOL    R239511  -2.716   7.659  16.497
12412CHOL    R339512  -2.773   7.461  16.462
12412CHOL    R439513  -2.841   7.641  16.558
12412CHOL    R539514  -2.915   7.441  16.532
12412CHOL    C139515  -3.129   7.411  16.638
12412CHOL    C239516  -3.342   7.381  16.744
12413CHOL   ROH39517  15.064  -0.857  17.249
12413CHOL    R139518  15.120  -0.980  17.335
12413CHOL    R239519  15.346  -0.997  17.387
12413CHOL    R339520  15.182  -1.119  17.431
12413CHOL    R439521  15.395  -1.105  17.462
12413CHOL    R539522  15.237  -1.242  17.517
12413CHOL    C139523  15.321  -1.427  17.645
12413CHOL    C239524  15.404  -1.612  17.773
12414CHOL   ROH39525   4.941   3.864  21.652
12414CHOL    R139526   4.884   3.797  21.785
12414CHOL    R239527   4.930   3.574  21.836
12414CHOL    R339528   4.820   3.721  21.936
12414CHOL    R439529   4.880   3.515  21.953
12414CHOL    R539530   4.762   3.653  22.069
12414CHOL    C139531   4.677   3.552  22.269
12414CHOL    C239532   4.591   3.451  22.469
12415CHOL   ROH39533  20.134   7.771   0.560
12415CHOL    R139534  20.251   7.749   0.454
12415CHOL    R239535  20.217   7.792   0.227
12415CHOL    R339536  20.384   7.724   0.334
12415CHOL    R439537  20.320   7.772   0.134
12415CHOL    R539538  20.501   7.703   0.227
12415CHOL    C139539  20.677   7.670   0.068
12415CHOL    C239540  20.853   7.637  -0.092
12416CHOL   ROH39541  20.396   5.733   1.647
12416CHOL    R139542  20.511   5.679   1.550
12416CHOL    R239543  20.520   5.743   1.326
12416CHOL    R339544  20.641   5.617   1.442
12416CHOL    R439545  20.621   5.695   1.242
12416CHOL    R539546  20.756   5.563   1.345
12416CHOL    C139547  20.930   5.481   1.200
12416CHOL    C239548  21.103   5.400   1.055
12417CHOL   ROH39549  15.134  -2.522   6.477
12417CHOL    R139550  15.195  -2.664   6.436
12417CHOL    R239551  15.425  -2.703   6.447
12417CHOL    R339552  15.264  -2.824   6.391
12417CHOL    R439553  15.479  -2.828   6.412
12417CHOL    R539554  15.325  -2.966   6.350
12417CHOL    C139555  15.417  -3.179   6.289
12417CHOL    C239556  15.509  -3.392   6.228
12418CHOL   ROH39557   6.400   4.592  22.371
12418CHOL    R139558   6.371   4.533  22.517
12418CHOL    R239559   6.539   4.525  22.678
12418CHOL    R339560   6.339   4.467  22.681
12418CHOL    R439561   6.514   4.474  22.806
12418CHOL    R539562   6.310   4.409  22.827
12418CHOL    C139563   6.267   4.320  23.046
12418CHOL    C239564   6.224   4.232  23.265
12419CHOL   ROH39565  15.095  15.919  21.545
12419CHOL    R139566  15.152  15.988  21.677
12419CHOL    R239567  15.224  15.859  21.858
12419CHOL    R339568  15.217  16.066  21.827
12419CHOL    R439569  15.274  15.920  21.974
12419CHOL    R539570  15.274  16.134  21.959
12419CHOL    C139571  15.360  16.238  22.158
12419CHOL    C239572  15.446  16.341  22.356
12420CHOL   ROH39573   4.618   0.282  18.671
12420CHOL    R139574   4.559   0.171  18.770
12420CHOL    R239575   4.608   0.175  18.998
12420CHOL    R339576   4.492   0.046  18.881
12420CHOL    R439577   4.556   0.078  19.084
12420CHOL    R539578   4.433  -0.065  18.980
12420CHOL    C139579   4.344  -0.232  19.128
12420CHOL    C239580   4.255  -0.398  19.277
12421CHOL   ROH39581   6.811   1.111  -0.530
12421CHOL    R139582   6.775   1.009  -0.648
12421CHOL    R239583   6.863   1.036  -0.862
12421CHOL    R339584   6.735   0.893  -0.780
12421CHOL    R439585   6.832   0.947  -0.965
12421CHOL    R539586   6.700   0.791  -0.897
12421CHOL    C139587   6.646   0.637  -1.074
12421CHOL    C239588   6.592   0.484  -1.250
12422CHOL   ROH39589  -2.339  16.630   7.605
12422CHOL    R139590  -2.480  16.698   7.572
12422CHOL    R239591  -2.677  16.617   7.666
12422CHOL    R339592  -2.639  16.775   7.534
12422CHOL    R439593  -2.801  16.677   7.636
12422CHOL    R539594  -2.780  16.843   7.501
12422CHOL    C139595  -2.991  16.945   7.451
12422CHOL    C239596  -3.202  17.047   7.401
12423CHOL   ROH39597  13.958  19.383   0.217
12423CHOL    R139598  14.005  19.489   0.107
12423CHOL    R239599  14.167  19.433  -0.052
12423CHOL    R339600  14.058  19.608  -0.018
12423CHOL    R439601  14.208  19.526  -0.149
12423CHOL    R539602  14.105  19.714  -0.128
12423CHOL    C139603  14.176  19.873  -0.294
12423CHOL    C239604  14.246  20.032  -0.459
12424CHOL   ROH39605  17.916  15.244  -0.314
12424CHOL    R139606  18.005  15.304  -0.433
12424CHOL    R239607  17.958  15.251  -0.656
12424CHOL    R339608  18.104  15.370  -0.567
12424CHOL    R439609  18.035  15.303  -0.760
12424CHOL    R539610  18.193  15.430  -0.687
12424CHOL    C139611  18.326  15.519  -0.865
12424CHOL    C239612  18.459  15.609  -1.044
12425CHOL   ROH39613   2.754  22.048   9.836
12425CHOL    R139614   2.671  22.185   9.828
12425CHOL    R239615   2.739  22.358   9.687
12425CHOL    R339616   2.578  22.338   9.819
12425CHOL    R439617   2.666  22.477   9.680
12425CHOL    R539618   2.496  22.475   9.811
12425CHOL    C139619   2.371  22.680   9.799
12425CHOL    C239620   2.247  22.885   9.787
12426CHOL   ROH39621   2.037  21.350  12.749
12426CHOL    R139622   1.954  21.481  12.788
12426CHOL    R239623   2.050  21.693  12.773
12426CHOL    R339624   1.861  21.629  12.831
12426CHOL    R439625   1.978  21.808  12.806
12426CHOL    R539626   1.777  21.760  12.870
12426CHOL    C139627   1.653  21.957  12.927
12426CHOL    C239628   1.528  22.154  12.985
12427CHOL   ROH39629  -3.427  12.494  13.909
12427CHOL    R139630  -3.579  12.521  13.952
12427CHOL    R239631  -3.657  12.458  14.163
12427CHOL    R339632  -3.750  12.550  14.000
12427CHOL    R439633  -3.789  12.482  14.200
12427CHOL    R539634  -3.901  12.577  14.043
12427CHOL    C139635  -4.129  12.617  14.107
12427CHOL    C239636  -4.357  12.657  14.172
12428CHOL   ROH39637  -1.493   2.038  12.315
12428CHOL    R139638  -1.624   1.951  12.344
12428CHOL    R239639  -1.645   1.735  12.259
12428CHOL    R339640  -1.771   1.852  12.377
12428CHOL    R439641  -1.760   1.658  12.284
12428CHOL    R539642  -1.902   1.765  12.406
12428CHOL    C139643  -2.098   1.634  12.450
12428CHOL    C239644  -2.295   1.503  12.493
12429CHOL   ROH39645  -1.268   1.937  12.939
12429CHOL    R139646  -1.396   1.849  12.976
12429CHOL    R239647  -1.378   1.618  13.006
12429CHOL    R339648  -1.540   1.749  13.017
12429CHOL    R439649  -1.490   1.541  13.038
12429CHOL    R539650  -1.669   1.661  13.053
12429CHOL    C139651  -1.861   1.528  13.108
12429CHOL    C239652  -2.053   1.395  13.163
12430CHOL   ROH39653  -1.943  10.046   2.284
12430CHOL    R139654  -2.076  10.044   2.195
12430CHOL    R239655  -2.184   9.843   2.145
12430CHOL    R339656  -2.226  10.041   2.095
12430CHOL    R439657  -2.300   9.841   2.067
12430CHOL    R539658  -2.358  10.039   2.006
12430CHOL    C139659  -2.558  10.036   1.873
12430CHOL    C239660  -2.757  10.032   1.739
12431CHOL   ROH39661   1.141  14.300  19.980
12431CHOL    R139662   1.045  14.350  20.097
12431CHOL    R239663   1.127  14.392  20.312
12431CHOL    R339664   0.936  14.407  20.230
12431CHOL    R439665   1.043  14.435  20.414
12431CHOL    R539666   0.840  14.457  20.347
12431CHOL    C139667   0.695  14.532  20.523
12431CHOL    C239668   0.550  14.608  20.699
12432CHOL   ROH39669   5.129  13.503  -2.845
12432CHOL    R139670   5.073  13.544  -2.989
12432CHOL    R239671   4.920  13.718  -3.013
12432CHOL    R339672   5.009  13.590  -3.151
12432CHOL    R439673   4.870  13.754  -3.139
12432CHOL    R539674   4.953  13.630  -3.295
12432CHOL    C139675   4.868  13.692  -3.511
12432CHOL    C239676   4.783  13.753  -3.727
12433CHOL   ROH39677   2.779   7.398  21.817
12433CHOL    R139678   2.695   7.362  21.949
12433CHOL    R239679   2.688   7.144  22.031
12433CHOL    R339680   2.601   7.322  22.096
12433CHOL    R439681   2.615   7.113  22.146
12433CHOL    R539682   2.517   7.287  22.228
12433CHOL    C139683   2.391   7.233  22.425
12433CHOL    C239684   2.265   7.179  22.623
12434CHOL   ROH39685  11.401  22.621  15.926
12434CHOL    R139686  11.422  22.764  15.994
12434CHOL    R239687  11.623  22.880  15.972
12434CHOL    R339688  11.446  22.925  16.072
12434CHOL    R439689  11.642  23.005  16.032
12434CHOL    R539690  11.466  23.068  16.140
12434CHOL    C139691  11.498  23.283  16.243
12434CHOL    C239692  11.529  23.497  16.345
12435CHOL   ROH39693  12.418  -1.412  17.696
12435CHOL    R139694  12.445  -1.536  17.793
12435CHOL    R239695  12.643  -1.552  17.916
12435CHOL    R339696  12.475  -1.675  17.903
12435CHOL    R439697  12.666  -1.660  18.001
12435CHOL    R539698  12.502  -1.799  18.001
12435CHOL    C139699  12.542  -1.985  18.147
12435CHOL    C239700  12.582  -2.171  18.293
12436CHOL   ROH39701   2.538  20.360  15.983
12436CHOL    R139702   2.456  20.481  16.048
12436CHOL    R239703   2.537  20.594  16.235
12436CHOL    R339704   2.364  20.618  16.121
12436CHOL    R439705   2.466  20.701  16.291
12436CHOL    R539706   2.282  20.739  16.185
12436CHOL    C139707   2.159  20.921  16.283
12436CHOL    C239708   2.036  21.103  16.380
12437CHOL   ROH39709  14.832  18.736   0.040
12437CHOL    R139710  14.891  18.834  -0.072
12437CHOL    R239711  15.092  18.785  -0.180
12437CHOL    R339712  14.957  18.943  -0.199
12437CHOL    R439713  15.143  18.870  -0.279
12437CHOL    R539714  15.016  19.041  -0.311
12437CHOL    C139715  15.104  19.187  -0.479
12437CHOL    C239716  15.193  19.334  -0.648
12438CHOL   ROH39717  11.800  17.625  21.561
12438CHOL    R139718  11.824  17.709  21.695
12438CHOL    R239719  12.009  17.849  21.718
12438CHOL    R339720  11.850  17.804  21.846
12438CHOL    R439721  12.030  17.923  21.835
12438CHOL    R539722  11.874  17.888  21.979
12438CHOL    C139723  11.910  18.015  22.180
12438CHOL    C239724  11.945  18.141  22.381
12439CHOL   ROH39725   3.658  -2.072   6.131
12439CHOL    R139726   3.589  -2.210   6.089
12439CHOL    R239727   3.576  -2.389   6.238
12439CHOL    R339728   3.511  -2.365   6.041
12439CHOL    R439729   3.516  -2.509   6.201
12439CHOL    R539730   3.442  -2.503   5.998
12439CHOL    C139731   3.338  -2.710   5.935
12439CHOL    C239732   3.235  -2.917   5.871
12440CHOL   ROH39733   0.745  15.047  19.287
12440CHOL    R139734   0.646  15.105  19.398
12440CHOL    R239735   0.723  15.159  19.612
12440CHOL    R339736   0.535  15.170  19.524
12440CHOL    R439737   0.637  15.210  19.709
12440CHOL    R539738   0.435  15.229  19.635
12440CHOL    C139739   0.287  15.316  19.802
12440CHOL    C239740   0.138  15.403  19.969
12441CHOL   ROH39741   9.091  20.557  19.163
12441CHOL    R139742   9.078  20.674  19.271
12441CHOL    R239743   9.158  20.646  19.488
12441CHOL    R339744   9.063  20.806  19.393
12441CHOL    R439745   9.147  20.749  19.583
12441CHOL    R539746   9.050  20.923  19.501
12441CHOL    C139747   9.031  21.099  19.663
12441CHOL    C239748   9.012  21.274  19.825
12442CHOL   ROH39749   3.126  19.775   2.487
12442CHOL    R139750   3.048  19.890   2.408
12442CHOL    R239751   3.136  20.105   2.391
12442CHOL    R339752   2.960  20.019   2.319
12442CHOL    R439753   3.067  20.206   2.321
12442CHOL    R539754   2.882  20.134   2.240
12442CHOL    C139755   2.764  20.306   2.121
12442CHOL    C239756   2.647  20.479   2.002
12443CHOL   ROH39757  22.355   3.554   9.692
12443CHOL    R139758  22.496   3.478   9.684
12443CHOL    R239759  22.665   3.552   9.542
12443CHOL    R339760  22.654   3.393   9.676
12443CHOL    R439761  22.788   3.486   9.535
12443CHOL    R539762  22.794   3.317   9.669
12443CHOL    C139763  23.005   3.203   9.657
12443CHOL    C239764  23.216   3.089   9.646
12444CHOL   ROH39765  -2.358  16.778   8.058
12444CHOL    R139766  -2.499  16.850   8.033
12444CHOL    R239767  -2.695  16.764   8.125
12444CHOL    R339768  -2.657  16.931   8.006
12444CHOL    R439769  -2.819  16.827   8.103
12444CHOL    R539770  -2.798  17.003   7.981
12444CHOL    C139771  -3.009  17.111   7.944
12444CHOL    C239772  -3.220  17.219   7.907
12445CHOL   ROH39773  23.797   9.095   9.441
12445CHOL    R139774  23.957   9.086   9.437
12445CHOL    R239775  24.087   9.277   9.404
12445CHOL    R339776  24.136   9.076   9.432
12445CHOL    R439777  24.226   9.269   9.400
12445CHOL    R539778  24.296   9.067   9.427
12445CHOL    C139779  24.536   9.054   9.421
12445CHOL    C239780  24.775   9.040   9.415
12446CHOL   ROH39781  15.775  -0.812  16.794
12446CHOL    R139782  15.842  -0.934  16.873
12446CHOL    R239783  16.021  -1.052  16.783
12446CHOL    R339784  15.916  -1.071  16.963
12446CHOL    R439785  16.079  -1.159  16.852
12446CHOL    R539786  15.983  -1.193  17.042
12446CHOL    C139787  16.083  -1.376  17.161
12446CHOL    C239788  16.183  -1.559  17.280
12447CHOL   ROH39789   4.241   4.465  21.608
12447CHOL    R139790   4.170   4.405  21.738
12447CHOL    R239791   4.173   4.175  21.780
12447CHOL    R339792   4.090   4.336  21.884
12447CHOL    R439793   4.111   4.122  21.894
12447CHOL    R539794   4.019   4.276  22.014
12447CHOL    C139795   3.912   4.185  22.209
12447CHOL    C239796   3.806   4.095  22.404
12448CHOL   ROH39797  11.644   7.194  23.594
12448CHOL    R139798  11.669   7.162  23.749
12448CHOL    R239799  11.857   7.043  23.818
12448CHOL    R339800  11.697   7.127  23.923
12448CHOL    R439801  11.879   7.015  23.954
12448CHOL    R539802  11.723   7.095  24.078
12448CHOL    C139803  11.760   7.047  24.310
12448CHOL    C239804  11.798   7.000  24.543
12449CHOL   ROH39805   5.561  19.988   1.075
12449CHOL    R139806   5.516  20.106   0.977
12449CHOL    R239807   5.534  20.330   1.042
12449CHOL    R339808   5.465  20.239   0.867
12449CHOL    R439809   5.495  20.433   0.956
12449CHOL    R539810   5.421  20.357   0.768
12449CHOL    C139811   5.353  20.535   0.621
12449CHOL    C239812   5.286  20.712   0.474
12450CHOL   ROH39813   1.585   1.513  17.512
12450CHOL    R139814   1.490   1.420  17.601
12450CHOL    R239815   1.580   1.268  17.754
12450CHOL    R339816   1.384   1.314  17.701
12450CHOL    R439817   1.497   1.187  17.831
12450CHOL    R539818   1.289   1.221  17.790
12450CHOL    C139819   1.147   1.081  17.923
12450CHOL    C239820   1.005   0.941  18.056
12451CHOL   ROH39821   5.274  -3.192  11.553
12451CHOL    R139822   5.221  -3.342  11.571
12451CHOL    R239823   5.193  -3.435  11.783
12451CHOL    R339824   5.161  -3.511  11.591
12451CHOL    R439825   5.147  -3.566  11.798
12451CHOL    R539826   5.108  -3.661  11.609
12451CHOL    C139827   5.028  -3.885  11.635
12451CHOL    C239828   4.949  -4.110  11.662
12452CHOL   ROH39829  -3.220  11.322  14.994
12452CHOL    R139830  -3.370  11.332  15.050
12452CHOL    R239831  -3.436  11.209  15.237
12452CHOL    R339832  -3.538  11.342  15.113
12452CHOL    R439833  -3.567  11.218  15.287
12452CHOL    R539834  -3.687  11.352  15.169
12452CHOL    C139835  -3.912  11.366  15.254
12452CHOL    C239836  -4.136  11.381  15.338
12453CHOL   ROH39837  13.943   0.269  19.150
12453CHOL    R139838  13.985   0.157  19.257
12453CHOL    R239839  14.005  -0.067  19.195
12453CHOL    R339840  14.032   0.032  19.377
12453CHOL    R439841  14.042  -0.164  19.289
12453CHOL    R539842  14.074  -0.079  19.484
12453CHOL    C139843  14.137  -0.247  19.644
12453CHOL    C239844  14.200  -0.414  19.805
12454CHOL   ROH39845  -3.328   5.274  10.635
12454CHOL    R139846  -3.479   5.221  10.644
12454CHOL    R239847  -3.524   4.998  10.695
12454CHOL    R339848  -3.648   5.161  10.655
12454CHOL    R439849  -3.656   4.951  10.704
12454CHOL    R539850  -3.798   5.108  10.664
12454CHOL    C139851  -4.024   5.028  10.678
12454CHOL    C239852  -4.250   4.948  10.692
12455CHOL   ROH39853  23.152   9.606   5.438
12455CHOL    R139854  23.304   9.602   5.390
12455CHOL    R239855  23.391   9.415   5.281
12455CHOL    R339856  23.476   9.598   5.336
12455CHOL    R439857  23.524   9.412   5.239
12455CHOL    R539858  23.629   9.594   5.287
12455CHOL    C139859  23.857   9.588   5.215
12455CHOL    C239860  24.086   9.582   5.143
12456CHOL   ROH39861  -0.525  17.275   3.875
12456CHOL    R139862  -0.645  17.355   3.806
12456CHOL    R239863  -0.789  17.487   3.933
12456CHOL    R339864  -0.781  17.445   3.729
12456CHOL    R439865  -0.895  17.557   3.873
12456CHOL    R539866  -0.901  17.525   3.661
12456CHOL    C139867  -1.081  17.645   3.558
12456CHOL    C239868  -1.262  17.765   3.455
12457CHOL   ROH39869  16.513  14.594  21.352
12457CHOL    R139870  16.601  14.645  21.476
12457CHOL    R239871  16.695  14.858  21.477
12457CHOL    R339872  16.700  14.701  21.615
12457CHOL    R439873  16.772  14.902  21.585
12457CHOL    R539874  16.789  14.752  21.738
12457CHOL    C139875  16.921  14.828  21.924
12457CHOL    C239876  17.053  14.904  22.110
12458CHOL   ROH39877  10.154  18.416  -1.264
12458CHOL    R139878  10.158  18.516  -1.389
12458CHOL    R239879  10.335  18.665  -1.418
12458CHOL    R339880  10.162  18.629  -1.529
12458CHOL    R439881  10.338  18.753  -1.527
12458CHOL    R539882  10.166  18.729  -1.653
12458CHOL    C139883  10.171  18.880  -1.840
12458CHOL    C239884  10.177  19.030  -2.027
12459CHOL   ROH39885  19.293  18.510   4.061
12459CHOL    R139886  19.397  18.609   3.991
12459CHOL    R239887  19.602  18.532   3.910
12459CHOL    R339888  19.514  18.721   3.911
12459CHOL    R439889  19.693  18.619   3.849
12459CHOL    R539890  19.618  18.821   3.841
12459CHOL    C139891  19.773  18.970   3.735
12459CHOL    C239892  19.929  19.119   3.630
12460CHOL   ROH39893   2.321   2.245  18.878
12460CHOL    R139894   2.233   2.161  18.982
12460CHOL    R239895   2.316   2.107  19.193
12460CHOL    R339896   2.134   2.065  19.098
12460CHOL    R439897   2.239   2.033  19.284
12460CHOL    R539898   2.047   1.981  19.202
12460CHOL    C139899   1.915   1.854  19.358
12460CHOL    C239900   1.783   1.728  19.513
12461CHOL   ROH39901   7.812  -3.659   7.281
12461CHOL    R139902   7.790  -3.815   7.253
12461CHOL    R239903   7.963  -3.947   7.169
12461CHOL    R339904   7.765  -3.990   7.222
12461CHOL    R439905   7.944  -4.084   7.144
12461CHOL    R539906   7.743  -4.146   7.194
12461CHOL    C139907   7.711  -4.380   7.152
12461CHOL    C239908   7.678  -4.614   7.110
12462CHOL   ROH39909   1.744   1.742  17.905
12462CHOL    R139910   1.651   1.652  17.999
12462CHOL    R239911   1.743   1.510  18.159
12462CHOL    R339912   1.546   1.550  18.104
12462CHOL    R439913   1.662   1.431  18.241
12462CHOL    R539914   1.453   1.460  18.198
12462CHOL    C139915   1.313   1.324  18.338
12462CHOL    C239916   1.174   1.188  18.478
12463CHOL   ROH39917   7.874  23.797   8.196
12463CHOL    R139918   7.856  23.955   8.179
12463CHOL    R239919   7.996  24.078   8.039
12463CHOL    R339920   7.835  24.133   8.160
12463CHOL    R439921   7.981  24.216   8.024
12463CHOL    R539922   7.817  24.291   8.143
12463CHOL    C139923   7.790  24.528   8.117
12463CHOL    C239924   7.762  24.765   8.091
12464CHOL   ROH39925   4.682  17.524  20.617
12464CHOL    R139926   4.624  17.613  20.737
12464CHOL    R239927   4.658  17.552  20.959
12464CHOL    R339928   4.558  17.712  20.872
12464CHOL    R439929   4.607  17.629  21.064
12464CHOL    R539930   4.500  17.801  20.991
12464CHOL    C139931   4.412  17.934  21.171
12464CHOL    C239932   4.324  18.067  21.351
12465CHOL   ROH39933  15.375  -1.208  16.468
12465CHOL    R139934  15.435  -1.337  16.542
12465CHOL    R239935  15.663  -1.355  16.586
12465CHOL    R339936  15.501  -1.482  16.625
12465CHOL    R439937  15.715  -1.468  16.651
12465CHOL    R539938  15.561  -1.611  16.698
12465CHOL    C139939  15.650  -1.804  16.809
12465CHOL    C239940  15.740  -1.998  16.920
12466CHOL   ROH39941  13.424  22.303  15.666
12466CHOL    R139942  13.467  22.442  15.732
12466CHOL    R239943  13.549  22.451  15.951
12466CHOL    R339944  13.514  22.599  15.807
12466CHOL    R439945  13.586  22.573  16.009
12466CHOL    R539946  13.557  22.738  15.874
12466CHOL    C139947  13.621  22.947  15.973
12466CHOL    C239948  13.685  23.156  16.073
12467CHOL   ROH39949  19.541  14.675  18.871
12467CHOL    R139950  19.646  14.725  18.981
12467CHOL    R239951  19.874  14.740  18.931
12467CHOL    R339952  19.765  14.781  19.104
12467CHOL    R439953  19.966  14.784  19.027
12467CHOL    R539954  19.870  14.831  19.214
12467CHOL    C139955  20.028  14.905  19.379
12467CHOL    C239956  20.186  14.980  19.543
12468CHOL   ROH39957   6.998   8.171  23.554
12468CHOL    R139958   6.967   8.151  23.710
12468CHOL    R239959   7.140   8.133  23.865
12468CHOL    R339960   6.933   8.127  23.885
12468CHOL    R439961   7.114   8.115  24.001
12468CHOL    R539962   6.902   8.107  24.041
12468CHOL    C139963   6.856   8.076  24.274
12468CHOL    C239964   6.810   8.046  24.508
12469CHOL   ROH39965   1.080  20.779  12.327
12469CHOL    R139966   0.980  20.901  12.353
12469CHOL    R239967   1.006  21.104  12.241
12469CHOL    R339968   0.867  21.038  12.383
12469CHOL    R439969   0.918  21.210  12.263
12469CHOL    R539970   0.767  21.160  12.409
12469CHOL    C139971   0.617  21.344  12.448
12469CHOL    C239972   0.467  21.527  12.488
12470CHOL   ROH39973  14.540   0.043  18.648
12470CHOL    R139974  14.589  -0.070  18.750
12470CHOL    R239975  14.726  -0.018  18.931
12470CHOL    R339976  14.643  -0.198  18.865
12470CHOL    R439977  14.769  -0.117  19.020
12470CHOL    R539978  14.692  -0.311  18.967
12470CHOL    C139979  14.765  -0.481  19.120
12470CHOL    C239980  14.838  -0.651  19.273
12471CHOL   ROH39981   7.920  21.767   2.595
12471CHOL    R139982   7.897  21.898   2.506
12471CHOL    R239983   7.986  22.104   2.571
12471CHOL    R339984   7.872  22.045   2.406
12471CHOL    R439985   7.966  22.218   2.493
12471CHOL    R539986   7.849  22.176   2.317
12471CHOL    C139987   7.815  22.373   2.184
12471CHOL    C239988   7.781  22.570   2.050
12472CHOL   ROH39989  22.065  11.057   3.102
12472CHOL    R139990  22.203  11.068   3.021
12472CHOL    R239991  22.265  11.267   2.917
12472CHOL    R339992  22.358  11.081   2.931
12472CHOL    R439993  22.385  11.277   2.846
12472CHOL    R539994  22.495  11.092   2.850
12472CHOL    C139995  22.702  11.109   2.729
12472CHOL    C239996  22.909  11.126   2.608
12473CHOL   ROH39997   7.105   7.191  23.397
12473CHOL    R139998   7.074   7.153  23.549
12473CHOL    R239999   7.247   7.093  23.695
12473CHOL    R340000   7.040   7.110  23.721
12473CHOL    R440001   7.220   7.060  23.828
12473CHOL    R540002   7.009   7.072  23.873
12473CHOL    C140003   6.964   7.015  24.101
12473CHOL    C240004   6.918   6.958  24.330
12474CHOL   ROH40005  16.676  12.621  21.910
12474CHOL    R140006  16.767  12.656  22.037
12474CHOL    R240007  16.989  12.585  22.048
12474CHOL    R340008  16.870  12.694  22.180
12474CHOL    R440009  17.069  12.615  22.159
12474CHOL    R540010  16.961  12.729  22.306
12474CHOL    C140011  17.098  12.781  22.497
12474CHOL    C240012  17.235  12.833  22.687
12475CHOL   ROH40013  -3.377   5.370  10.324
12475CHOL    R140014  -3.528   5.317  10.329
12475CHOL    R240015  -3.576   5.093  10.373
12475CHOL    R340016  -3.698   5.258  10.335
12475CHOL    R440017  -3.708   5.047  10.377
12475CHOL    R540018  -3.849   5.205  10.339
12475CHOL    C140019  -4.076   5.126  10.347
12475CHOL    C240020  -4.302   5.047  10.354
12476CHOL   ROH40021   1.843  19.807  16.050
12476CHOL    R140022   1.751  19.919  16.118
12476CHOL    R240023   1.795  19.996  16.334
12476CHOL    R340024   1.649  20.046  16.193
12476CHOL    R440025   1.715  20.094  16.393
12476CHOL    R540026   1.557  20.158  16.261
12476CHOL    C140027   1.420  20.327  16.362
12476CHOL    C240028   1.282  20.496  16.464
12477CHOL   ROH40029   8.187  -3.911   9.271
12477CHOL    R140030   8.169  -4.070   9.263
12477CHOL    R240031   8.274  -4.194   9.096
12477CHOL    R340032   8.150  -4.249   9.255
12477CHOL    R440033   8.259  -4.333   9.090
12477CHOL    R540034   8.132  -4.407   9.247
12477CHOL    C140035   8.106  -4.646   9.236
12477CHOL    C240036   8.079  -4.884   9.225
12478CHOL   ROH40037  17.176  21.650   7.201
12478CHOL    R140038  17.255  21.787   7.177
12478CHOL    R240039  17.440  21.796   7.036
12478CHOL    R340040  17.343  21.942   7.149
12478CHOL    R440041  17.509  21.916   7.015
12478CHOL    R540042  17.421  22.079   7.124
12478CHOL    C140043  17.539  22.285   7.088
12478CHOL    C240044  17.657  22.491   7.051
12479CHOL   ROH40045  -3.494  10.421   5.804
12479CHOL    R140046  -3.647  10.427   5.759
12479CHOL    R240047  -3.818  10.360   5.903
12479CHOL    R340048  -3.820  10.433   5.708
12479CHOL    R440049  -3.952  10.365   5.864
12479CHOL    R540050  -3.973  10.439   5.663
12479CHOL    C140051  -4.203  10.448   5.595
12479CHOL    C240052  -4.433  10.456   5.527
12480CHOL   ROH40053  20.184  12.106   0.694
12480CHOL    R140054  20.305  12.126   0.592
12480CHOL    R240055  20.298  12.036   0.377
12480CHOL    R340056  20.442  12.150   0.476
12480CHOL    R440057  20.404  12.054   0.287
12480CHOL    R540058  20.563  12.170   0.374
12480CHOL    C140059  20.745  12.201   0.220
12480CHOL    C240060  20.927  12.231   0.067
12481CHOL   ROH40061   0.593  19.298   5.029
12481CHOL    R140062   0.493  19.410   4.973
12481CHOL    R240063   0.300  19.467   5.090
12481CHOL    R340064   0.382  19.537   4.911
12481CHOL    R440065   0.213  19.566   5.041
12481CHOL    R540066   0.282  19.649   4.856
12481CHOL    C140067   0.133  19.817   4.772
12481CHOL    C240068  -0.017  19.986   4.689
12482CHOL   ROH40069   9.358   0.466  -0.423
12482CHOL    R140070   9.351   0.356  -0.539
12482CHOL    R240071   9.450   0.147  -0.512
12482CHOL    R340072   9.344   0.233  -0.670
12482CHOL    R440073   9.444   0.050  -0.613
12482CHOL    R540074   9.337   0.123  -0.786
12482CHOL    C140075   9.328  -0.042  -0.960
12482CHOL    C240076   9.318  -0.206  -1.134
12483CHOL   ROH40077   8.660  15.754  22.733
12483CHOL    R140078   8.649  15.815  22.880
12483CHOL    R240079   8.770  16.005  22.941
12483CHOL    R340080   8.637  15.884  23.046
12483CHOL    R440081   8.761  16.058  23.070
12483CHOL    R540082   8.625  15.945  23.193
12483CHOL    C140083   8.609  16.037  23.415
12483CHOL    C240084   8.592  16.128  23.636
12484CHOL   ROH40085   5.367  21.852  15.982
12484CHOL    R140086   5.315  21.988  16.049
12484CHOL    R240087   5.360  22.037  16.272
12484CHOL    R340088   5.256  22.141  16.124
12484CHOL    R440089   5.315  22.156  16.331
12484CHOL    R540090   5.204  22.277  16.190
12484CHOL    C140091   5.126  22.480  16.291
12484CHOL    C240092   5.048  22.684  16.391
12485CHOL   ROH40093  -1.810  17.903   9.296
12485CHOL    R140094  -1.942  17.994   9.292
12485CHOL    R240095  -2.117  17.957   9.441
12485CHOL    R340096  -2.089  18.096   9.287
12485CHOL    R440097  -2.232  18.037   9.437
12485CHOL    R540098  -2.221  18.187   9.283
12485CHOL    C140099  -2.418  18.323   9.277
12485CHOL    C240100  -2.616  18.460   9.271
12486CHOL   ROH40101   3.168   0.234  17.555
12486CHOL    R140102   3.092   0.122  17.641
12486CHOL    R240103   3.203   0.002  17.806
12486CHOL    R340104   3.006  -0.003  17.738
12486CHOL    R440105   3.137  -0.096  17.882
12486CHOL    R540106   2.930  -0.115  17.824
12486CHOL    C140107   2.816  -0.282  17.952
12486CHOL    C240108   2.702  -0.449  18.081
12487CHOL   ROH40109  22.119   6.344  15.711
12487CHOL    R140110  22.258   6.305  15.780
12487CHOL    R240111  22.424   6.466  15.814
12487CHOL    R340112  22.415   6.262  15.858
12487CHOL    R440113  22.546   6.432  15.875
12487CHOL    R540114  22.554   6.224  15.927
12487CHOL    C140115  22.763   6.166  16.030
12487CHOL    C240116  22.972   6.108  16.133
12488CHOL   ROH40117   5.127  12.500  -3.081
12488CHOL    R140118   5.070  12.527  -3.228
12488CHOL    R240119   5.134  12.716  -3.348
12488CHOL    R340120   5.006  12.558  -3.393
12488CHOL    R440121   5.084  12.740  -3.477
12488CHOL    R540122   4.949  12.585  -3.540
12488CHOL    C140123   4.864  12.626  -3.761
12488CHOL    C240124   4.778  12.667  -3.982
12489CHOL   ROH40125  -0.958   7.502   1.347
12489CHOL    R140126  -1.081   7.480   1.247
12489CHOL    R240127  -1.291   7.569   1.295
12489CHOL    R340128  -1.220   7.455   1.136
12489CHOL    R440129  -1.399   7.550   1.208
12489CHOL    R540130  -1.343   7.432   1.036
12489CHOL    C140131  -1.528   7.399   0.887
12489CHOL    C240132  -1.713   7.366   0.737
12490CHOL   ROH40133  19.958  11.768   0.369
12490CHOL    R140134  20.077  11.786   0.264
12490CHOL    R240135  20.124  11.620   0.106
12490CHOL    R340136  20.212  11.805   0.146
12490CHOL    R440137  20.228  11.636   0.014
12490CHOL    R540138  20.331  11.823   0.040
12490CHOL    C140139  20.510  11.849  -0.117
12490CHOL    C240140  20.689  11.876  -0.275
12491CHOL   ROH40141   2.009  15.785  -0.200
12491CHOL    R140142   1.921  15.847  -0.318
12491CHOL    R240143   1.988  16.043  -0.426
12491CHOL    R340144   1.823  15.918  -0.452
12491CHOL    R440145   1.911  16.098  -0.530
12491CHOL    R540146   1.735  15.980  -0.570
12491CHOL    C140147   1.604  16.074  -0.748
12491CHOL    C240148   1.473  16.167  -0.925
12492CHOL   ROH40149  10.881  -2.212   3.009
12492CHOL    R140150  10.891  -2.350   2.929
12492CHOL    R240151  10.982  -2.540   3.029
12492CHOL    R340152  10.902  -2.505   2.839
12492CHOL    R440153  10.991  -2.661   2.958
12492CHOL    R540154  10.912  -2.643   2.758
12492CHOL    C140155  10.928  -2.851   2.638
12492CHOL    C240156  10.943  -3.058   2.518
12493CHOL   ROH40157  16.315  15.595  -1.221
12493CHOL    R140158  16.390  15.660  -1.347
12493CHOL    R240159  16.412  15.542  -1.547
12493CHOL    R340160  16.475  15.732  -1.488
12493CHOL    R440161  16.478  15.599  -1.657
12493CHOL    R540162  16.550  15.797  -1.613
12493CHOL    C140163  16.663  15.894  -1.802
12493CHOL    C240164  16.776  15.991  -1.990
12494CHOL   ROH40165  17.645  -1.716   9.673
12494CHOL    R140166  17.731  -1.851   9.672
12494CHOL    R240167  17.955  -1.849   9.605
12494CHOL    R340168  17.829  -2.002   9.670
12494CHOL    R440169  18.030  -1.967   9.604
12494CHOL    R540170  17.915  -2.137   9.668
12494CHOL    C140171  18.045  -2.339   9.666
12494CHOL    C240172  18.174  -2.541   9.664
12495CHOL   ROH40173  19.401   1.184   4.490
12495CHOL    R140174  19.510   1.084   4.428
12495CHOL    R240175  19.729   1.154   4.391
12495CHOL    R340176  19.632   0.973   4.358
12495CHOL    R440177  19.824   1.067   4.336
12495CHOL    R540178  19.741   0.873   4.296
12495CHOL    C140179  19.904   0.724   4.202
12495CHOL    C240180  20.067   0.574   4.109
12496CHOL   ROH40181   2.404   2.053   1.174
12496CHOL    R140182   2.323   1.961   1.071
12496CHOL    R240183   2.125   1.856   1.136
12496CHOL    R340184   2.231   1.858   0.956
12496CHOL    R440185   2.053   1.775   1.046
12496CHOL    R540186   2.150   1.766   0.853
12496CHOL    C140187   2.027   1.628   0.700
12496CHOL    C240188   1.905   1.490   0.546
12497CHOL   ROH40189   0.639   2.903  17.790
12497CHOL    R140190   0.536   2.824  17.883
12497CHOL    R240191   0.591   2.617  17.975
12497CHOL    R340192   0.419   2.735  17.988
12497CHOL    R440193   0.500   2.548  18.056
12497CHOL    R540194   0.316   2.656  18.081
12497CHOL    C140195   0.161   2.538  18.221
12497CHOL    C240196   0.006   2.420  18.360
12498CHOL   ROH40197  22.574   7.278  15.248
12498CHOL    R140198  22.716   7.245  15.313
12498CHOL    R240199  22.901   7.381  15.273
12498CHOL    R340200  22.876   7.208  15.387
12498CHOL    R440201  23.026   7.352  15.330
12498CHOL    R540202  23.019   7.174  15.452
12498CHOL    C140203  23.232   7.125  15.550
12498CHOL    C240204  23.445   7.075  15.648
12499CHOL   ROH40205  15.587  14.375  -2.165
12499CHOL    R140206  15.651  14.428  -2.302
12499CHOL    R240207  15.679  14.285  -2.484
12499CHOL    R340208  15.724  14.487  -2.455
12499CHOL    R440209  15.736  14.331  -2.604
12499CHOL    R540210  15.789  14.540  -2.592
12499CHOL    C140211  15.885  14.619  -2.797
12499CHOL    C240212  15.982  14.698  -3.002
12500CHOL   ROH40213   3.175   9.303  -2.405
12500CHOL    R140214   3.095   9.299  -2.543
12500CHOL    R240215   2.947   9.126  -2.592
12500CHOL    R340216   3.005   9.296  -2.699
12500CHOL    R440217   2.877   9.123  -2.713
12500CHOL    R540218   2.924   9.292  -2.837
12500CHOL    C140219   2.804   9.287  -3.045
12500CHOL    C240220   2.684   9.281  -3.253
12501CHOL   ROH40221   2.078  15.228  20.290
12501CHOL    R140222   1.988  15.287  20.409
12501CHOL    R240223   2.082  15.343  20.614
12501CHOL    R340224   1.887  15.353  20.542
12501CHOL    R440225   2.004  15.394  20.718
12501CHOL    R540226   1.797  15.412  20.661
12501CHOL    C140227   1.662  15.500  20.838
12501CHOL    C240228   1.527  15.589  21.016
12502CHOL   ROH40229   1.193  21.026  10.305
12502CHOL    R140230   1.096  21.154  10.301
12502CHOL    R240231   1.109  21.319  10.464
12502CHOL    R340232   0.988  21.297  10.295
12502CHOL    R440233   1.024  21.431  10.460
12502CHOL    R540234   0.891  21.424  10.291
12502CHOL    C140235   0.746  21.616  10.284
12502CHOL    C240236   0.601  21.807  10.278
12503CHOL   ROH40237  18.411  11.013  -1.165
12503CHOL    R140238  18.507  11.025  -1.292
12503CHOL    R240239  18.463  11.177  -1.463
12503CHOL    R340240  18.616  11.037  -1.435
12503CHOL    R440241  18.547  11.187  -1.574
12503CHOL    R540242  18.712  11.049  -1.562
12503CHOL    C140243  18.856  11.066  -1.753
12503CHOL    C240244  19.001  11.084  -1.944
12504CHOL   ROH40245   9.623  22.765  15.846
12504CHOL    R140246   9.619  22.910  15.914
12504CHOL    R240247   9.660  23.102  15.788
12504CHOL    R340248   9.615  23.073  15.990
12504CHOL    R440249   9.656  23.229  15.847
12504CHOL    R540250   9.611  23.218  16.058
12504CHOL    C140251   9.605  23.435  16.159
12504CHOL    C240252   9.599  23.653  16.261
12505CHOL   ROH40253   9.157  -1.138   1.383
12505CHOL    R140254   9.148  -1.266   1.287
12505CHOL    R240255   9.252  -1.467   1.344
12505CHOL    R340256   9.138  -1.409   1.179
12505CHOL    R440257   9.244  -1.578   1.260
12505CHOL    R540258   9.130  -1.537   1.082
12505CHOL    C140259   9.116  -1.728   0.938
12505CHOL    C240260   9.103  -1.919   0.794
12506CHOL   ROH40261   1.116  18.093   2.458
12506CHOL    R140262   1.017  18.188   2.376
12506CHOL    R240263   0.825  18.275   2.476
12506CHOL    R340264   0.905  18.295   2.284
12506CHOL    R440265   0.738  18.359   2.404
12506CHOL    R540266   0.806  18.391   2.203
12506CHOL    C140267   0.657  18.533   2.080
12506CHOL    C240268   0.508  18.676   1.957
12507CHOL   ROH40269   1.036  20.281  13.729
12507CHOL    R140270   0.938  20.397  13.779
12507CHOL    R240271   0.847  20.393  13.993
12507CHOL    R340272   0.829  20.529  13.835
12507CHOL    R440273   0.761  20.495  14.037
12507CHOL    R540274   0.731  20.645  13.885
12507CHOL    C140275   0.585  20.820  13.961
12507CHOL    C240276   0.438  20.994  14.036
12508CHOL   ROH40277   3.117  22.222   9.252
12508CHOL    R140278   3.035  22.359   9.240
12508CHOL    R240279   3.139  22.555   9.169
12508CHOL    R340280   2.942  22.512   9.225
12508CHOL    R440281   3.067  22.675   9.158
12508CHOL    R540282   2.860  22.649   9.213
12508CHOL    C140283   2.737  22.854   9.194
12508CHOL    C240284   2.613  23.059   9.176
12509CHOL   ROH40285  19.599  19.561   6.592
12509CHOL    R140286  19.715  19.662   6.549
12509CHOL    R240287  19.732  19.739   6.330
12509CHOL    R340288  19.847  19.776   6.501
12509CHOL    R440289  19.834  19.828   6.292
12509CHOL    R540290  19.963  19.877   6.458
12509CHOL    C140291  20.138  20.028   6.394
12509CHOL    C240292  20.312  20.179   6.329
12510CHOL   ROH40293  23.529  11.077  12.885
12510CHOL    R140294  23.685  11.090  12.915
12510CHOL    R240295  23.803  11.283  12.855
12510CHOL    R340296  23.862  11.106  12.950
12510CHOL    R440297  23.940  11.294  12.882
12510CHOL    R540298  24.018  11.119  12.980
12510CHOL    C140299  24.253  11.139  13.026
12510CHOL    C240300  24.487  11.159  13.071
12511CHOL   ROH40301   6.744  23.180  13.664
12511CHOL    R140302   6.705  23.328  13.711
12511CHOL    R240303   6.723  23.392  13.934
12511CHOL    R340304   6.662  23.494  13.763
12511CHOL    R440305   6.689  23.521  13.975
12511CHOL    R540306   6.623  23.642  13.810
12511CHOL    C140307   6.566  23.864  13.880
12511CHOL    C240308   6.508  24.086  13.950
12512CHOL   ROH40309   8.631  -3.187  14.743
12512CHOL    R140310   8.615  -3.335  14.801
12512CHOL    R240311   8.601  -3.373  15.031
12512CHOL    R340312   8.598  -3.502  14.867
12512CHOL    R440313   8.587  -3.502  15.082
12512CHOL    R540314   8.582  -3.650  14.925
12512CHOL    C140315   8.559  -3.872  15.013
12512CHOL    C240316   8.536  -4.094  15.101
12513CHOL   ROH40317   8.918  23.786   7.441
12513CHOL    R140318   8.910  23.944   7.415
12513CHOL    R240319   9.081  24.086   7.485
12513CHOL    R340320   8.900  24.121   7.387
12513CHOL    R440321   9.074  24.224   7.462
12513CHOL    R540322   8.892  24.279   7.361
12513CHOL    C140323   8.879  24.516   7.323
12513CHOL    C240324   8.866  24.752   7.284
12514CHOL   ROH40325  13.023  -2.752   4.815
12514CHOL    R140326  13.066  -2.895   4.758
12514CHOL    R240327  13.175  -2.915   4.553
12514CHOL    R340328  13.114  -3.056   4.694
12514CHOL    R440329  13.212  -3.040   4.503
12514CHOL    R540330  13.157  -3.200   4.637
12514CHOL    C140331  13.221  -3.414   4.552
12514CHOL    C240332  13.286  -3.629   4.466
12515CHOL   ROH40333  15.775  17.847  -0.145
12515CHOL    R140334  15.844  17.933  -0.261
12515CHOL    R240335  16.066  17.896  -0.322
12515CHOL    R340336  15.923  18.030  -0.390
12515CHOL    R440337  16.127  17.971  -0.423
12515CHOL    R540338  15.992  18.116  -0.506
12515CHOL    C140339  16.096  18.246  -0.679
12515CHOL    C240340  16.200  18.375  -0.853
12516CHOL   ROH40341   6.880  -2.632   4.558
12516CHOL    R140342   6.847  -2.776   4.497
12516CHOL    R240343   7.006  -2.946   4.497
12516CHOL    R340344   6.809  -2.938   4.429
12516CHOL    R440345   6.977  -3.072   4.444
12516CHOL    R540346   6.776  -3.082   4.369
12516CHOL    C140347   6.725  -3.299   4.278
12516CHOL    C240348   6.675  -3.515   4.187
12517CHOL   ROH40349   1.127   0.613  15.769
12517CHOL    R140350   1.028   0.508  15.838
12517CHOL    R240351   0.961   0.533  16.060
12517CHOL    R340352   0.917   0.389  15.915
12517CHOL    R440353   0.874   0.441  16.120
12517CHOL    R540354   0.818   0.283  15.983
12517CHOL    C140355   0.670   0.125  16.086
12517CHOL    C240356   0.521  -0.033  16.189
12518CHOL   ROH40357   5.122   7.029  -3.007
12518CHOL    R140358   5.069   6.998  -3.155
12518CHOL    R240359   5.144   6.810  -3.272
12518CHOL    R340360   5.010   6.962  -3.321
12518CHOL    R440361   5.098   6.783  -3.401
12518CHOL    R540362   4.957   6.931  -3.469
12518CHOL    C140363   4.879   6.884  -3.691
12518CHOL    C240364   4.800   6.837  -3.913
12519CHOL   ROH40365   4.217  11.562  -2.833
12519CHOL    R140366   4.147  11.581  -2.976
12519CHOL    R240367   4.151  11.788  -3.084
12519CHOL    R340368   4.068  11.603  -3.136
12519CHOL    R440369   4.089  11.805  -3.209
12519CHOL    R540370   3.998  11.623  -3.278
12519CHOL    C140371   3.893  11.652  -3.492
12519CHOL    C240372   3.788  11.681  -3.706
12520CHOL   ROH40373   1.390   7.586  -1.021
12520CHOL    R140374   1.292   7.563  -1.145
12520CHOL    R240375   1.066   7.514  -1.113
12520CHOL    R340376   1.182   7.538  -1.286
12520CHOL    R440377   0.981   7.494  -1.222
12520CHOL    R540378   1.084   7.515  -1.410
12520CHOL    C140379   0.937   7.482  -1.597
12520CHOL    C240380   0.790   7.448  -1.783
12521CHOL   ROH40381   5.435  19.769  18.949
12521CHOL    R140382   5.388  19.881  19.053
12521CHOL    R240383   5.494  20.089  19.062
12521CHOL    R340384   5.336  20.007  19.171
12521CHOL    R440385   5.453  20.186  19.153
12521CHOL    R540386   5.290  20.119  19.275
12521CHOL    C140387   5.220  20.286  19.432
12521CHOL    C240388   5.150  20.454  19.589
12522CHOL   ROH40389  11.408  -0.440  19.077
12522CHOL    R140390  11.430  -0.557  19.184
12522CHOL    R240391  11.612  -0.702  19.167
12522CHOL    R340392  11.455  -0.689  19.304
12522CHOL    R440393  11.631  -0.805  19.260
12522CHOL    R540394  11.478  -0.805  19.411
12522CHOL    C140395  11.511  -0.981  19.571
12522CHOL    C240396  11.544  -1.156  19.732
12523CHOL   ROH40397   5.064  -1.388   3.127
12523CHOL    R140398   5.011  -1.517   3.049
12523CHOL    R240399   5.101  -1.577   2.842
12523CHOL    R340400   4.952  -1.662   2.961
12523CHOL    R440401   5.055  -1.690   2.774
12523CHOL    R540402   4.899  -1.792   2.883
12523CHOL    C140403   4.820  -1.985   2.765
12523CHOL    C240404   4.741  -2.179   2.648
12524CHOL   ROH40405  13.486  23.572   9.990
12524CHOL    R140406  13.531  23.726   9.989
12524CHOL    R240407  13.511  23.855   9.795
12524CHOL    R340408  13.581  23.898   9.987
12524CHOL    R440409  13.551  23.989   9.794
12524CHOL    R540410  13.626  24.052   9.986
12524CHOL    C140411  13.693  24.282   9.984
12524CHOL    C240412  13.760  24.513   9.982
12525CHOL   ROH40413  21.021  14.562   2.692
12525CHOL    R140414  21.149  14.613   2.610
12525CHOL    R240415  21.133  14.663   2.383
12525CHOL    R340416  21.292  14.670   2.517
12525CHOL    R440417  21.244  14.708   2.311
12525CHOL    R540418  21.419  14.721   2.435
12525CHOL    C140419  21.611  14.797   2.312
12525CHOL    C240420  21.802  14.873   2.188
12526CHOL   ROH40421  11.638   0.275  19.783
12526CHOL    R140422  11.663   0.162  19.894
12526CHOL    R240423  11.872   0.062  19.919
12526CHOL    R340424  11.691   0.036  20.019
12526CHOL    R440425  11.894  -0.036  20.016
12526CHOL    R540426  11.716  -0.077  20.129
12526CHOL    C140427  11.753  -0.246  20.296
12526CHOL    C240428  11.790  -0.415  20.462
12527CHOL   ROH40429  13.854  23.083  13.073
12527CHOL    R140430  13.897  23.233  13.109
12527CHOL    R240431  13.941  23.389  12.940
12527CHOL    R340432  13.946  23.402  13.149
12527CHOL    R440433  13.979  23.520  12.972
12527CHOL    R540434  13.989  23.551  13.185
12527CHOL    C140435  14.054  23.776  13.238
12527CHOL    C240436  14.119  24.001  13.292
12528CHOL   ROH40437  19.910   9.720   0.146
12528CHOL    R140438  20.028   9.720   0.038
12528CHOL    R240439  20.066   9.906  -0.098
12528CHOL    R340440  20.160   9.720  -0.085
12528CHOL    R440441  20.169   9.905  -0.193
12528CHOL    R540442  20.277   9.719  -0.193
12528CHOL    C140443  20.454   9.719  -0.356
12528CHOL    C240444  20.630   9.719  -0.518
12529CHOL   ROH40445  12.144  -3.811  11.413
12529CHOL    R140446  12.166  -3.968  11.431
12529CHOL    R240447  12.212  -4.105  11.248
12529CHOL    R340448  12.191  -4.146  11.452
12529CHOL    R440449  12.231  -4.243  11.264
12529CHOL    R540450  12.213  -4.303  11.470
12529CHOL    C140451  12.245  -4.539  11.498
12529CHOL    C240452  12.278  -4.775  11.526
12530CHOL   ROH40453  14.443  20.208  18.415
12530CHOL    R140454  14.492  20.327  18.510
12530CHOL    R240455  14.597  20.284  18.713
12530CHOL    R340456  14.547  20.462  18.616
12530CHOL    R440457  14.640  20.388  18.796
12530CHOL    R540458  14.596  20.581  18.711
12530CHOL    C140459  14.670  20.760  18.852
12530CHOL    C240460  14.744  20.939  18.994
12531CHOL   ROH40461  17.064  -1.466  13.689
12531CHOL    R140462  17.147  -1.596  13.731
12531CHOL    R240463  17.327  -1.670  13.602
12531CHOL    R340464  17.240  -1.743  13.778
12531CHOL    R440465  17.400  -1.784  13.639
12531CHOL    R540466  17.323  -1.873  13.819
12531CHOL    C140467  17.447  -2.068  13.882
12531CHOL    C240468  17.572  -2.264  13.945
12532CHOL   ROH40469  11.632  21.666   2.320
12532CHOL    R140470  11.653  21.800   2.235
12532CHOL    R240471  11.831  21.822   2.086
12532CHOL    R340472  11.676  21.951   2.140
12532CHOL    R440473  11.849  21.939   2.012
12532CHOL    R540474  11.697  22.085   2.056
12532CHOL    C140475  11.728  22.287   1.929
12532CHOL    C240476  11.759  22.488   1.802
12533CHOL   ROH40477  15.623  20.883  16.608
12533CHOL    R140478  15.692  21.007  16.682
12533CHOL    R240479  15.753  21.199  16.565
12533CHOL    R340480  15.769  21.147  16.766
12533CHOL    R440481  15.813  21.307  16.630
12533CHOL    R540482  15.837  21.271  16.840
12533CHOL    C140483  15.940  21.457  16.952
12533CHOL    C240484  16.043  21.643  17.064
12534CHOL   ROH40485  -4.008   7.603   9.272
12534CHOL    R140486  -4.164   7.570   9.268
12534CHOL    R240487  -4.297   7.593   9.459
12534CHOL    R340488  -4.341   7.532   9.265
12534CHOL    R440489  -4.434   7.564   9.456
12534CHOL    R540490  -4.497   7.499   9.261
12534CHOL    C140491  -4.732   7.449   9.256
12534CHOL    C240492  -4.966   7.399   9.250
12535CHOL   ROH40493  -3.670   6.328  10.495
12535CHOL    R140494  -3.824   6.285  10.504
12535CHOL    R240495  -3.886   6.079  10.595
12535CHOL    R340496  -3.997   6.237  10.514
12535CHOL    R440497  -4.021   6.042  10.603
12535CHOL    R540498  -4.151   6.194  10.523
12535CHOL    C140499  -4.382   6.129  10.536
12535CHOL    C240500  -4.613   6.064  10.550
12536CHOL   ROH40501   9.768  21.929   2.538
12536CHOL    R140502   9.764  22.061   2.448
12536CHOL    R240503   9.905  22.085   2.264
12536CHOL    R340504   9.759  22.210   2.347
12536CHOL    R440505   9.901  22.201   2.185
12536CHOL    R540506   9.755  22.342   2.257
12536CHOL    C140507   9.749  22.540   2.122
12536CHOL    C240508   9.743  22.738   1.987
12537CHOL   ROH40509  19.834  19.739  11.573
12537CHOL    R140510  19.949  19.847  11.601
12537CHOL    R240511  19.968  20.039  11.471
12537CHOL    R340512  20.078  19.968  11.633
12537CHOL    R440513  20.068  20.133  11.496
12537CHOL    R540514  20.193  20.075  11.662
12537CHOL    C140515  20.365  20.237  11.704
12537CHOL    C240516  20.538  20.399  11.746
12538CHOL   ROH40517   7.795  22.672   4.148
12538CHOL    R140518   7.769  22.815   4.080
12538CHOL    R240519   7.942  22.929   3.972
12538CHOL    R340520   7.740  22.975   4.003
12538CHOL    R440521   7.919  23.054   3.912
12538CHOL    R540522   7.715  23.118   3.935
12538CHOL    C140523   7.676  23.331   3.833
12538CHOL    C240524   7.637  23.545   3.731
12539CHOL   ROH40525  -2.157   3.179  12.436
12539CHOL    R140526  -2.295   3.104  12.466
12539CHOL    R240527  -2.455   3.198  12.608
12539CHOL    R340528  -2.450   3.019  12.500
12539CHOL    R440529  -2.575   3.132  12.634
12539CHOL    R540530  -2.589   2.944  12.529
12539CHOL    C140531  -2.796   2.831  12.574
12539CHOL    C240532  -3.003   2.718  12.619
12540CHOL   ROH40533  10.609  10.909  -4.104
12540CHOL    R140534  10.613  10.920  -4.264
12540CHOL    R240535  10.756  10.785  -4.389
12540CHOL    R340536  10.617  10.931  -4.443
12540CHOL    R440537  10.759  10.794  -4.529
12540CHOL    R540538  10.621  10.942  -4.603
12540CHOL    C140539  10.627  10.958  -4.843
12540CHOL    C240540  10.633  10.974  -5.082
12541CHOL   ROH40541  13.820  16.735  -1.730
12541CHOL    R140542  13.863  16.811  -1.864
12541CHOL    R240543  13.932  16.691  -2.053
12541CHOL    R340544  13.910  16.896  -2.016
12541CHOL    R440545  13.969  16.758  -2.170
12541CHOL    R540546  13.953  16.971  -2.150
12541CHOL    C140547  14.017  17.085  -2.352
12541CHOL    C240548  14.081  17.199  -2.553
12542CHOL   ROH40549  16.006   8.590  22.502
12542CHOL    R140550  16.069   8.568  22.647
12542CHOL    R240551  16.244   8.702  22.724
12542CHOL    R340552  16.140   8.543  22.811
12542CHOL    R440553  16.299   8.683  22.851
12542CHOL    R540554  16.203   8.522  22.957
12542CHOL    C140555  16.298   8.489  23.175
12542CHOL    C240556  16.392   8.456  23.393
12543CHOL   ROH40557   1.976   9.987  -1.623
12543CHOL    R140558   1.884   9.991  -1.754
12543CHOL    R240559   1.674  10.092  -1.750
12543CHOL    R340560   1.781   9.994  -1.901
12543CHOL    R440561   1.594  10.095  -1.865
12543CHOL    R540562   1.689   9.998  -2.032
12543CHOL    C140563   1.551  10.003  -2.228
12543CHOL    C240564   1.413  10.009  -2.425
12544CHOL   ROH40565  -0.145  17.277   3.257
12544CHOL    R140566  -0.260  17.359   3.182
12544CHOL    R240567  -0.411  17.491   3.301
12544CHOL    R340568  -0.390  17.451   3.098
12544CHOL    R440569  -0.512  17.563   3.236
12544CHOL    R540570  -0.505  17.533   3.022
12544CHOL    C140571  -0.678  17.656   2.910
12544CHOL    C240572  -0.851  17.779   2.797
12545CHOL   ROH40573   9.166  23.392   5.668
12545CHOL    R140574   9.160  23.545   5.622
12545CHOL    R240575   9.257  23.615   5.422
12545CHOL    R340576   9.153  23.718   5.571
12545CHOL    R440577   9.252  23.749   5.383
12545CHOL    R540578   9.147  23.871   5.526
12545CHOL    C140579   9.137  24.101   5.457
12545CHOL    C240580   9.128  24.331   5.389
12546CHOL   ROH40581   6.344   4.756  -2.695
12546CHOL    R140582   6.307   4.699  -2.840
12546CHOL    R240583   6.327   4.471  -2.887
12546CHOL    R340584   6.266   4.634  -3.003
12546CHOL    R440585   6.295   4.421  -3.014
12546CHOL    R540586   6.229   4.577  -3.147
12546CHOL    C140587   6.175   4.490  -3.365
12546CHOL    C240588   6.120   4.404  -3.582
12547CHOL   ROH40589  10.073  21.071   1.354
12547CHOL    R140590  10.071  21.197   1.256
12547CHOL    R240591  10.081  21.169   1.024
12547CHOL    R340592  10.069  21.339   1.145
12547CHOL    R440593  10.079  21.280   0.939
12547CHOL    R540594  10.067  21.465   1.047
12547CHOL    C140595  10.063  21.655   0.900
12547CHOL    C240596  10.060  21.844   0.752
12548CHOL   ROH40597  19.103   4.244   1.145
12548CHOL    R140598  19.207   4.176   1.044
12548CHOL    R240599  19.383   4.300   0.953
12548CHOL    R340600  19.325   4.101   0.931
12548CHOL    R440601  19.474   4.241   0.865
12548CHOL    R540602  19.429   4.033   0.830
12548CHOL    C140603  19.585   3.932   0.679
12548CHOL    C240604  19.742   3.830   0.528
12549CHOL   ROH40605  17.393  13.534  -1.390
12549CHOL    R140606  17.481  13.576  -1.517
12549CHOL    R240607  17.379  13.629  -1.721
12549CHOL    R340608  17.579  13.622  -1.660
12549CHOL    R440609  17.456  13.665  -1.832
12549CHOL    R540610  17.667  13.664  -1.787
12549CHOL    C140611  17.799  13.726  -1.978
12549CHOL    C240612  17.930  13.789  -2.169
12550CHOL   ROH40613  14.188  22.981   6.991
12550CHOL    R140614  14.237  23.129   6.954
12550CHOL    R240615  14.422  23.163   6.817
12550CHOL    R340616  14.292  23.295   6.912
12550CHOL    R440617  14.465  23.293   6.784
12550CHOL    R540618  14.340  23.443   6.875
12550CHOL    C140619  14.414  23.665   6.820
12550CHOL    C240620  14.487  23.887   6.765
12551CHOL   ROH40621  18.654  -0.962   8.908
12551CHOL    R140622  18.754  -1.086   8.896
12551CHOL    R240623  18.788  -1.193   8.692
12551CHOL    R340624  18.866  -1.227   8.882
12551CHOL    R440625  18.876  -1.302   8.681
12551CHOL    R540626  18.966  -1.351   8.870
12551CHOL    C140627  19.116  -1.538   8.852
12551CHOL    C240628  19.266  -1.724   8.834
12552CHOL   ROH40629  15.187  12.869  -2.786
12552CHOL    R140630  15.247  12.900  -2.931
12552CHOL    R240631  15.182  12.774  -3.117
12552CHOL    R340632  15.313  12.935  -3.095
12552CHOL    R440633  15.234  12.801  -3.244
12552CHOL    R540634  15.373  12.966  -3.240
12552CHOL    C140635  15.462  13.012  -3.458
12552CHOL    C240636  15.552  13.058  -3.676
12553CHOL   ROH40637  22.759   4.442   9.161
12553CHOL    R140638  22.904   4.376   9.149
12553CHOL    R240639  23.048   4.432   8.974
12553CHOL    R340640  23.068   4.302   9.136
12553CHOL    R440641  23.175   4.375   8.963
12553CHOL    R540642  23.213   4.236   9.124
12553CHOL    C140643  23.432   4.138   9.106
12553CHOL    C240644  23.650   4.039   9.088
12554CHOL   ROH40645  -3.368   6.828  13.364
12554CHOL    R140646  -3.520   6.791  13.399
12554CHOL    R240647  -3.585   6.750  13.619
12554CHOL    R340648  -3.690   6.749  13.439
12554CHOL    R440649  -3.718   6.717  13.650
12554CHOL    R540650  -3.842   6.713  13.474
12554CHOL    C140651  -4.070   6.657  13.527
12554CHOL    C240652  -4.297   6.602  13.580
12555CHOL   ROH40653  13.567  10.426  -3.643
12555CHOL    R140654  13.613  10.432  -3.796
12555CHOL    R240655  13.507  10.303  -3.959
12555CHOL    R340656  13.665  10.439  -3.968
12555CHOL    R440657  13.547  10.308  -4.093
12555CHOL    R540658  13.710  10.446  -4.122
12555CHOL    C140659  13.779  10.455  -4.351
12555CHOL    C240660  13.848  10.464  -4.581
12556CHOL   ROH40661   8.884  12.079  -3.941
12556CHOL    R140662   8.874  12.101  -4.099
12556CHOL    R240663   9.051  12.044  -4.240
12556CHOL    R340664   8.862  12.126  -4.277
12556CHOL    R440665   9.042  12.063  -4.378
12556CHOL    R540666   8.852  12.148  -4.435
12556CHOL    C140667   8.837  12.180  -4.672
12556CHOL    C240668   8.821  12.213  -4.909
12557CHOL   ROH40669  23.573  10.116   7.054
12557CHOL    R140670  23.730  10.115   7.023
12557CHOL    R240671  23.840   9.915   6.973
12557CHOL    R340672  23.907  10.113   6.988
12557CHOL    R440673  23.978   9.914   6.946
12557CHOL    R540674  24.064  10.112   6.958
12557CHOL    C140675  24.299  10.109   6.911
12557CHOL    C240676  24.534  10.107   6.865
12558CHOL   ROH40677   8.116  18.731  -0.903
12558CHOL    R140678   8.100  18.835  -1.024
12558CHOL    R240679   8.123  19.064  -0.988
12558CHOL    R340680   8.083  18.952  -1.159
12558CHOL    R440681   8.110  19.155  -1.094
12558CHOL    R540682   8.068  19.056  -1.280
12558CHOL    C140683   8.044  19.212  -1.461
12558CHOL    C240684   8.021  19.368  -1.642
12559CHOL   ROH40685  -3.948  12.130  11.845
12559CHOL    R140686  -4.105  12.153  11.868
12559CHOL    R240687  -4.183  12.258  12.061
12559CHOL    R340688  -4.281  12.179  11.895
12559CHOL    R440689  -4.320  12.278  12.082
12559CHOL    R540690  -4.438  12.203  11.918
12559CHOL    C140691  -4.672  12.237  11.953
12559CHOL    C240692  -4.907  12.272  11.988
12560CHOL   ROH40693  22.470   5.179   5.908
12560CHOL    R140694  22.615   5.125   5.867
12560CHOL    R240695  22.793   5.271   5.832
12560CHOL    R340696  22.777   5.063   5.821
12560CHOL    R440697  22.919   5.224   5.796
12560CHOL    R540698  22.922   5.009   5.779
12560CHOL    C140699  23.139   4.927   5.718
12560CHOL    C240700  23.356   4.846   5.656
12561CHOL   ROH40701  22.257   5.130   5.302
12561CHOL    R140702  22.399   5.075   5.252
12561CHOL    R240703  22.482   5.131   5.042
12561CHOL    R340704  22.558   5.013   5.196
12561CHOL    R440705  22.606   5.082   4.998
12561CHOL    R540706  22.700   4.958   5.146
12561CHOL    C140707  22.913   4.875   5.072
12561CHOL    C240708  23.125   4.792   4.997
12562CHOL   ROH40709  -3.768  13.286   8.904
12562CHOL    R140710  -3.923  13.322   8.885
12562CHOL    R240711  -4.089  13.167   8.939
12562CHOL    R340712  -4.097  13.362   8.865
12562CHOL    R440713  -4.225  13.198   8.922
12562CHOL    R540714  -4.252  13.398   8.846
12562CHOL    C140715  -4.484  13.452   8.818
12562CHOL    C240716  -4.717  13.506   8.790
12563CHOL   ROH40717   9.188  18.278  -1.370
12563CHOL    R140718   9.183  18.377  -1.495
12563CHOL    R240719   9.374  18.490  -1.566
12563CHOL    R340720   9.177  18.489  -1.636
12563CHOL    R440721   9.370  18.577  -1.676
12563CHOL    R540722   9.172  18.588  -1.762
12563CHOL    C140723   9.164  18.738  -1.949
12563CHOL    C240724   9.157  18.887  -2.137
12564CHOL   ROH40725  -2.989  11.708   4.616
12564CHOL    R140726  -3.138  11.728   4.560
12564CHOL    R240727  -3.319  11.748   4.706
12564CHOL    R340728  -3.305  11.751   4.498
12564CHOL    R440729  -3.449  11.766   4.658
12564CHOL    R540730  -3.454  11.771   4.442
12564CHOL    C140731  -3.676  11.801   4.359
12564CHOL    C240732  -3.899  11.831   4.276
12565CHOL   ROH40733   7.683  11.934  -3.830
12565CHOL    R140734   7.659  11.953  -3.987
12565CHOL    R240735   7.481  12.081  -4.067
12565CHOL    R340736   7.632  11.975  -4.164
12565CHOL    R440737   7.460  12.098  -4.204
12565CHOL    R540738   7.609  11.994  -4.321
12565CHOL    C140739   7.573  12.024  -4.557
12565CHOL    C240740   7.537  12.053  -4.792
12566CHOL   ROH40741  -0.703  17.216  15.742
12566CHOL    R140742  -0.823  17.298  15.808
12566CHOL    R240743  -0.807  17.529  15.840
12566CHOL    R340744  -0.958  17.391  15.883
12566CHOL    R440745  -0.912  17.601  15.898
12566CHOL    R540746  -1.078  17.474  15.949
12566CHOL    C140747  -1.258  17.597  16.049
12566CHOL    C240748  -1.438  17.721  16.149
12567CHOL   ROH40749   8.318  15.700  22.723
12567CHOL    R140750   8.302  15.761  22.870
12567CHOL    R240751   8.472  15.890  22.965
12567CHOL    R340752   8.285  15.831  23.035
12567CHOL    R440753   8.458  15.943  23.094
12567CHOL    R540754   8.269  15.892  23.182
12567CHOL    C140755   8.245  15.984  23.402
12567CHOL    C240756   8.222  16.076  23.623
12568CHOL   ROH40757  21.806  17.242   8.921
12568CHOL    R140758  21.942  17.324   8.906
12568CHOL    R240759  22.114  17.248   8.768
12568CHOL    R340760  22.096  17.417   8.889
12568CHOL    R440761  22.233  17.320   8.754
12568CHOL    R540762  22.232  17.500   8.873
12568CHOL    C140763  22.436  17.623   8.851
12568CHOL    C240764  22.641  17.747   8.828
12569CHOL   ROH40765   7.106  12.470  23.381
12569CHOL    R140766   7.073  12.492  23.536
12569CHOL    R240767   7.243  12.502  23.695
12569CHOL    R340768   7.035  12.517  23.710
12569CHOL    R440769   7.214  12.522  23.831
12569CHOL    R540770   7.002  12.539  23.865
12569CHOL    C140771   6.952  12.573  24.097
12569CHOL    C240772   6.902  12.606  24.330
12570CHOL   ROH40773  13.742  23.481  10.715
12570CHOL    R140774  13.790  23.633  10.722
12570CHOL    R240775  13.891  23.718  10.914
12570CHOL    R340776  13.844  23.805  10.730
12570CHOL    R440777  13.934  23.852  10.921
12570CHOL    R540778  13.892  23.958  10.737
12570CHOL    C140779  13.965  24.186  10.748
12570CHOL    C240780  14.037  24.415  10.759
12571CHOL   ROH40781   7.091  19.704  19.604
12571CHOL    R140782   7.059  19.814  19.715
12571CHOL    R240783   7.220  19.972  19.777
12571CHOL    R340784   7.023  19.939  19.841
12571CHOL    R440785   7.192  20.068  19.875
12571CHOL    R540786   6.991  20.049  19.952
12571CHOL    C140787   6.944  20.215  20.119
12571CHOL    C240788   6.896  20.380  20.286
12572CHOL   ROH40789  16.473   7.038  -2.043
12572CHOL    R140790  16.546   7.006  -2.182
12572CHOL    R240791  16.575   7.173  -2.343
12572CHOL    R340792  16.628   6.971  -2.338
12572CHOL    R440793  16.639   7.145  -2.464
12572CHOL    R540794  16.702   6.939  -2.476
12572CHOL    C140795  16.811   6.891  -2.685
12572CHOL    C240796  16.921   6.844  -2.893
12573CHOL   ROH40797  13.578  13.144  -3.248
12573CHOL    R140798  13.618  13.182  -3.398
12573CHOL    R240799  13.477  13.132  -3.577
12573CHOL    R340800  13.664  13.224  -3.567
12573CHOL    R440801  13.512  13.165  -3.708
12573CHOL    R540802  13.704  13.262  -3.717
12573CHOL    C140803  13.764  13.318  -3.943
12573CHOL    C240804  13.825  13.374  -4.168
12574CHOL   ROH40805  14.029   9.873  -3.498
12574CHOL    R140806  14.083   9.869  -3.648
12574CHOL    R240807  13.972   9.747  -3.813
12574CHOL    R340808  14.144   9.866  -3.818
12574CHOL    R440809  14.020   9.744  -3.945
12574CHOL    R540810  14.199   9.862  -3.968
12574CHOL    C140811  14.280   9.857  -4.194
12574CHOL    C240812  14.361   9.851  -4.419
12575CHOL   ROH40813  -4.033  12.337  10.534
12575CHOL    R140814  -4.190  12.365  10.539
12575CHOL    R240815  -4.284  12.494  10.710
12575CHOL    R340816  -4.368  12.398  10.545
12575CHOL    R440817  -4.421  12.519  10.715
12575CHOL    R540818  -4.525  12.426  10.550
12575CHOL    C140819  -4.761  12.469  10.558
12575CHOL    C240820  -4.997  12.511  10.566
12576CHOL   ROH40821  12.229  22.476   4.068
12576CHOL    R140822  12.259  22.620   4.005
12576CHOL    R240823  12.456  22.662   3.889
12576CHOL    R340824  12.292  22.782   3.935
12576CHOL    R440825  12.483  22.788   3.834
12576CHOL    R540826  12.322  22.926   3.872
12576CHOL    C140827  12.367  23.143   3.778
12576CHOL    C240828  12.411  23.359   3.684
12577CHOL   ROH40829  11.043   0.696  -0.541
12577CHOL    R140830  11.059   0.592  -0.661
12577CHOL    R240831  11.259   0.478  -0.696
12577CHOL    R340832  11.076   0.474  -0.796
12577CHOL    R440833  11.273   0.387  -0.802
12577CHOL    R540834  11.092   0.369  -0.916
12577CHOL    C140835  11.115   0.213  -1.097
12577CHOL    C240836  11.138   0.056  -1.277
12578CHOL   ROH40837  10.676  11.864  -3.989
12578CHOL    R140838  10.684  11.890  -4.147
12578CHOL    R240839  10.770  11.727  -4.290
12578CHOL    R340840  10.694  11.918  -4.324
12578CHOL    R440841  10.777  11.749  -4.429
12578CHOL    R540842  10.702  11.944  -4.482
12578CHOL    C140843  10.714  11.982  -4.719
12578CHOL    C240844  10.727  12.021  -4.955
12579CHOL   ROH40845  19.352   0.507  14.132
12579CHOL    R140846  19.461   0.399  14.179
12579CHOL    R240847  19.532   0.230  14.036
12579CHOL    R340848  19.583   0.279  14.232
12579CHOL    R440849  19.627   0.136  14.077
12579CHOL    R540850  19.692   0.171  14.279
12579CHOL    C140851  19.855   0.010  14.350
12579CHOL    C240852  20.018  -0.152  14.421
12580CHOL   ROH40853   7.663  20.319  19.134
12580CHOL    R140854   7.635  20.434  19.242
12580CHOL    R240855   7.653  20.659  19.185
12580CHOL    R340856   7.603  20.562  19.363
12580CHOL    R440857   7.628  20.759  19.280
12580CHOL    R540858   7.575  20.677  19.471
12580CHOL    C140859   7.533  20.849  19.633
12580CHOL    C240860   7.491  21.021  19.795
12581CHOL   ROH40861  13.406  -2.248  15.896
12581CHOL    R140862  13.449  -2.388  15.961
12581CHOL    R240863  13.662  -2.476  15.925
12581CHOL    R340864  13.498  -2.545  16.034
12581CHOL    R440865  13.700  -2.598  15.982
12581CHOL    R540866  13.541  -2.685  16.098
12581CHOL    C140867  13.606  -2.895  16.196
12581CHOL    C240868  13.671  -3.105  16.293
12582CHOL   ROH40869  22.565  14.900   6.504
12582CHOL    R140870  22.708  14.964   6.471
12582CHOL    R240871  22.792  14.963   6.253
12582CHOL    R340872  22.868  15.036   6.433
12582CHOL    R440873  22.916  15.019   6.224
12582CHOL    R540874  23.011  15.100   6.400
12582CHOL    C140875  23.225  15.196   6.349
12582CHOL    C240876  23.439  15.292   6.299
12583CHOL   ROH40877   1.101   1.741  17.213
12583CHOL    R140878   1.001   1.649  17.298
12583CHOL    R240879   1.075   1.453  17.399
12583CHOL    R340880   0.889   1.547  17.394
12583CHOL    R440881   0.988   1.373  17.474
12583CHOL    R540882   0.789   1.455  17.479
12583CHOL    C140883   0.639   1.318  17.607
12583CHOL    C240884   0.489   1.180  17.735
12584CHOL   ROH40885  19.364  -0.338   8.880
12584CHOL    R140886  19.474  -0.454   8.868
12584CHOL    R240887  19.667  -0.424   8.742
12584CHOL    R340888  19.597  -0.584   8.855
12584CHOL    R440889  19.763  -0.525   8.731
12584CHOL    R540890  19.707  -0.700   8.843
12584CHOL    C140891  19.871  -0.874   8.825
12584CHOL    C240892  20.035  -1.048   8.807
12585CHOL   ROH40893   9.675   6.829  -3.704
12585CHOL    R140894   9.671   6.790  -3.859
12585CHOL    R240895   9.857   6.822  -3.996
12585CHOL    R340896   9.666   6.746  -4.033
12585CHOL    R440897   9.854   6.788  -4.131
12585CHOL    R540898   9.662   6.707  -4.189
12585CHOL    C140899   9.656   6.648  -4.421
12585CHOL    C240900   9.650   6.590  -4.654
12586CHOL   ROH40901  16.085  18.295   0.421
12586CHOL    R140902  16.159  18.389   0.315
12586CHOL    R240903  16.378  18.345   0.248
12586CHOL    R340904  16.243  18.495   0.196
12586CHOL    R440905  16.443  18.427   0.155
12586CHOL    R540906  16.318  18.589   0.090
12586CHOL    C140907  16.429  18.731  -0.068
12586CHOL    C240908  16.541  18.872  -0.227
12587CHOL   ROH40909  22.618   8.047  15.498
12587CHOL    R140910  22.760   8.020  15.567
12587CHOL    R240911  22.914   8.193  15.594
12587CHOL    R340912  22.919   7.991  15.645
12587CHOL    R440913  23.038   8.170  15.655
12587CHOL    R540914  23.061   7.964  15.715
12587CHOL    C140915  23.274   7.924  15.818
12587CHOL    C240916  23.486   7.884  15.922
12588CHOL   ROH40917  18.740  -0.371  13.291
12588CHOL    R140918  18.840  -0.490  13.330
12588CHOL    R240919  19.029  -0.451  13.461
12588CHOL    R340920  18.952  -0.624  13.373
12588CHOL    R440921  19.116  -0.555  13.495
12588CHOL    R540922  19.052  -0.743  13.412
12588CHOL    C140923  19.201  -0.922  13.470
12588CHOL    C240924  19.351  -1.100  13.528
12589CHOL   ROH40925  -0.757  11.177   0.837
12589CHOL    R140926  -0.874  11.184   0.728
12589CHOL    R240927  -1.056  11.327   0.755
12589CHOL    R340928  -1.005  11.192   0.605
12589CHOL    R440929  -1.158  11.333   0.660
12589CHOL    R540930  -1.122  11.199   0.496
12589CHOL    C140931  -1.296  11.209   0.332
12589CHOL    C240932  -1.471  11.219   0.168
12590CHOL   ROH40933  -1.542   9.124   1.792
12590CHOL    R140934  -1.668   9.113   1.694
12590CHOL    R240935  -1.760   8.906   1.639
12590CHOL    R340936  -1.810   9.102   1.584
12590CHOL    R440937  -1.870   8.897   1.553
12590CHOL    R540938  -1.936   9.091   1.486
12590CHOL    C140939  -2.125   9.075   1.339
12590CHOL    C240940  -2.314   9.059   1.192
12591CHOL   ROH40941  -2.164  16.462  13.312
12591CHOL    R140942  -2.300  16.538  13.349
12591CHOL    R240943  -2.375  16.549  13.569
12591CHOL    R340944  -2.453  16.623  13.390
12591CHOL    R440945  -2.494  16.615  13.601
12591CHOL    R540946  -2.589  16.699  13.427
12591CHOL    C140947  -2.793  16.813  13.482
12591CHOL    C240948  -2.997  16.927  13.537
12592CHOL   ROH40949  17.251   0.154   3.118
12592CHOL    R140950  17.333   0.041   3.040
12592CHOL    R240951  17.265  -0.033   2.830
12592CHOL    R340952  17.425  -0.087   2.953
12592CHOL    R440953  17.337  -0.132   2.761
12592CHOL    R540954  17.508  -0.200   2.875
12592CHOL    C140955  17.631  -0.370   2.758
12592CHOL    C240956  17.754  -0.540   2.642
12593CHOL   ROH40957  23.724   8.822  11.510
12593CHOL    R140958  23.883   8.812  11.523
12593CHOL    R240959  24.023   8.897  11.356
12593CHOL    R340960  24.062   8.802  11.538
12593CHOL    R440961  24.162   8.889  11.368
12593CHOL    R540962  24.222   8.792  11.551
12593CHOL    C140963  24.460   8.778  11.571
12593CHOL    C240964  24.699   8.763  11.590
12594CHOL   ROH40965  15.960  -2.550   8.365
12594CHOL    R140966  16.028  -2.694   8.345
12594CHOL    R240967  16.252  -2.713   8.284
12594CHOL    R340968  16.104  -2.855   8.323
12594CHOL    R440969  16.312  -2.838   8.267
12594CHOL    R540970  16.172  -2.998   8.303
12594CHOL    C140971  16.274  -3.214   8.273
12594CHOL    C240972  16.376  -3.429   8.243
12595CHOL   ROH40973   9.551   1.442  -1.245
12595CHOL    R140974   9.552   1.346  -1.373
12595CHOL    R240975   9.709   1.174  -1.392
12595CHOL    R340976   9.554   1.238  -1.517
12595CHOL    R440977   9.710   1.090  -1.505
12595CHOL    R540978   9.555   1.142  -1.646
12595CHOL    C140979   9.558   0.999  -1.838
12595CHOL    C240980   9.560   0.855  -2.030
12596CHOL   ROH40981  17.505  -1.339   6.632
12596CHOL    R140982  17.588  -1.470   6.593
12596CHOL    R240983  17.660  -1.506   6.374
12596CHOL    R340984  17.681  -1.617   6.549
12596CHOL    R440985  17.733  -1.620   6.339
12596CHOL    R540986  17.765  -1.748   6.509
12596CHOL    C140987  17.889  -1.945   6.451
12596CHOL    C240988  18.014  -2.142   6.392
12597CHOL   ROH40989  18.504  -1.031  11.057
12597CHOL    R140990  18.601  -1.158  11.071
12597CHOL    R240991  18.667  -1.279  10.883
12597CHOL    R340992  18.710  -1.300  11.086
12597CHOL    R440993  18.752  -1.390  10.895
12597CHOL    R540994  18.807  -1.427  11.100
12597CHOL    C140995  18.952  -1.617  11.120
12597CHOL    C240996  19.097  -1.807  11.140
12598CHOL   ROH40997  21.984   5.224  15.266
12598CHOL    R140998  22.124   5.177  15.328
12598CHOL    R240999  22.319   5.298  15.291
12598CHOL    R341000  22.280   5.123  15.399
12598CHOL    R441001  22.441   5.257  15.346
12598CHOL    R541002  22.420   5.076  15.461
12598CHOL    C141003  22.629   5.005  15.555
12598CHOL    C241004  22.839   4.934  15.648
12599CHOL   ROH41005   6.835  -2.317   3.889
12599CHOL    R141006   6.802  -2.458   3.820
12599CHOL    R241007   6.949  -2.638   3.839
12599CHOL    R341008   6.765  -2.616   3.743
12599CHOL    R441009   6.921  -2.761   3.779
12599CHOL    R541010   6.733  -2.757   3.674
12599CHOL    C141011   6.683  -2.967   3.571
12599CHOL    C241012   6.634  -3.178   3.468
12600CHOL   ROH41013   6.514   8.243  -3.603
12600CHOL    R141014   6.479   8.224  -3.758
12600CHOL    R241015   6.302   8.087  -3.825
12600CHOL    R341016   6.439   8.203  -3.932
12600CHOL    R441017   6.271   8.070  -3.960
12600CHOL    R541018   6.404   8.184  -4.087
12600CHOL    C141019   6.350   8.155  -4.319
12600CHOL    C241020   6.297   8.126  -4.552
12601CHOL   ROH41021   7.742  -3.759   8.025
12601CHOL    R141022   7.720  -3.916   8.007
12601CHOL    R241023   7.901  -4.058   7.964
12601CHOL    R341024   7.696  -4.094   7.986
12601CHOL    R441025   7.881  -4.196   7.948
12601CHOL    R541026   7.674  -4.251   7.967
12601CHOL    C141027   7.641  -4.487   7.940
12601CHOL    C241028   7.609  -4.723   7.912
12602CHOL   ROH41029   6.432  -2.337   4.138
12602CHOL    R141030   6.396  -2.478   4.073
12602CHOL    R241031   6.548  -2.655   4.076
12602CHOL    R341032   6.355  -2.638   3.999
12602CHOL    R441033   6.516  -2.779   4.019
12602CHOL    R541034   6.319  -2.779   3.934
12602CHOL    C141035   6.264  -2.991   3.835
12602CHOL    C241036   6.210  -3.203   3.737
12603CHOL   ROH41037   5.840  10.542  23.270
12603CHOL    R141038   5.798  10.556  23.424
12603CHOL    R241039   5.773  10.765  23.523
12603CHOL    R341040   5.752  10.571  23.597
12603CHOL    R441041   5.737  10.777  23.658
12603CHOL    R541042   5.710  10.584  23.751
12603CHOL    C141043   5.648  10.605  23.982
12603CHOL    C241044   5.585  10.625  24.213
12604CHOL   ROH41045  15.367  -1.964   5.140
12604CHOL    R141046  15.430  -2.101   5.086
12604CHOL    R241047  15.655  -2.151   5.121
12604CHOL    R341048  15.501  -2.255   5.026
12604CHOL    R441049  15.710  -2.271   5.074
12604CHOL    R541050  15.564  -2.391   4.972
12604CHOL    C141051  15.659  -2.597   4.891
12604CHOL    C241052  15.753  -2.802   4.811
12605CHOL   ROH41053   5.753  22.214  15.487
12605CHOL    R141054   5.707  22.355  15.548
12605CHOL    R241055   5.864  22.503  15.637
12605CHOL    R341056   5.656  22.513  15.617
12605CHOL    R441057   5.824  22.626  15.691
12605CHOL    R541058   5.611  22.654  15.678
12605CHOL    C141059   5.542  22.865  15.769
12605CHOL    C241060   5.474  23.076  15.860
12606CHOL   ROH41061  11.698  -3.113  14.775
12606CHOL    R141062  11.726  -3.263  14.823
12606CHOL    R241063  11.828  -3.306  15.028
12606CHOL    R341064  11.758  -3.432  14.876
12606CHOL    R441065  11.853  -3.438  15.070
12606CHOL    R541066  11.787  -3.582  14.924
12606CHOL    C141067  11.829  -3.807  14.996
12606CHOL    C241068  11.871  -4.032  15.067
12607CHOL   ROH41069  11.722  -0.419   0.666
12607CHOL    R141070  11.746  -0.536   0.560
12607CHOL    R241071  11.800  -0.489   0.338
12607CHOL    R341072  11.773  -0.669   0.441
12607CHOL    R441073  11.821  -0.591   0.246
12607CHOL    R541074  11.797  -0.786   0.335
12607CHOL    C141075  11.833  -0.962   0.176
12607CHOL    C241076  11.869  -1.138   0.017
12608CHOL   ROH41077  14.779  12.805  -2.956
12608CHOL    R141078  14.832  12.837  -3.104
12608CHOL    R241079  14.767  12.706  -3.285
12608CHOL    R341080  14.892  12.872  -3.269
12608CHOL    R441081  14.814  12.733  -3.414
12608CHOL    R541082  14.945  12.904  -3.417
12608CHOL    C141083  15.025  12.952  -3.638
12608CHOL    C241084  15.104  12.999  -3.860
12609CHOL   ROH41085  -1.548  17.197  13.805
12609CHOL    R141086  -1.676  17.282  13.850
12609CHOL    R241087  -1.651  17.487  13.959
12609CHOL    R341088  -1.819  17.379  13.900
12609CHOL    R441089  -1.763  17.562  13.998
12609CHOL    R541090  -1.947  17.464  13.945
12609CHOL    C141091  -2.139  17.592  14.011
12609CHOL    C241092  -2.330  17.720  14.078
12610CHOL   ROH41093  10.382  12.545  -3.878
12610CHOL    R141094  10.388  12.577  -4.035
12610CHOL    R241095  10.539  12.465  -4.174
12610CHOL    R341096  10.396  12.612  -4.211
12610CHOL    R441097  10.545  12.493  -4.311
12610CHOL    R541098  10.402  12.644  -4.368
12610CHOL    C141099  10.412  12.692  -4.602
12610CHOL    C241100  10.421  12.739  -4.837
12611CHOL   ROH41101  22.419   7.761   4.004
12611CHOL    R141102  22.562   7.740   3.936
12611CHOL    R241103  22.584   7.623   3.736
12611CHOL    R341104  22.724   7.715   3.860
12611CHOL    R441105  22.710   7.604   3.677
12611CHOL    R541106  22.867   7.694   3.793
12611CHOL    C141107  23.082   7.662   3.691
12611CHOL    C241108  23.297   7.630   3.589
12612CHOL   ROH41109  15.506  21.796   4.834
12612CHOL    R141110  15.565  21.934   4.779
12612CHOL    R241111  15.759  22.027   4.869
12612CHOL    R341112  15.630  22.090   4.717
12612CHOL    R441113  15.810  22.148   4.821
12612CHOL    R541114  15.689  22.228   4.662
12612CHOL    C141115  15.777  22.435   4.579
12612CHOL    C241116  15.865  22.643   4.496
12613CHOL   ROH41117  -2.814  15.948   8.474
12613CHOL    R141118  -2.959  16.012   8.454
12613CHOL    R241119  -2.985  16.240   8.413
12613CHOL    R341120  -3.123  16.084   8.432
12613CHOL    R441121  -3.112  16.296   8.395
12613CHOL    R541122  -3.268  16.148   8.412
12613CHOL    C141123  -3.486  16.244   8.382
12613CHOL    C241124  -3.704  16.340   8.352
12614CHOL   ROH41125  10.590   1.427  21.044
12614CHOL    R141126  10.604   1.325  21.167
12614CHOL    R241127  10.758   1.363  21.337
12614CHOL    R341128  10.620   1.210  21.304
12614CHOL    R441129  10.771   1.274  21.444
12614CHOL    R541130  10.634   1.109  21.427
12614CHOL    C141131  10.655   0.956  21.611
12614CHOL    C241132  10.676   0.803  21.795
12615CHOL   ROH41133  14.927  -3.027  11.517
12615CHOL    R141134  14.987  -3.174  11.536
12615CHOL    R241135  15.148  -3.218  11.698
12615CHOL    R341136  15.055  -3.339  11.556
12615CHOL    R441137  15.201  -3.347  11.715
12615CHOL    R541138  15.115  -3.487  11.575
12615CHOL    C141139  15.205  -3.707  11.603
12615CHOL    C241140  15.295  -3.928  11.631
12616CHOL   ROH41141  -3.561  12.129   6.652
12616CHOL    R141142  -3.714  12.153   6.613
12616CHOL    R241143  -3.874  12.202   6.777
12616CHOL    R341144  -3.887  12.180   6.569
12616CHOL    R441145  -4.008  12.223   6.743
12616CHOL    R541146  -4.041  12.204   6.531
12616CHOL    C141147  -4.271  12.239   6.472
12616CHOL    C241148  -4.501  12.275   6.414
12617CHOL   ROH41149  16.083  19.260  18.522
12617CHOL    R141150  16.155  19.369  18.614
12617CHOL    R241151  16.382  19.351  18.666
12617CHOL    R341152  16.236  19.491  18.719
12617CHOL    R441153  16.445  19.446  18.747
12617CHOL    R541154  16.309  19.600  18.811
12617CHOL    C141155  16.417  19.763  18.950
12617CHOL    C241156  16.525  19.926  19.088
12618CHOL   ROH41157  10.479  23.923   8.354
12618CHOL    R141158  10.485  24.082   8.337
12618CHOL    R241159  10.658  24.206   8.432
12618CHOL    R341160  10.492  24.261   8.317
12618CHOL    R441161  10.664  24.345   8.417
12618CHOL    R541162  10.498  24.420   8.300
12618CHOL    C141163  10.508  24.658   8.274
12618CHOL    C241164  10.517  24.896   8.248
12619CHOL   ROH41165  18.526  -0.959   8.137
12619CHOL    R141166  18.625  -1.083   8.116
12619CHOL    R241167  18.682  -1.156   7.902
12619CHOL    R341168  18.736  -1.223   8.092
12619CHOL    R441169  18.768  -1.265   7.883
12619CHOL    R541170  18.834  -1.347   8.071
12619CHOL    C141171  18.983  -1.533   8.039
12619CHOL    C241172  19.131  -1.719   8.007
12620CHOL   ROH41173   3.505  -1.928  13.906
12620CHOL    R141174   3.433  -2.064  13.950
12620CHOL    R241175   3.539  -2.270  13.921
12620CHOL    R341176   3.352  -2.217  13.998
12620CHOL    R441177   3.476  -2.389  13.959
12620CHOL    R541178   3.281  -2.354  14.042
12620CHOL    C141179   3.173  -2.558  14.107
12620CHOL    C241180   3.065  -2.762  14.173
12621CHOL   ROH41181   3.939   5.699  21.948
12621CHOL    R141182   3.867   5.650  22.082
12621CHOL    R241183   3.907   5.438  22.170
12621CHOL    R341184   3.786   5.595  22.233
12621CHOL    R441185   3.844   5.395  22.287
12621CHOL    R541186   3.714   5.546  22.368
12621CHOL    C141187   3.606   5.473  22.569
12621CHOL    C241188   3.498   5.399  22.770
12622CHOL   ROH41189   5.616  21.279   2.785
12622CHOL    R141190   5.569  21.406   2.700
12622CHOL    R241191   5.581  21.621   2.789
12622CHOL    R341192   5.517  21.549   2.604
12622CHOL    R441193   5.540  21.732   2.715
12622CHOL    R541194   5.470  21.676   2.519
12622CHOL    C141195   5.400  21.867   2.391
12622CHOL    C241196   5.330  22.057   2.264
12623CHOL   ROH41197  10.908   9.972  23.979
12623CHOL    R141198  10.921   9.971  24.139
12623CHOL    R241199  10.937  10.170  24.259
12623CHOL    R341200  10.936   9.970  24.318
12623CHOL    R441201  10.948  10.169  24.399
12623CHOL    R541202  10.950   9.969  24.477
12623CHOL    C141203  10.969   9.968  24.717
12623CHOL    C241204  10.989   9.966  24.956
12624CHOL   ROH41205  -1.563  14.969  16.533
12624CHOL    R141206  -1.693  15.027  16.606
12624CHOL    R241207  -1.750  14.960  16.822
12624CHOL    R341208  -1.840  15.092  16.688
12624CHOL    R441209  -1.863  15.011  16.886
12624CHOL    R541210  -1.970  15.150  16.760
12624CHOL    C141211  -2.165  15.237  16.870
12624CHOL    C241212  -2.361  15.324  16.979
12625CHOL   ROH41213   7.567  16.213  -2.476
12625CHOL    R141214   7.540  16.281  -2.619
12625CHOL    R241215   7.537  16.513  -2.643
12625CHOL    R341216   7.510  16.357  -2.779
12625CHOL    R441217   7.514  16.572  -2.767
12625CHOL    R541218   7.483  16.425  -2.922
12625CHOL    C141219   7.443  16.526  -3.135
12625CHOL    C241220   7.402  16.628  -3.349
12626CHOL   ROH41221   9.872  -2.784  15.887
12626CHOL    R141222   9.868  -2.929  15.955
12626CHOL    R241223  10.062  -3.057  15.973
12626CHOL    R341224   9.865  -3.092  16.031
12626CHOL    R441225  10.059  -3.184  16.032
12626CHOL    R541226   9.861  -3.237  16.099
12626CHOL    C141227   9.856  -3.454  16.200
12626CHOL    C241228   9.850  -3.672  16.302
12627CHOL   ROH41229   7.663  21.641  17.512
12627CHOL    R141230   7.637  21.773  17.599
12627CHOL    R241231   7.811  21.877  17.714
12627CHOL    R341232   7.608  21.921  17.696
12627CHOL    R441233   7.788  21.992  17.790
12627CHOL    R541234   7.582  22.053  17.783
12627CHOL    C141235   7.543  22.251  17.913
12627CHOL    C241236   7.504  22.449  18.043
12628CHOL   ROH41237  -0.351  17.450   3.783
12628CHOL    R141238  -0.468  17.533   3.713
12628CHOL    R241239  -0.606  17.674   3.838
12628CHOL    R341240  -0.600  17.627   3.634
12628CHOL    R441241  -0.709  17.747   3.777
12628CHOL    R541242  -0.718  17.711   3.564
12628CHOL    C141243  -0.893  17.836   3.460
12628CHOL    C241244  -1.069  17.961   3.355
12629CHOL   ROH41245   3.958  18.754  19.204
12629CHOL    R141246   3.893  18.854  19.311
12629CHOL    R241247   3.925  18.823  19.540
12629CHOL    R341248   3.820  18.967  19.431
12629CHOL    R441249   3.868  18.910  19.633
12629CHOL    R541250   3.755  19.067  19.537
12629CHOL    C141251   3.657  19.217  19.698
12629CHOL    C241252   3.559  19.367  19.858
12630CHOL   ROH41253  15.966  22.418   7.955
12630CHOL    R141254  16.036  22.560   7.935
12630CHOL    R241255  16.249  22.577   7.841
12630CHOL    R341256  16.115  22.721   7.913
12630CHOL    R441257  16.310  22.702   7.824
12630CHOL    R541258  16.185  22.863   7.893
12630CHOL    C141259  16.291  23.077   7.864
12630CHOL    C241260  16.396  23.290   7.834
12631CHOL   ROH41261   9.086  23.892   8.145
12631CHOL    R141262   9.078  24.051   8.127
12631CHOL    R241263   9.257  24.188   8.189
12631CHOL    R341264   9.069  24.230   8.107
12631CHOL    R441265   9.250  24.327   8.173
12631CHOL    R541266   9.062  24.388   8.089
12631CHOL    C141267   9.050  24.627   8.062
12631CHOL    C241268   9.038  24.865   8.035
12632CHOL   ROH41269   9.653  -3.980  11.121
12632CHOL    R141270   9.650  -4.140  11.133
12632CHOL    R241271   9.727  -4.275  10.959
12632CHOL    R341272   9.647  -4.319  11.147
12632CHOL    R441273   9.725  -4.414  10.970
12632CHOL    R541274   9.645  -4.478  11.159
12632CHOL    C141275   9.640  -4.718  11.177
12632CHOL    C241276   9.636  -4.957  11.195
12633CHOL   ROH41277   7.535  -1.608   2.374
12633CHOL    R141278   7.511  -1.741   2.288
12633CHOL    R241279   7.633  -1.783   2.094
12633CHOL    R341280   7.484  -1.891   2.192
12633CHOL    R441281   7.613  -1.899   2.019
12633CHOL    R541282   7.460  -2.024   2.107
12633CHOL    C141283   7.425  -2.224   1.978
12633CHOL    C241284   7.389  -2.423   1.850
12634CHOL   ROH41285  18.891  18.550  16.315
12634CHOL    R141286  18.994  18.653  16.381
12634CHOL    R241287  19.023  18.867  16.292
12634CHOL    R341288  19.109  18.770  16.456
12634CHOL    R441289  19.113  18.958  16.350
12634CHOL    R541290  19.212  18.873  16.522
12634CHOL    C141291  19.365  19.028  16.622
12634CHOL    C241292  19.519  19.183  16.722
12635CHOL   ROH41293   9.976   2.829  22.012
12635CHOL    R141294   9.975   2.748  22.150
12635CHOL    R241295  10.110   2.813  22.328
12635CHOL    R341296   9.973   2.657  22.305
12635CHOL    R441297  10.109   2.742  22.449
12635CHOL    R541298   9.972   2.577  22.444
12635CHOL    C141299   9.969   2.455  22.651
12635CHOL    C241300   9.967   2.334  22.858
12636CHOL   ROH41301  21.506  16.299   5.308
12636CHOL    R141302  21.639  16.376   5.263
12636CHOL    R241303  21.820  16.261   5.173
12636CHOL    R341304  21.788  16.463   5.213
12636CHOL    R441305  21.936  16.328   5.134
12636CHOL    R541306  21.921  16.541   5.169
12636CHOL    C141307  22.120  16.656   5.102
12636CHOL    C241308  22.319  16.772   5.035
12637CHOL   ROH41309  15.494  -1.768  15.210
12637CHOL    R141310  15.556  -1.904  15.267
12637CHOL    R241311  15.731  -1.901  15.421
12637CHOL    R341312  15.625  -2.057  15.331
12637CHOL    R441313  15.785  -2.020  15.471
12637CHOL    R541314  15.687  -2.193  15.389
12637CHOL    C141315  15.780  -2.398  15.474
12637CHOL    C241316  15.872  -2.602  15.560
12638CHOL   ROH41317  15.936  -2.650   9.203
12638CHOL    R141318  16.005  -2.794   9.193
12638CHOL    R241319  16.210  -2.822   9.086
12638CHOL    R341320  16.082  -2.956   9.182
12638CHOL    R441321  16.270  -2.948   9.078
12638CHOL    R541322  16.151  -3.101   9.172
12638CHOL    C141323  16.253  -3.317   9.157
12638CHOL    C241324  16.356  -3.533   9.142
12639CHOL   ROH41325  -2.851   7.026  15.262
12639CHOL    R141326  -2.998   6.996  15.318
12639CHOL    R241327  -3.031   6.847  15.495
12639CHOL    R341328  -3.163   6.961  15.381
12639CHOL    R441329  -3.159   6.820  15.544
12639CHOL    R541330  -3.310   6.931  15.437
12639CHOL    C141331  -3.530   6.885  15.521
12639CHOL    C241332  -3.751   6.840  15.605
12640CHOL   ROH41333  -3.744   9.105   6.676
12640CHOL    R141334  -3.899   9.101   6.636
12640CHOL    R241335  -4.057   9.005   6.777
12640CHOL    R341336  -4.073   9.097   6.590
12640CHOL    R441337  -4.193   9.001   6.741
12640CHOL    R541338  -4.228   9.094   6.549
12640CHOL    C141339  -4.460   9.088   6.489
12640CHOL    C241340  -4.692   9.082   6.428
12641CHOL   ROH41341  -3.345   8.743   5.377
12641CHOL    R141342  -3.496   8.734   5.326
12641CHOL    R241343  -3.639   8.566   5.402
12641CHOL    R341344  -3.666   8.723   5.268
12641CHOL    R441345  -3.771   8.558   5.357
12641CHOL    R541346  -3.817   8.714   5.217
12641CHOL    C141347  -4.044   8.700   5.139
12641CHOL    C241348  -4.271   8.686   5.062
12642CHOL   ROH41349  11.377  -2.817  15.685
12642CHOL    R141350  11.395  -2.962  15.750
12642CHOL    R241351  11.587  -3.018  15.869
12642CHOL    R341352  11.414  -3.125  15.823
12642CHOL    R441353  11.603  -3.145  15.926
12642CHOL    R541354  11.432  -3.271  15.888
12642CHOL    C141355  11.458  -3.488  15.986
12642CHOL    C241356  11.485  -3.706  16.084
12643CHOL   ROH41357   1.106   5.898  20.012
12643CHOL    R141358   1.008   5.846  20.128
12643CHOL    R241359   1.075   5.849  20.351
12643CHOL    R341360   0.898   5.789  20.257
12643CHOL    R441361   0.989   5.804  20.452
12643CHOL    R541362   0.800   5.737  20.373
12643CHOL    C141363   0.653   5.660  20.546
12643CHOL    C241364   0.506   5.582  20.720
12644CHOL   ROH41365  15.013  19.332   0.717
12644CHOL    R141366  15.076  19.439   0.617
12644CHOL    R241367  15.268  19.390   0.493
12644CHOL    R341368  15.147  19.560   0.503
12644CHOL    R441369  15.323  19.484   0.405
12644CHOL    R541370  15.211  19.667   0.403
12644CHOL    C141371  15.305  19.829   0.252
12644CHOL    C241372  15.400  19.990   0.102
12645CHOL   ROH41373  20.027   8.607  19.522
12645CHOL    R141374  20.145   8.588  19.628
12645CHOL    R241375  20.360   8.668  19.585
12645CHOL    R341376  20.278   8.566  19.748
12645CHOL    R441377  20.463   8.651  19.678
12645CHOL    R541378  20.396   8.547  19.854
12645CHOL    C141379  20.572   8.518  20.014
12645CHOL    C241380  20.749   8.489  20.174
12646CHOL   ROH41381  22.449   4.221   7.642
12646CHOL    R141382  22.592   4.154   7.617
12646CHOL    R241383  22.638   4.039   7.419
12646CHOL    R341384  22.753   4.078   7.589
12646CHOL    R441385  22.763   3.980   7.398
12646CHOL    R541386  22.896   4.010   7.565
12646CHOL    C141387  23.111   3.909   7.527
12646CHOL    C241388  23.325   3.808   7.490
12647CHOL   ROH41389  21.729  10.350  17.475
12647CHOL    R141390  21.864  10.349  17.561
12647CHOL    R241391  22.066  10.421  17.469
12647CHOL    R341392  22.015  10.348  17.658
12647CHOL    R441393  22.183  10.420  17.545
12647CHOL    R541394  22.150  10.347  17.745
12647CHOL    C141395  22.352  10.346  17.874
12647CHOL    C241396  22.554  10.344  18.003
12648CHOL   ROH41397  15.843   1.686   0.252
12648CHOL    R141398  15.910   1.590   0.143
12648CHOL    R241399  15.864   1.616  -0.084
12648CHOL    R341400  15.985   1.481   0.020
12648CHOL    R441401  15.923   1.532  -0.180
12648CHOL    R541402  16.052   1.385  -0.088
12648CHOL    C141403  16.152   1.241  -0.252
12648CHOL    C241404  16.253   1.096  -0.415
12649CHOL   ROH41405   5.220   2.071  -0.693
12649CHOL    R141406   5.159   1.981  -0.810
12649CHOL    R241407   5.089   1.762  -0.769
12649CHOL    R341408   5.090   1.879  -0.942
12649CHOL    R441409   5.036   1.683  -0.871
12649CHOL    R541410   5.028   1.789  -1.058
12649CHOL    C141411   4.937   1.654  -1.234
12649CHOL    C241412   4.845   1.518  -1.409
12650CHOL   ROH41413  -2.383   6.117  15.858
12650CHOL    R141414  -2.523   6.072  15.920
12650CHOL    R241415  -2.540   6.006  16.143
12650CHOL    R341416  -2.682   6.022  15.990
12650CHOL    R441417  -2.663   5.967  16.197
12650CHOL    R541418  -2.822   5.978  16.052
12650CHOL    C141419  -3.033   5.911  16.145
12650CHOL    C241420  -3.243   5.844  16.238
12651CHOL   ROH41421  11.754  22.767   4.531
12651CHOL    R141422  11.782  22.913   4.471
12651CHOL    R241423  11.999  22.996   4.453
12651CHOL    R341424  11.813  23.077   4.404
12651CHOL    R441425  12.023  23.124   4.401
12651CHOL    R541426  11.841  23.223   4.345
12651CHOL    C141427  11.882  23.442   4.255
12651CHOL    C241428  11.924  23.661   4.165
12652CHOL   ROH41429  21.739   4.876   4.304
12652CHOL    R141430  21.873   4.816   4.240
12652CHOL    R241431  22.014   4.948   4.110
12652CHOL    R341432  22.024   4.748   4.169
12652CHOL    R441433  22.131   4.896   4.054
12652CHOL    R541434  22.158   4.688   4.105
12652CHOL    C141435  22.358   4.598   4.009
12652CHOL    C241436  22.559   4.508   3.914
12653CHOL   ROH41437  21.185  11.423   1.841
12653CHOL    R141438  21.313  11.436   1.746
12653CHOL    R241439  21.297  11.535   1.535
12653CHOL    R341440  21.457  11.451   1.639
12653CHOL    R441441  21.409  11.547   1.452
12653CHOL    R541442  21.585  11.464   1.543
12653CHOL    C141443  21.777  11.483   1.401
12653CHOL    C241444  21.969  11.502   1.258
12654CHOL   ROH41445  18.510  -0.352   5.911
12654CHOL    R141446  18.608  -0.470   5.866
12654CHOL    R241447  18.723  -0.459   5.663
12654CHOL    R341448  18.718  -0.603   5.814
12654CHOL    R441449  18.809  -0.562   5.624
12654CHOL    R541450  18.815  -0.721   5.769
12654CHOL    C141451  18.962  -0.898   5.701
12654CHOL    C241452  19.109  -1.075   5.633
12655CHOL   ROH41453  20.343  16.654   3.337
12655CHOL    R141454  20.460  16.733   3.261
12655CHOL    R241455  20.468  16.741   3.028
12655CHOL    R341456  20.591  16.822   3.176
12655CHOL    R441457  20.570  16.811   2.962
12655CHOL    R541458  20.707  16.901   3.101
12655CHOL    C141459  20.882  17.020   2.987
12655CHOL    C241460  21.057  17.139   2.873
12656CHOL   ROH41461  -3.081  15.370  11.149
12656CHOL    R141462  -3.229  15.430  11.164
12656CHOL    R241463  -3.400  15.305  11.260
12656CHOL    R341464  -3.394  15.498  11.181
12656CHOL    R441465  -3.529  15.358  11.273
12656CHOL    R541466  -3.542  15.559  11.196
12656CHOL    C141467  -3.763  15.649  11.219
12656CHOL    C241468  -3.985  15.739  11.241
12657CHOL   ROH41469   0.932  13.692  -0.258
12657CHOL    R141470   0.834  13.730  -0.378
12657CHOL    R241471   0.610  13.782  -0.339
12657CHOL    R341472   0.724  13.774  -0.514
12657CHOL    R441473   0.524  13.815  -0.444
12657CHOL    R541474   0.626  13.812  -0.634
12657CHOL    C141475   0.478  13.870  -0.814
12657CHOL    C241476   0.331  13.927  -0.995
12658CHOL   ROH41477   1.795  18.645   2.333
12658CHOL    R141478   1.704  18.748   2.251
12658CHOL    R241479   1.511  18.839   2.346
12658CHOL    R341480   1.601  18.864   2.159
12658CHOL    R441481   1.431  18.929   2.275
12658CHOL    R541482   1.510  18.967   2.078
12658CHOL    C141483   1.372  19.121   1.955
12658CHOL    C241484   1.235  19.275   1.832
12659CHOL   ROH41485  -3.263  13.425   6.544
12659CHOL    R141486  -3.413  13.464   6.503
12659CHOL    R241487  -3.556  13.568   6.655
12659CHOL    R341488  -3.581  13.508   6.457
12659CHOL    R441489  -3.687  13.602   6.619
12659CHOL    R541490  -3.731  13.547   6.416
12659CHOL    C141491  -3.956  13.605   6.355
12659CHOL    C241492  -4.180  13.663   6.293
12660CHOL   ROH41493   6.691  -1.399  17.571
12660CHOL    R141494   6.656  -1.528  17.658
12660CHOL    R241495   6.756  -1.565  17.866
12660CHOL    R341496   6.616  -1.674  17.756
12660CHOL    R441497   6.725  -1.678  17.942
12660CHOL    R541498   6.580  -1.804  17.843
12660CHOL    C141499   6.527  -1.998  17.974
12660CHOL    C241500   6.474  -2.192  18.104
12661CHOL   ROH41501   1.628  21.109  12.649
12661CHOL    R141502   1.540  21.238  12.684
12661CHOL    R241503   1.629  21.453  12.670
12661CHOL    R341504   1.440  21.382  12.724
12661CHOL    R441505   1.552  21.565  12.700
12661CHOL    R541506   1.352  21.511  12.759
12661CHOL    C141507   1.219  21.704  12.812
12661CHOL    C241508   1.086  21.897  12.865
12662CHOL   ROH41509  22.152   3.353   8.658
12662CHOL    R141510  22.292   3.277   8.642
12662CHOL    R241511  22.304   3.071   8.533
12662CHOL    R341512  22.449   3.190   8.623
12662CHOL    R441513  22.426   3.004   8.518
12662CHOL    R541514  22.589   3.114   8.606
12662CHOL    C141515  22.798   2.999   8.582
12662CHOL    C241516  23.008   2.885   8.557
12663CHOL   ROH41517  19.927   0.820   6.411
12663CHOL    R141518  20.043   0.716   6.372
12663CHOL    R241519  20.143   0.722   6.162
12663CHOL    R341520  20.173   0.600   6.328
12663CHOL    R441521  20.244   0.632   6.128
12663CHOL    R541522  20.288   0.496   6.289
12663CHOL    C141523  20.462   0.341   6.231
12663CHOL    C241524  20.636   0.186   6.173
12664CHOL   ROH41525   0.077   1.319   4.664
12664CHOL    R141526  -0.037   1.221   4.609
12664CHOL    R241527  -0.005   0.990   4.607
12664CHOL    R341528  -0.165   1.110   4.547
12664CHOL    R441529  -0.105   0.904   4.559
12664CHOL    R541530  -0.279   1.012   4.492
12664CHOL    C141531  -0.449   0.865   4.409
12664CHOL    C241532  -0.620   0.717   4.327
12665CHOL   ROH41533  10.635  18.231  -1.387
12665CHOL    R141534  10.643  18.329  -1.514
12665CHOL    R241535  10.829  18.465  -1.547
12665CHOL    R341536  10.653  18.438  -1.656
12665CHOL    R441537  10.836  18.551  -1.658
12665CHOL    R541538  10.661  18.536  -1.782
12665CHOL    C141539  10.673  18.682  -1.972
12665CHOL    C241540  10.686  18.829  -2.162
12666CHOL   ROH41541  -0.618   9.037   0.710
12666CHOL    R141542  -0.738   9.028   0.604
12666CHOL    R241543  -0.939   9.140   0.641
12666CHOL    R341544  -0.872   9.018   0.485
12666CHOL    R441545  -1.044   9.132   0.548
12666CHOL    R541546  -0.992   9.009   0.379
12666CHOL    C141547  -1.171   8.995   0.220
12666CHOL    C241548  -1.350   8.981   0.061
12667CHOL   ROH41549  19.063   7.710  20.304
12667CHOL    R141550  19.171   7.679  20.418
12667CHOL    R241551  19.384   7.603  20.364
12667CHOL    R341552  19.292   7.644  20.547
12667CHOL    R441553  19.479   7.576  20.464
12667CHOL    R541554  19.399   7.613  20.661
12667CHOL    C141555  19.561   7.566  20.832
12667CHOL    C241556  19.723   7.520  21.004
12668CHOL   ROH41557  19.402   0.166  13.105
12668CHOL    R141558  19.511   0.055  13.141
12668CHOL    R241559  19.598  -0.085  12.976
12668CHOL    R341560  19.635  -0.070  13.181
12668CHOL    R441561  19.694  -0.183  13.007
12668CHOL    R541562  19.744  -0.182  13.216
12668CHOL    C141563  19.908  -0.348  13.270
12668CHOL    C241564  20.072  -0.515  13.324
12669CHOL   ROH41565   6.842  21.671  17.174
12669CHOL    R141566   6.808  21.804  17.256
12669CHOL    R241567   6.978  21.938  17.344
12669CHOL    R341568   6.770  21.953  17.349
12669CHOL    R441569   6.948  22.054  17.416
12669CHOL    R541570   6.735  22.086  17.431
12669CHOL    C141571   6.684  22.285  17.555
12669CHOL    C241572   6.633  22.484  17.679
12670CHOL   ROH41573  16.458   1.376   0.953
12670CHOL    R141574  16.533   1.277   0.852
12670CHOL    R241575  16.479   1.275   0.625
12670CHOL    R341576  16.618   1.167   0.738
12670CHOL    R441577  16.545   1.188   0.537
12670CHOL    R541578  16.693   1.068   0.637
12670CHOL    C141579  16.806   0.920   0.485
12670CHOL    C241580  16.919   0.772   0.334
12671CHOL   ROH41581  16.433   0.370   2.049
12671CHOL    R141582  16.507   0.260   1.959
12671CHOL    R241583  16.640   0.323   1.778
12671CHOL    R341584  16.591   0.137   1.859
12671CHOL    R441585  16.705   0.228   1.700
12671CHOL    R541586  16.666   0.028   1.769
12671CHOL    C141587  16.777  -0.137   1.635
12671CHOL    C241588  16.889  -0.301   1.500
12672CHOL   ROH41589  18.199  -0.988  12.619
12672CHOL    R141590  18.293  -1.114  12.650
12672CHOL    R241591  18.501  -1.087  12.751
12672CHOL    R341592  18.398  -1.256  12.685
12672CHOL    R441593  18.583  -1.197  12.778
12672CHOL    R541594  18.492  -1.382  12.715
12672CHOL    C141595  18.633  -1.570  12.762
12672CHOL    C241596  18.773  -1.759  12.808
12673CHOL   ROH41597   4.364  22.609  12.669
12673CHOL    R141598   4.299  22.752  12.702
12673CHOL    R241599   4.406  22.901  12.845
12673CHOL    R341600   4.227  22.912  12.739
12673CHOL    R441601   4.350  23.026  12.874
12673CHOL    R541602   4.162  23.054  12.772
12673CHOL    C141603   4.065  23.268  12.821
12673CHOL    C241604   3.968  23.482  12.871
12674CHOL   ROH41605  10.501  23.603   6.554
12674CHOL    R141606  10.511  23.758   6.517
12674CHOL    R241607  10.668  23.896   6.619
12674CHOL    R341608  10.521  23.933   6.476
12674CHOL    R441609  10.677  24.032   6.587
12674CHOL    R541610  10.531  24.089   6.439
12674CHOL    C141611  10.545  24.322   6.384
12674CHOL    C241612  10.560  24.555   6.329
12675CHOL   ROH41613  15.543   7.077  -2.506
12675CHOL    R141614  15.608   7.045  -2.649
12675CHOL    R241615  15.476   6.978  -2.829
12675CHOL    R341616  15.681   7.010  -2.809
12675CHOL    R441617  15.533   6.950  -2.954
12675CHOL    R541618  15.747   6.979  -2.952
12675CHOL    C141619  15.844   6.931  -3.166
12675CHOL    C241620  15.942   6.884  -3.380
12676CHOL   ROH41621  -1.418   5.350   2.774
12676CHOL    R141622  -1.545   5.300   2.690
12676CHOL    R241623  -1.613   5.077   2.697
12676CHOL    R341624  -1.688   5.243   2.597
12676CHOL    R441625  -1.724   5.033   2.624
12676CHOL    R541626  -1.815   5.193   2.513
12676CHOL    C141627  -2.005   5.118   2.388
12676CHOL    C241628  -2.195   5.042   2.262
12677CHOL   ROH41629  -1.989   9.068  17.419
12677CHOL    R141630  -2.123   9.061  17.507
12677CHOL    R241631  -2.184   8.864  17.617
12677CHOL    R341632  -2.273   9.053  17.606
12677CHOL    R441633  -2.301   8.858  17.694
12677CHOL    R541634  -2.407   9.045  17.694
12677CHOL    C141635  -2.607   9.035  17.825
12677CHOL    C241636  -2.807   9.024  17.957
12678CHOL   ROH41637   1.655   3.720  19.354
12678CHOL    R141638   1.561   3.653  19.465
12678CHOL    R241639   1.651   3.532  19.643
12678CHOL    R341640   1.455   3.577  19.589
12678CHOL    R441641   1.569   3.474  19.739
12678CHOL    R541642   1.361   3.510  19.699
12678CHOL    C141643   1.219   3.409  19.865
12678CHOL    C241644   1.078   3.308  20.031
12679CHOL   ROH41645   6.792   4.759  -2.797
12679CHOL    R141646   6.763   4.702  -2.944
12679CHOL    R241647   6.811   4.481  -2.999
12679CHOL    R341648   6.730   4.638  -3.109
12679CHOL    R441649   6.785   4.431  -3.127
12679CHOL    R541650   6.701   4.582  -3.256
12679CHOL    C141651   6.657   4.496  -3.476
12679CHOL    C241652   6.613   4.411  -3.696
12680CHOL   ROH41653   2.360  19.591   3.025
12680CHOL    R141654   2.276  19.705   2.951
12680CHOL    R241655   2.349  19.927   2.949
12680CHOL    R341656   2.180  19.833   2.868
12680CHOL    R441657   2.275  20.026   2.885
12680CHOL    R541658   2.096  19.948   2.794
12680CHOL    C141659   1.969  20.119   2.683
12680CHOL    C241660   1.843  20.290   2.572
12681CHOL   ROH41661   2.553  12.416  21.653
12681CHOL    R141662   2.464  12.449  21.782
12681CHOL    R241663   2.536  12.388  21.996
12681CHOL    R341664   2.365  12.486  21.927
12681CHOL    R441665   2.459  12.417  22.109
12681CHOL    R541666   2.276  12.519  22.057
12681CHOL    C141667   2.143  12.568  22.250
12681CHOL    C241668   2.010  12.618  22.444
12682CHOL   ROH41669  -3.399  11.241   5.665
12682CHOL    R141670  -3.551  11.256   5.618
12682CHOL    R241671  -3.715  11.331   5.766
12682CHOL    R341672  -3.723  11.272   5.566
12682CHOL    R441673  -3.849  11.344   5.725
12682CHOL    R541674  -3.875  11.287   5.520
12682CHOL    C141675  -4.104  11.308   5.450
12682CHOL    C241676  -4.333  11.330   5.380
12683CHOL   ROH41677   0.787  13.204  -0.281
12683CHOL    R141678   0.687  13.236  -0.402
12683CHOL    R241679   0.464  13.289  -0.362
12683CHOL    R341680   0.575  13.272  -0.538
12683CHOL    R441681   0.376  13.317  -0.468
12683CHOL    R541682   0.475  13.304  -0.659
12683CHOL    C141683   0.325  13.351  -0.840
12683CHOL    C241684   0.175  13.399  -1.021
12684CHOL   ROH41685  19.648   7.078   0.247
12684CHOL    R141686  19.756   7.041   0.135
12684CHOL    R241687  19.744   7.133  -0.079
12684CHOL    R341688  19.878   6.999   0.010
12684CHOL    R441689  19.839   7.100  -0.176
12684CHOL    R541690  19.986   6.962  -0.102
12684CHOL    C141691  20.149   6.906  -0.270
12684CHOL    C241692  20.311   6.851  -0.437
12685CHOL   ROH41693  20.627   6.627   1.493
12685CHOL    R141694  20.748   6.588   1.396
12685CHOL    R241695  20.746   6.646   1.171
12685CHOL    R341696  20.885   6.543   1.288
12685CHOL    R441697  20.852   6.612   1.086
12685CHOL    R541698  21.006   6.504   1.191
12685CHOL    C141699  21.188   6.445   1.046
12685CHOL    C241700  21.370   6.386   0.901
12686CHOL   ROH41701  10.621  12.970  -3.773
12686CHOL    R141702  10.631  13.006  -3.929
12686CHOL    R241703  10.789  12.904  -4.066
12686CHOL    R341704  10.641  13.047  -4.103
12686CHOL    R441705  10.797  12.936  -4.202
12686CHOL    R541706  10.651  13.083  -4.259
12686CHOL    C141707  10.665  13.138  -4.492
12686CHOL    C241708  10.680  13.192  -4.726
12687CHOL   ROH41709  10.244  -3.526   5.910
12687CHOL    R141710  10.241  -3.679   5.864
12687CHOL    R241711  10.343  -3.845   5.991
12687CHOL    R341712  10.237  -3.851   5.812
12687CHOL    R441713  10.340  -3.979   5.951
12687CHOL    R541714  10.233  -4.005   5.765
12687CHOL    C141715  10.228  -4.234   5.696
12687CHOL    C241716  10.223  -4.464   5.627
12688CHOL   ROH41717   3.616   2.126   0.232
12688CHOL    R141718   3.544   2.034   0.123
12688CHOL    R241719   3.667   1.926  -0.043
12688CHOL    R341720   3.463   1.930   0.000
12688CHOL    R441721   3.604   1.845  -0.139
12688CHOL    R541722   3.391   1.838  -0.110
12688CHOL    C141723   3.283   1.700  -0.273
12688CHOL    C241724   3.175   1.562  -0.437
12689CHOL   ROH41725  15.917  17.492  20.181
12689CHOL    R141726  15.988  17.573  20.299
12689CHOL    R241727  16.072  17.788  20.264
12689CHOL    R341728  16.067  17.665  20.433
12689CHOL    R441729  16.133  17.859  20.368
12689CHOL    R541730  16.138  17.746  20.551
12689CHOL    C141731  16.243  17.868  20.729
12689CHOL    C241732  16.349  17.990  20.906
12690CHOL   ROH41733  14.020  22.968   6.734
12690CHOL    R141734  14.066  23.116   6.694
12690CHOL    R241735  14.241  23.150   6.542
12690CHOL    R341736  14.119  23.282   6.648
12690CHOL    R441737  14.281  23.279   6.507
12690CHOL    R541738  14.165  23.430   6.608
12690CHOL    C141739  14.235  23.651   6.548
12690CHOL    C241740  14.304  23.873   6.487
12691CHOL   ROH41741  20.454  18.184  14.017
12691CHOL    R141742  20.570  18.283  14.065
12691CHOL    R241743  20.593  18.495  13.972
12691CHOL    R341744  20.701  18.394  14.118
12691CHOL    R441745  20.694  18.582  14.013
12691CHOL    R541746  20.817  18.493  14.166
12691CHOL    C141747  20.992  18.641  14.238
12691CHOL    C241748  21.166  18.790  14.309
12692CHOL   ROH41749  14.753  18.281  20.216
12692CHOL    R141750  14.808  18.373  20.335
12692CHOL    R241751  15.019  18.336  20.427
12692CHOL    R341752  14.870  18.477  20.468
12692CHOL    R441753  15.067  18.417  20.531
12692CHOL    R541754  14.925  18.569  20.587
12692CHOL    C141755  15.007  18.707  20.765
12692CHOL    C241756  15.089  18.845  20.943
12693CHOL   ROH41757  23.066  10.987   5.242
12693CHOL    R141758  23.217  10.995   5.189
12693CHOL    R241759  23.318  10.812   5.086
12693CHOL    R341760  23.386  11.005   5.129
12693CHOL    R441761  23.450  10.819   5.040
12693CHOL    R541762  23.537  11.013   5.076
12693CHOL    C141763  23.763  11.025   4.996
12693CHOL    C241764  23.989  11.038   4.917
12694CHOL   ROH41765   0.326  19.656  13.593
12694CHOL    R141766   0.216  19.763  13.636
12694CHOL    R241767   0.074  19.724  13.818
12694CHOL    R341768   0.091  19.884  13.685
12694CHOL    R441769  -0.022  19.818  13.856
12694CHOL    R541770  -0.019  19.991  13.728
12694CHOL    C141771  -0.185  20.153  13.794
12694CHOL    C241772  -0.350  20.314  13.859
12695CHOL   ROH41773  13.195   6.519  -3.284
12695CHOL    R141774  13.237   6.479  -3.433
12695CHOL    R241775  13.232   6.636  -3.606
12695CHOL    R341776  13.284   6.434  -3.601
12695CHOL    R441777  13.269   6.601  -3.736
12695CHOL    R541778  13.327   6.394  -3.750
12695CHOL    C141779  13.390   6.333  -3.974
12695CHOL    C241780  13.453   6.273  -4.197
12696CHOL   ROH41781   9.920  17.252  -2.101
12696CHOL    R141782   9.924  17.335  -2.238
12696CHOL    R241783  10.122  17.428  -2.316
12696CHOL    R341784   9.927  17.428  -2.391
12696CHOL    R441785  10.125  17.501  -2.436
12696CHOL    R541786   9.931  17.511  -2.528
12696CHOL    C141787   9.936  17.636  -2.733
12696CHOL    C241788   9.942  17.761  -2.938
12697CHOL   ROH41789   3.574  17.732  -0.064
12697CHOL    R141790   3.501  17.817  -0.178
12697CHOL    R241791   3.621  17.908  -0.356
12697CHOL    R341792   3.418  17.913  -0.306
12697CHOL    R441793   3.556  17.982  -0.455
12697CHOL    R541794   3.345  17.998  -0.420
12697CHOL    C141795   3.234  18.125  -0.591
12697CHOL    C241796   3.124  18.252  -0.762
12698CHOL   ROH41797  22.545  15.319  12.867
12698CHOL    R141798  22.689  15.380  12.899
12698CHOL    R241799  22.866  15.355  12.749
12698CHOL    R341800  22.852  15.450  12.934
12698CHOL    R441801  22.992  15.409  12.777
12698CHOL    R541802  22.996  15.511  12.966
12698CHOL    C141803  23.212  15.603  13.014
12698CHOL    C241804  23.429  15.695  13.061
12699CHOL   ROH41805   3.151   1.891   0.757
12699CHOL    R141806   3.076   1.797   0.652
12699CHOL    R241807   3.184   1.722   0.459
12699CHOL    R341808   2.991   1.690   0.534
12699CHOL    R441809   3.118   1.639   0.367
12699CHOL    R541810   2.916   1.596   0.429
12699CHOL    C141811   2.803   1.454   0.272
12699CHOL    C241812   2.690   1.313   0.114
12700CHOL   ROH41813   3.401  21.414  14.847
12700CHOL    R141814   3.327  21.545  14.901
12700CHOL    R241815   3.389  21.757  14.828
12700CHOL    R341816   3.243  21.692  14.962
12700CHOL    R441817   3.324  21.872  14.876
12700CHOL    R541818   3.168  21.823  15.016
12700CHOL    C141819   3.057  22.019  15.097
12700CHOL    C241820   2.945  22.216  15.178
12701CHOL   ROH41821   9.942  23.349   5.512
12701CHOL    R141822   9.946  23.502   5.465
12701CHOL    R241823   9.961  23.675   5.620
12701CHOL    R341824   9.951  23.674   5.412
12701CHOL    R441825   9.964  23.809   5.579
12701CHOL    R541826   9.955  23.826   5.365
12701CHOL    C141827   9.962  24.056   5.294
12701CHOL    C241828   9.968  24.285   5.223
12702CHOL   ROH41829   1.940  14.944  20.323
12702CHOL    R141830   1.849  15.000  20.442
12702CHOL    R241831   1.942  15.055  20.649
12702CHOL    R341832   1.747  15.063  20.576
12702CHOL    R441833   1.862  15.104  20.753
12702CHOL    R541834   1.655  15.119  20.695
12702CHOL    C141835   1.519  15.204  20.874
12702CHOL    C241836   1.382  15.288  21.052
12703CHOL   ROH41837  19.335  20.055  12.244
12703CHOL    R141838  19.445  20.166  12.279
12703CHOL    R241839  19.633  20.112  12.406
12703CHOL    R341840  19.569  20.290  12.319
12703CHOL    R441841  19.729  20.209  12.437
12703CHOL    R541842  19.679  20.401  12.354
12703CHOL    C141843  19.843  20.567  12.408
12703CHOL    C241844  20.008  20.733  12.461
12704CHOL   ROH41845  21.386  16.395   5.123
12704CHOL    R141846  21.518  16.473   5.076
12704CHOL    R241847  21.716  16.358   5.031
12704CHOL    R341848  21.665  16.561   5.023
12704CHOL    R441849  21.831  16.427   4.990
12704CHOL    R541850  21.797  16.639   4.977
12704CHOL    C141851  21.994  16.756   4.906
12704CHOL    C241852  22.192  16.873   4.836
12705CHOL   ROH41853   3.940   3.802  -1.189
12705CHOL    R141854   3.868   3.726  -1.310
12705CHOL    R241855   3.663   3.620  -1.280
12705CHOL    R341856   3.787   3.641  -1.447
12705CHOL    R441857   3.600   3.554  -1.386
12705CHOL    R541858   3.715   3.566  -1.568
12705CHOL    C141859   3.607   3.452  -1.750
12705CHOL    C241860   3.499   3.338  -1.932
12706CHOL   ROH41861  -0.308  12.355   0.513
12706CHOL    R141862  -0.419  12.374   0.399
12706CHOL    R241863  -0.619  12.485   0.445
12706CHOL    R341864  -0.544  12.396   0.272
12706CHOL    R441865  -0.716  12.502   0.345
12706CHOL    R541866  -0.655  12.415   0.158
12706CHOL    C141867  -0.822  12.444  -0.012
12706CHOL    C241868  -0.988  12.473  -0.183
12707CHOL   ROH41869   4.838   3.903  -1.735
12707CHOL    R141870   4.777   3.830  -1.864
12707CHOL    R241871   4.877   3.638  -1.951
12707CHOL    R341872   4.708   3.748  -2.008
12707CHOL    R441873   4.823   3.574  -2.064
12707CHOL    R541874   4.648   3.675  -2.137
12707CHOL    C141875   4.556   3.566  -2.330
12707CHOL    C241876   4.465   3.456  -2.523
12708CHOL   ROH41877   7.564  22.045  16.816
12708CHOL    R141878   7.537  22.182  16.893
12708CHOL    R241879   7.713  22.323  16.953
12708CHOL    R341880   7.507  22.337  16.981
12708CHOL    R441881   7.690  22.443  17.021
12708CHOL    R541882   7.480  22.474  17.058
12708CHOL    C141883   7.440  22.681  17.174
12708CHOL    C241884   7.399  22.887  17.290
12709CHOL   ROH41885  -0.274   9.545  19.622
12709CHOL    R141886  -0.391   9.545  19.732
12709CHOL    R241887  -0.355   9.632  19.945
12709CHOL    R341888  -0.522   9.544  19.855
12709CHOL    R441889  -0.457   9.631  20.041
12709CHOL    R541890  -0.638   9.543  19.964
12709CHOL    C141891  -0.813   9.543  20.129
12709CHOL    C241892  -0.988   9.542  20.293
12710CHOL   ROH41893  12.470   9.996  -3.936
12710CHOL    R141894  12.501   9.997  -4.093
12710CHOL    R241895  12.419  10.167  -4.230
12710CHOL    R341896  12.537   9.999  -4.270
12710CHOL    R441897  12.447  10.169  -4.367
12710CHOL    R541898  12.568  10.001  -4.427
12710CHOL    C141899  12.615  10.003  -4.662
12710CHOL    C241900  12.662  10.005  -4.897
12711CHOL   ROH41901  -3.897   7.142  10.091
12711CHOL    R141902  -4.053   7.106  10.097
12711CHOL    R241903  -4.126   6.904  10.188
12711CHOL    R341904  -4.228   7.065  10.103
12711CHOL    R441905  -4.262   6.872  10.193
12711CHOL    R541906  -4.383   7.028  10.108
12711CHOL    C141907  -4.617   6.974  10.117
12711CHOL    C241908  -4.851   6.920  10.125
12712CHOL   ROH41909  23.737   9.923  11.702
12712CHOL    R141910  23.896   9.924  11.718
12712CHOL    R241911  24.027  10.083  11.609
12712CHOL    R341912  24.075   9.925  11.736
12712CHOL    R441913  24.166  10.084  11.623
12712CHOL    R541914  24.235   9.926  11.752
12712CHOL    C141915  24.473   9.927  11.776
12712CHOL    C241916  24.712   9.928  11.800
12713CHOL   ROH41917  10.527   5.602  -3.349
12713CHOL    R141918  10.531   5.553  -3.501
12713CHOL    R241919  10.568   5.329  -3.554
12713CHOL    R341920  10.535   5.498  -3.672
12713CHOL    R441921  10.571   5.286  -3.687
12713CHOL    R541922  10.539   5.449  -3.824
12713CHOL    C141923  10.545   5.375  -4.053
12713CHOL    C241924  10.551   5.301  -4.281
12714CHOL   ROH41925   7.334  -2.903   4.988
12714CHOL    R141926   7.305  -3.050   4.932
12714CHOL    R241927   7.296  -3.234   5.075
12714CHOL    R341928   7.272  -3.215   4.868
12714CHOL    R441929   7.270  -3.363   5.025
12714CHOL    R541930   7.243  -3.362   4.812
12714CHOL    C141931   7.199  -3.582   4.727
12714CHOL    C241932   7.156  -3.803   4.642
12715CHOL   ROH41933  10.503  23.369   5.683
12715CHOL    R141934  10.515  23.522   5.637
12715CHOL    R241935  10.638  23.675   5.763
12715CHOL    R341936  10.530  23.693   5.585
12715CHOL    R441937  10.649  23.809   5.722
12715CHOL    R541938  10.542  23.846   5.539
12715CHOL    C141939  10.561  24.075   5.470
12715CHOL    C241940  10.579  24.304   5.401
12716CHOL   ROH41941  12.660   6.738  -3.472
12716CHOL    R141942  12.692   6.699  -3.624
12716CHOL    R241943  12.659   6.852  -3.797
12716CHOL    R341944  12.727   6.654  -3.795
12716CHOL    R441945  12.687   6.817  -3.930
12716CHOL    R541946  12.759   6.615  -3.946
12716CHOL    C141947  12.807   6.556  -4.174
12716CHOL    C241948  12.854   6.497  -4.402
12717CHOL   ROH41949  15.296  16.683  21.033
12717CHOL    R141950  15.357  16.758  21.160
12717CHOL    R241951  15.458  16.639  21.334
12717CHOL    R341952  15.427  16.843  21.303
12717CHOL    R441953  15.511  16.704  21.445
12717CHOL    R541954  15.488  16.918  21.430
12717CHOL    C141955  15.580  17.031  21.621
12717CHOL    C241956  15.672  17.144  21.812
12718CHOL   ROH41957   3.607  -0.681   3.191
12718CHOL    R141958   3.535  -0.799   3.110
12718CHOL    R241959   3.658  -0.941   2.971
12718CHOL    R341960   3.455  -0.931   3.018
12718CHOL    R441961   3.595  -1.044   2.900
12718CHOL    R541962   3.383  -1.049   2.936
12718CHOL    C141963   3.275  -1.225   2.814
12718CHOL    C241964   3.168  -1.401   2.692
12719CHOL   ROH41965  12.331  22.376  16.082
12719CHOL    R141966  12.361  22.516  16.154
12719CHOL    R241967  12.579  22.592  16.183
12719CHOL    R341968  12.394  22.673  16.234
12719CHOL    R441969  12.605  22.714  16.246
12719CHOL    R541970  12.423  22.813  16.306
12719CHOL    C141971  12.468  23.023  16.414
12719CHOL    C241972  12.512  23.233  16.521
12720CHOL   ROH41973   7.304  21.445  17.688
12720CHOL    R141974   7.274  21.574  17.778
12720CHOL    R241975   7.441  21.670  17.910
12720CHOL    R341976   7.240  21.719  17.879
12720CHOL    R441977   7.415  21.782  17.988
12720CHOL    R541978   7.210  21.847  17.969
12720CHOL    C141979   7.166  22.041  18.105
12720CHOL    C241980   7.121  22.234  18.240
12721CHOL   ROH41981  22.036  13.244   3.687
12721CHOL    R141982  22.173  13.278   3.612
12721CHOL    R241983  22.190  13.263   3.380
12721CHOL    R341984  22.327  13.317   3.528
12721CHOL    R441985  22.310  13.293   3.314
12721CHOL    R541986  22.464  13.352   3.452
12721CHOL    C141987  22.670  13.403   3.340
12721CHOL    C241988  22.876  13.455   3.227
12722CHOL   ROH41989  16.315  22.297   8.437
12722CHOL    R141990  16.389  22.438   8.423
12722CHOL    R241991  16.605  22.453   8.338
12722CHOL    R341992  16.472  22.597   8.407
12722CHOL    R441993  16.670  22.576   8.325
12722CHOL    R541994  16.545  22.739   8.393
12722CHOL    C141995  16.656  22.950   8.373
12722CHOL    C241996  16.767  23.162   8.352
12723CHOL   ROH41997   5.769  13.948  22.809
12723CHOL    R141998   5.725  13.981  22.959
12723CHOL    R241999   5.814  14.163  23.074
12723CHOL    R342000   5.674  14.017  23.128
12723CHOL    R442001   5.775  14.191  23.205
12723CHOL    R542002   5.630  14.050  23.279
12723CHOL    C142003   5.563  14.099  23.504
12723CHOL    C242004   5.497  14.148  23.729
12724CHOL   ROH42005   9.072  15.535  -2.959
12724CHOL    R142006   9.066  15.598  -3.106
12724CHOL    R242007   9.107  15.825  -3.142
12724CHOL    R342008   9.060  15.668  -3.271
12724CHOL    R442009   9.102  15.879  -3.270
12724CHOL    R542010   9.054  15.731  -3.418
12724CHOL    C142011   9.045  15.825  -3.639
12724CHOL    C242012   9.037  15.919  -3.860
12725CHOL   ROH42013  -1.247   9.234   1.418
12725CHOL    R142014  -1.369   9.224   1.315
12725CHOL    R242015  -1.436   9.019   1.228
12725CHOL    R342016  -1.506   9.213   1.199
12725CHOL    R442017  -1.543   9.010   1.138
12725CHOL    R542018  -1.628   9.203   1.097
12725CHOL    C142019  -1.812   9.189   0.942
12725CHOL    C242020  -1.995   9.174   0.788
12726CHOL   ROH42021  12.208  21.268   1.845
12726CHOL    R142022  12.231  21.400   1.758
12726CHOL    R242023  12.339  21.391   1.552
12726CHOL    R342024  12.257  21.550   1.661
12726CHOL    R442025  12.360  21.507   1.476
12726CHOL    R542026  12.281  21.682   1.574
12726CHOL    C142027  12.315  21.881   1.444
12726CHOL    C242028  12.350  22.079   1.314
12727CHOL   ROH42029   2.585  13.316  21.419
12727CHOL    R142030   2.498  13.356  21.547
12727CHOL    R242031   2.585  13.340  21.762
12727CHOL    R342032   2.399  13.402  21.691
12727CHOL    R442033   2.509  13.375  21.874
12727CHOL    R542034   2.312  13.442  21.819
12727CHOL    C142035   2.181  13.502  22.010
12727CHOL    C242036   2.050  13.563  22.202
12728CHOL   ROH42037  17.179  21.791   8.174
12728CHOL    R142038  17.259  21.928   8.158
12728CHOL    R242039  17.473  21.933   8.064
12728CHOL    R342040  17.350  22.083   8.141
12728CHOL    R442041  17.543  22.053   8.051
12728CHOL    R542042  17.430  22.220   8.125
12728CHOL    C142043  17.551  22.427   8.102
12728CHOL    C242044  17.672  22.633   8.079
12729CHOL   ROH42045  17.259  17.915   1.000
12729CHOL    R142046  17.345  18.008   0.902
12729CHOL    R242047  17.571  17.965   0.863
12729CHOL    R342048  17.442  18.113   0.792
12729CHOL    R442049  17.646  18.046   0.777
12729CHOL    R542050  17.527  18.205   0.694
12729CHOL    C142051  17.656  18.345   0.547
12729CHOL    C242052  17.785  18.484   0.400
12730CHOL   ROH42053  12.381  -2.843  15.129
12730CHOL    R142054  12.416  -2.990  15.183
12730CHOL    R242055  12.599  -3.108  15.099
12730CHOL    R342056  12.455  -3.154  15.243
12730CHOL    R442057  12.629  -3.236  15.146
12730CHOL    R542058  12.490  -3.301  15.297
12730CHOL    C142059  12.542  -3.521  15.378
12730CHOL    C242060  12.595  -3.741  15.458
12731CHOL   ROH42061  16.377   1.779  19.284
12731CHOL    R142062  16.453   1.685  19.389
12731CHOL    R242063  16.683   1.652  19.375
12731CHOL    R342064  16.539   1.579  19.507
12731CHOL    R442065  16.750   1.570  19.467
12731CHOL    R542066  16.615   1.485  19.612
12731CHOL    C142067  16.729   1.345  19.769
12731CHOL    C242068  16.843   1.204  19.927
12732CHOL   ROH42069  20.959   5.817  17.378
12732CHOL    R142070  21.086   5.773  17.465
12732CHOL    R242071  21.261   5.653  17.369
12732CHOL    R342072  21.229   5.723  17.563
12732CHOL    R442073  21.372   5.614  17.445
12732CHOL    R542074  21.356   5.679  17.650
12732CHOL    C142075  21.546   5.613  17.781
12732CHOL    C242076  21.736   5.547  17.911
12733CHOL   ROH42077  17.699  18.940  17.355
12733CHOL    R142078  17.790  19.048  17.431
12733CHOL    R242079  17.856  19.245  17.325
12733CHOL    R342080  17.891  19.170  17.516
12733CHOL    R442081  17.935  19.339  17.391
12733CHOL    R542082  17.982  19.278  17.592
12733CHOL    C142083  18.118  19.440  17.706
12733CHOL    C242084  18.254  19.602  17.820
12734CHOL   ROH42085   3.532  21.978  13.493
12734CHOL    R142086   3.460  22.114  13.535
12734CHOL    R242087   3.548  22.250  13.703
12734CHOL    R342088   3.378  22.268  13.583
12734CHOL    R442089   3.485  22.370  13.740
12734CHOL    R542090   3.306  22.404  13.625
12734CHOL    C142091   3.197  22.608  13.688
12734CHOL    C242092   3.088  22.813  13.752
12735CHOL   ROH42093  19.382  16.630  17.852
12735CHOL    R142094  19.488  16.705  17.946
12735CHOL    R242095  19.713  16.645  17.943
12735CHOL    R342096  19.607  16.789  18.051
12735CHOL    R442097  19.806  16.710  18.025
12735CHOL    R542098  19.713  16.864  18.144
12735CHOL    C142099  19.873  16.976  18.285
12735CHOL    C242100  20.032  17.088  18.425
12736CHOL   ROH42101  -2.339   4.415  14.059
12736CHOL    R142102  -2.478   4.350  14.103
12736CHOL    R242103  -2.572   4.399  14.311
12736CHOL    R342104  -2.635   4.277  14.154
12736CHOL    R442105  -2.694   4.342  14.350
12736CHOL    R542106  -2.775   4.212  14.198
12736CHOL    C142107  -2.984   4.115  14.265
12736CHOL    C242108  -3.193   4.018  14.331
12737CHOL   ROH42109   6.751  22.306  15.952
12737CHOL    R142110   6.714  22.447  16.017
12737CHOL    R242111   6.836  22.639  15.965
12737CHOL    R342112   6.672  22.607  16.091
12737CHOL    R442113   6.804  22.763  16.022
12737CHOL    R542114   6.636  22.748  16.156
12737CHOL    C142115   6.580  22.960  16.254
12737CHOL    C242116   6.525  23.172  16.352
12738CHOL   ROH42117  16.154  -1.444   4.818
12738CHOL    R142118  16.224  -1.576   4.761
12738CHOL    R242119  16.452  -1.581   4.714
12738CHOL    R342120  16.302  -1.725   4.696
12738CHOL    R442121  16.513  -1.696   4.664
12738CHOL    R542122  16.372  -1.857   4.639
12738CHOL    C142123  16.477  -2.055   4.553
12738CHOL    C242124  16.581  -2.253   4.467
12739CHOL   ROH42125  -3.449   5.585   9.669
12739CHOL    R142126  -3.600   5.533   9.664
12739CHOL    R242127  -3.656   5.317   9.732
12739CHOL    R342128  -3.770   5.475   9.657
12739CHOL    R442129  -3.788   5.272   9.727
12739CHOL    R542130  -3.922   5.423   9.652
12739CHOL    C142131  -4.148   5.345   9.644
12739CHOL    C242132  -4.375   5.267   9.636
12740CHOL   ROH42133  -1.818  10.808   2.112
12740CHOL    R142134  -1.949  10.813   2.021
12740CHOL    R242135  -2.079  10.622   1.987
12740CHOL    R342136  -2.097  10.818   1.918
12740CHOL    R442137  -2.194  10.626   1.907
12740CHOL    R542138  -2.228  10.822   1.827
12740CHOL    C142139  -2.426  10.829   1.690
12740CHOL    C242140  -2.623  10.836   1.553
12741CHOL   ROH42141  -1.540   6.835   2.305
12741CHOL    R142142  -1.670   6.806   2.217
12741CHOL    R242143  -1.754   6.590   2.193
12741CHOL    R342144  -1.817   6.774   2.118
12741CHOL    R442145  -1.868   6.564   2.116
12741CHOL    R542146  -1.947   6.745   2.030
12741CHOL    C142147  -2.143   6.702   1.897
12741CHOL    C242148  -2.339   6.659   1.765
12742CHOL   ROH42149  -1.493   9.501   1.695
12742CHOL    R142150  -1.618   9.493   1.596
12742CHOL    R242151  -1.723   9.290   1.550
12742CHOL    R342152  -1.759   9.485   1.484
12742CHOL    R442153  -1.832   9.283   1.463
12742CHOL    R542154  -1.885   9.477   1.385
12742CHOL    C142155  -2.072   9.466   1.236
12742CHOL    C242156  -2.260   9.455   1.087
12743CHOL   ROH42157   9.620   9.413  23.987
12743CHOL    R142158   9.612   9.405  24.147
12743CHOL    R242159   9.720   9.563  24.280
12743CHOL    R342160   9.602   9.397  24.326
12743CHOL    R442161   9.712   9.556  24.420
12743CHOL    R542162   9.593   9.389  24.486
12743CHOL    C142163   9.581   9.377  24.725
12743CHOL    C242164   9.568   9.366  24.964
12744CHOL   ROH42165  20.055  19.415   7.676
12744CHOL    R142166  20.176  19.516   7.646
12744CHOL    R242167  20.187  19.634   7.445
12744CHOL    R342168  20.312  19.629   7.612
12744CHOL    R442169  20.292  19.722   7.419
12744CHOL    R542170  20.433  19.729   7.582
12744CHOL    C142171  20.614  19.880   7.538
12744CHOL    C242172  20.795  20.031   7.493
12745CHOL   ROH42173   5.946  13.033  23.021
12745CHOL    R142174   5.907  13.056  23.174
12745CHOL    R242175   5.891  12.877  23.323
12745CHOL    R342176   5.863  13.082  23.347
12745CHOL    R442177   5.857  12.897  23.457
12745CHOL    R542178   5.825  13.105  23.500
12745CHOL    C142179   5.766  13.140  23.731
12745CHOL    C242180   5.708  13.174  23.961
12746CHOL   ROH42181  13.503  -2.250   4.021
12746CHOL    R142182  13.550  -2.388   3.955
12746CHOL    R242183  13.747  -2.401   3.831
12746CHOL    R342184  13.602  -2.543   3.881
12746CHOL    R442185  13.788  -2.522   3.773
12746CHOL    R542186  13.649  -2.682   3.814
12746CHOL    C142187  13.719  -2.889   3.715
12746CHOL    C242188  13.789  -3.096   3.616
12747CHOL   ROH42189  -3.392   6.126  12.311
12747CHOL    R142190  -3.543   6.082  12.338
12747CHOL    R242191  -3.630   6.074  12.554
12747CHOL    R342192  -3.714   6.031  12.368
12747CHOL    R442193  -3.762   6.035  12.578
12747CHOL    R542194  -3.865   5.987  12.394
12747CHOL    C142195  -4.092   5.920  12.435
12747CHOL    C242196  -4.319   5.854  12.475
12748CHOL   ROH42197  18.612   1.020   3.536
12748CHOL    R142198  18.711   0.920   3.461
12748CHOL    R242199  18.941   0.924   3.503
12748CHOL    R342200  18.823   0.807   3.376
12748CHOL    R442201  19.028   0.836   3.437
12748CHOL    R542202  18.923   0.707   3.301
12748CHOL    C142203  19.072   0.556   3.188
12748CHOL    C242204  19.221   0.406   3.075
12749CHOL   ROH42205  11.438   6.897  -3.682
12749CHOL    R142206  11.450   6.857  -3.836
12749CHOL    R242207  11.481   7.020  -4.001
12749CHOL    R342208  11.464   6.812  -4.010
12749CHOL    R442209  11.492   6.984  -4.136
12749CHOL    R542210  11.476   6.772  -4.164
12749CHOL    C142211  11.494   6.711  -4.396
12749CHOL    C242212  11.512   6.651  -4.628
12750CHOL   ROH42213  -2.454   6.805  16.099
12750CHOL    R142214  -2.596   6.775  16.167
12750CHOL    R242215  -2.632   6.578  16.287
12750CHOL    R342216  -2.755   6.741  16.243
12750CHOL    R442217  -2.756   6.552  16.346
12750CHOL    R542218  -2.897   6.710  16.311
12750CHOL    C142219  -3.110   6.665  16.412
12750CHOL    C242220  -3.322   6.620  16.514
12751CHOL   ROH42221  14.402  -1.533  16.611
12751CHOL    R142222  14.452  -1.665  16.687
12751CHOL    R242223  14.680  -1.705  16.719
12751CHOL    R342224  14.509  -1.813  16.772
12751CHOL    R442225  14.724  -1.820  16.785
12751CHOL    R542226  14.560  -1.944  16.848
12751CHOL    C142227  14.635  -2.142  16.961
12751CHOL    C242228  14.711  -2.340  17.075
12752CHOL   ROH42229  -3.165  10.175  15.185
12752CHOL    R142230  -3.314  10.174  15.244
12752CHOL    R242231  -3.384  10.335  15.397
12752CHOL    R342232  -3.481  10.172  15.310
12752CHOL    R442233  -3.514  10.334  15.449
12752CHOL    R542234  -3.630  10.171  15.369
12752CHOL    C142235  -3.853  10.169  15.457
12752CHOL    C242236  -4.076  10.167  15.546
12753CHOL   ROH42237   2.680  18.755  18.287
12753CHOL    R142238   2.599  18.852  18.384
12753CHOL    R242239   2.639  18.854  18.614
12753CHOL    R342240   2.507  18.962  18.494
12753CHOL    R442241   2.568  18.940  18.699
12753CHOL    R542242   2.426  19.060  18.591
12753CHOL    C142243   2.303  19.206  18.737
12753CHOL    C242244   2.181  19.352  18.883
12754CHOL   ROH42245  -2.519   4.710   5.932
12754CHOL    R142246  -2.660   4.644   5.895
12754CHOL    R242247  -2.727   4.442   5.990
12754CHOL    R342248  -2.819   4.571   5.853
12754CHOL    R442249  -2.850   4.385   5.958
12754CHOL    R542250  -2.960   4.505   5.817
12754CHOL    C142251  -3.172   4.407   5.761
12754CHOL    C242252  -3.383   4.308   5.706
12755CHOL   ROH42253  21.824   8.064  16.947
12755CHOL    R142254  21.959   8.040  17.030
12755CHOL    R242255  22.147   7.948  16.928
12755CHOL    R342256  22.110   8.012  17.123
12755CHOL    R442257  22.265   7.927  17.001
12755CHOL    R542258  22.245   7.988  17.206
12755CHOL    C142259  22.447   7.952  17.330
12755CHOL    C242260  22.649   7.915  17.455
12756CHOL   ROH42261   3.575  19.802  17.833
12756CHOL    R142262   3.507  19.914  17.925
12756CHOL    R242263   3.480  19.882  18.154
12756CHOL    R342264   3.430  20.040  18.027
12756CHOL    R442265   3.420  19.980  18.234
12756CHOL    R542266   3.362  20.152  18.119
12756CHOL    C142267   3.259  20.320  18.256
12756CHOL    C242268   3.157  20.488  18.394
12757CHOL   ROH42269  23.235  11.924  13.637
12757CHOL    R142270  23.387  11.948  13.681
12757CHOL    R242271  23.519  12.108  13.574
12757CHOL    R342272  23.558  11.975  13.730
12757CHOL    R442273  23.652  12.128  13.612
12757CHOL    R542274  23.711  11.999  13.774
12757CHOL    C142275  23.939  12.034  13.839
12757CHOL    C242276  24.167  12.070  13.905
12758CHOL   ROH42277  18.259  21.195  11.273
12758CHOL    R142278  18.353  21.323  11.286
12758CHOL    R242279  18.538  21.351  11.147
12758CHOL    R342280  18.460  21.468  11.301
12758CHOL    R442281  18.621  21.464  11.158
12758CHOL    R542282  18.554  21.596  11.314
12758CHOL    C142283  18.696  21.789  11.334
12758CHOL    C242284  18.837  21.982  11.353
12759CHOL   ROH42285  -3.245  14.442  12.480
12759CHOL    R142286  -3.394  14.494  12.508
12759CHOL    R242287  -3.434  14.662  12.665
12759CHOL    R342288  -3.561  14.554  12.539
12759CHOL    R442289  -3.564  14.708  12.689
12759CHOL    R542290  -3.709  14.606  12.567
12759CHOL    C142291  -3.932  14.685  12.609
12759CHOL    C242292  -4.155  14.763  12.651
12760CHOL   ROH42293   8.860   6.745  23.541
12760CHOL    R142294   8.845   6.702  23.694
12760CHOL    R242295   9.021   6.599  23.807
12760CHOL    R342296   8.829   6.654  23.867
12760CHOL    R442297   9.008   6.561  23.942
12760CHOL    R542298   8.814   6.611  24.021
12760CHOL    C142299   8.792   6.547  24.251
12760CHOL    C242300   8.770   6.482  24.481
12761CHOL   ROH42301  15.569  22.737  10.669
12761CHOL    R142302  15.638  22.881  10.675
12761CHOL    R242303  15.860  22.905  10.742
12761CHOL    R342304  15.716  23.043  10.683
12761CHOL    R442305  15.921  23.031  10.748
12761CHOL    R542306  15.785  23.187  10.689
12761CHOL    C142307  15.889  23.404  10.699
12761CHOL    C242308  15.992  23.620  10.708
12762CHOL   ROH42309  -2.498   6.785   3.992
12762CHOL    R142310  -2.640   6.756   3.925
12762CHOL    R242311  -2.835   6.852   4.010
12762CHOL    R342312  -2.800   6.723   3.849
12762CHOL    R442313  -2.960   6.826   3.951
12762CHOL    R542314  -2.942   6.694   3.781
12762CHOL    C142315  -3.156   6.650   3.680
12762CHOL    C242316  -3.369   6.607   3.579
12763CHOL   ROH42317   2.553  13.391  -1.528
12763CHOL    R142318   2.468  13.427  -1.659
12763CHOL    R242319   2.246  13.495  -1.643
12763CHOL    R342320   2.373  13.467  -1.806
12763CHOL    R442321   2.171  13.526  -1.757
12763CHOL    R542322   2.288  13.503  -1.937
12763CHOL    C142323   2.161  13.557  -2.133
12763CHOL    C242324   2.034  13.611  -2.330
12764CHOL   ROH42325  10.910  -1.828  17.489
12764CHOL    R142326  10.923  -1.959  17.580
12764CHOL    R242327  11.091  -2.116  17.541
12764CHOL    R342328  10.938  -2.106  17.683
12764CHOL    R442329  11.103  -2.230  17.621
12764CHOL    R542330  10.951  -2.237  17.774
12764CHOL    C142331  10.971  -2.433  17.911
12764CHOL    C242332  10.990  -2.630  18.048
12765CHOL   ROH42333  15.632   1.799   0.028
12765CHOL    R142334  15.696   1.703  -0.083
12765CHOL    R242335  15.663   1.744  -0.310
12765CHOL    R342336  15.769   1.596  -0.208
12765CHOL    R442337  15.719   1.660  -0.407
12765CHOL    R542338  15.833   1.501  -0.319
12765CHOL    C142339  15.930   1.357  -0.486
12765CHOL    C242340  16.027   1.214  -0.652
12766CHOL   ROH42341  22.582  15.890   9.938
12766CHOL    R142342  22.727  15.957   9.934
12766CHOL    R242343  22.808  16.056   9.739
12766CHOL    R342344  22.891  16.031   9.928
12766CHOL    R442345  22.935  16.114   9.735
12766CHOL    R542346  23.036  16.098   9.924
12766CHOL    C142347  23.255  16.198   9.917
12766CHOL    C242348  23.473  16.298   9.911
12767CHOL   ROH42349   5.379  13.736  -2.872
12767CHOL    R142350   5.326  13.780  -3.016
12767CHOL    R242351   5.160  13.942  -3.039
12767CHOL    R342352   5.266  13.829  -3.179
12767CHOL    R442353   5.113  13.980  -3.165
12767CHOL    R542354   5.213  13.873  -3.323
12767CHOL    C142355   5.133  13.939  -3.539
12767CHOL    C242356   5.054  14.005  -3.756
12768CHOL   ROH42357   7.399  -3.281  13.948
12768CHOL    R142358   7.370  -3.431  13.994
12768CHOL    R242359   7.539  -3.593  13.989
12768CHOL    R342360   7.338  -3.601  14.046
12768CHOL    R442361   7.514  -3.724  14.029
12768CHOL    R542362   7.309  -3.751  14.093
12768CHOL    C142363   7.267  -3.977  14.162
12768CHOL    C242364   7.224  -4.202  14.231
12769CHOL   ROH42365  14.222  11.312  -3.378
12769CHOL    R142366  14.272  11.327  -3.529
12769CHOL    R242367  14.187  11.189  -3.697
12769CHOL    R342368  14.328  11.344  -3.700
12769CHOL    R442369  14.231  11.202  -3.830
12769CHOL    R542370  14.378  11.359  -3.851
12769CHOL    C142371  14.452  11.381  -4.078
12769CHOL    C242372  14.527  11.403  -4.305
12770CHOL   ROH42373   1.382  10.755  21.106
12770CHOL    R142374   1.285  10.768  21.232
12770CHOL    R242375   1.362  10.726  21.448
12770CHOL    R342376   1.175  10.784  21.375
12770CHOL    R442377   1.277  10.737  21.559
12770CHOL    R542378   1.078  10.797  21.501
12770CHOL    C142379   0.932  10.817  21.691
12770CHOL    C242380   0.786  10.837  21.880
12771CHOL   ROH42381  20.054  18.195  14.866
12771CHOL    R142382  20.165  18.295  14.922
12771CHOL    R242383  20.197  18.505  14.827
12771CHOL    R342384  20.290  18.408  14.986
12771CHOL    R442385  20.294  18.593  14.876
12771CHOL    R542386  20.401  18.508  15.042
12771CHOL    C142387  20.568  18.658  15.127
12771CHOL    C242388  20.735  18.808  15.212
12772CHOL   ROH42389  19.624  10.066  -0.151
12772CHOL    R142390  19.738  10.068  -0.263
12772CHOL    R242391  19.758  10.247  -0.411
12772CHOL    R342392  19.867  10.070  -0.389
12772CHOL    R442393  19.858  10.249  -0.509
12772CHOL    R542394  19.982  10.073  -0.500
12772CHOL    C142395  20.153  10.076  -0.668
12772CHOL    C242396  20.325  10.079  -0.836
12773CHOL   ROH42397  14.822  15.567  21.834
12773CHOL    R142398  14.875  15.633  21.970
12773CHOL    R242399  14.981  15.503  22.133
12773CHOL    R342400  14.935  15.707  22.123
12773CHOL    R442401  15.027  15.561  22.251
12773CHOL    R542402  14.988  15.772  22.259
12773CHOL    C142403  15.068  15.871  22.462
12773CHOL    C242404  15.147  15.970  22.666
12774CHOL   ROH42405  22.682  15.670   9.984
12774CHOL    R142406  22.829  15.734   9.980
12774CHOL    R242407  23.001  15.631   9.861
12774CHOL    R342408  22.993  15.806   9.976
12774CHOL    R442409  23.129  15.687   9.858
12774CHOL    R542410  23.140  15.870   9.972
12774CHOL    C142411  23.360  15.966   9.966
12774CHOL    C242412  23.580  16.062   9.960
12775CHOL   ROH42413  19.530  -0.019  11.902
12775CHOL    R142414  19.641  -0.132  11.925
12775CHOL    R242415  19.780  -0.200  11.750
12775CHOL    R342416  19.767  -0.258  11.950
12775CHOL    R442417  19.878  -0.298  11.770
12775CHOL    R542418  19.878  -0.371  11.973
12775CHOL    C142419  20.045  -0.540  12.007
12775CHOL    C242420  20.212  -0.709  12.041
12776CHOL   ROH42421  14.447  11.486  -3.283
12776CHOL    R142422  14.500  11.502  -3.433
12776CHOL    R242423  14.439  11.349  -3.599
12776CHOL    R342424  14.560  11.520  -3.602
12776CHOL    R442425  14.486  11.363  -3.730
12776CHOL    R542426  14.613  11.536  -3.752
12776CHOL    C142427  14.692  11.560  -3.977
12776CHOL    C242428  14.771  11.584  -4.202
12777CHOL   ROH42429  22.174  16.618   9.065
12777CHOL    R142430  22.315  16.692   9.052
12777CHOL    R242431  22.439  16.680   8.855
12777CHOL    R342432  22.474  16.776   9.037
12777CHOL    R442433  22.562  16.745   8.843
12777CHOL    R542434  22.615  16.850   9.024
12777CHOL    C142435  22.827  16.961   9.004
12777CHOL    C242436  23.038  17.073   8.985
12778CHOL   ROH42437  10.791   0.429  20.105
12778CHOL    R142438  10.809   0.317  20.218
12778CHOL    R242439  10.847   0.094  20.162
12778CHOL    R342440  10.829   0.192  20.345
12778CHOL    R442441  10.863  -0.003  20.261
12778CHOL    R542442  10.847   0.080  20.458
12778CHOL    C142443  10.873  -0.088  20.628
12778CHOL    C242444  10.900  -0.255  20.798
12779CHOL   ROH42445   1.307   9.272  21.094
12779CHOL    R142446   1.202   9.264  21.214
12779CHOL    R242447   1.265   9.317  21.432
12779CHOL    R342448   1.083   9.255  21.349
12779CHOL    R442449   1.172   9.310  21.538
12779CHOL    R542450   0.978   9.247  21.469
12779CHOL    C142451   0.820   9.235  21.650
12779CHOL    C242452   0.662   9.223  21.830
12780CHOL   ROH42453  20.010   3.737  17.400
12780CHOL    R142454  20.122   3.671  17.493
12780CHOL    R242455  20.317   3.582  17.400
12780CHOL    R342456  20.249   3.596  17.597
12780CHOL    R442457  20.415   3.524  17.481
12780CHOL    R542458  20.361   3.529  17.689
12780CHOL    C142459  20.529   3.430  17.828
12780CHOL    C242460  20.698   3.330  17.967
12781CHOL   ROH42461  -1.039   9.665   1.145
12781CHOL    R142462  -1.159   9.659   1.039
12781CHOL    R242463  -1.365   9.757   1.086
12781CHOL    R342464  -1.294   9.652   0.920
12781CHOL    R442465  -1.470   9.752   0.994
12781CHOL    R542466  -1.414   9.646   0.814
12781CHOL    C142467  -1.594   9.638   0.656
12781CHOL    C242468  -1.774   9.629   0.497
12782CHOL   ROH42469   0.282  19.338  14.229
12782CHOL    R142470   0.172  19.444  14.277
12782CHOL    R242471   0.173  19.663  14.198
12782CHOL    R342472   0.048  19.562  14.331
12782CHOL    R442473   0.076  19.755  14.240
12782CHOL    R542474  -0.062  19.668  14.379
12782CHOL    C142475  -0.228  19.826  14.452
12782CHOL    C242476  -0.393  19.985  14.524
12783CHOL   ROH42477  15.924  -0.976  16.397
12783CHOL    R142478  15.992  -1.101  16.470
12783CHOL    R242479  16.134  -1.245  16.353
12783CHOL    R342480  16.070  -1.242  16.552
12783CHOL    R442481  16.194  -1.355  16.417
12783CHOL    R542482  16.138  -1.366  16.624
12783CHOL    C142483  16.241  -1.554  16.734
12783CHOL    C242484  16.343  -1.741  16.843
12784CHOL   ROH42485  -3.488   5.826   8.982
12784CHOL    R142486  -3.639   5.775   8.970
12784CHOL    R242487  -3.712   5.586   9.085
12784CHOL    R342488  -3.809   5.718   8.955
12784CHOL    R442489  -3.845   5.542   9.074
12784CHOL    R542490  -3.961   5.668   8.943
12784CHOL    C142491  -4.187   5.591   8.924
12784CHOL    C242492  -4.414   5.515   8.906
12785CHOL   ROH42493   4.945  22.058   4.659
12785CHOL    R142494   4.882  22.191   4.597
12785CHOL    R242495   4.930  22.400   4.689
12785CHOL    R342496   4.811  22.342   4.528
12785CHOL    R442497   4.875  22.517   4.635
12785CHOL    R542498   4.749  22.475   4.466
12785CHOL    C142499   4.654  22.675   4.373
12785CHOL    C242500   4.560  22.875   4.281
12786CHOL   ROH42501  18.463  18.243  17.347
12786CHOL    R142502  18.561  18.341  17.426
12786CHOL    R242503  18.792  18.328  17.397
12786CHOL    R342504  18.672  18.451  17.516
12786CHOL    R442505  18.879  18.414  17.467
12786CHOL    R542506  18.771  18.550  17.595
12786CHOL    C142507  18.918  18.697  17.714
12786CHOL    C242508  19.066  18.844  17.833
12787CHOL   ROH42509   5.613  22.385   4.745
12787CHOL    R142510   5.560  22.522   4.682
12787CHOL    R242511   5.592  22.725   4.792
12787CHOL    R342512   5.500  22.676   4.611
12787CHOL    R442513   5.545  22.845   4.737
12787CHOL    R542514   5.447  22.814   4.548
12787CHOL    C142515   5.367  23.019   4.454
12787CHOL    C242516   5.287  23.225   4.360
12788CHOL   ROH42517  -1.177   8.590  18.509
12788CHOL    R142518  -1.303   8.578  18.607
12788CHOL    R242519  -1.281   8.613  18.836
12788CHOL    R342520  -1.445   8.565  18.717
12788CHOL    R442521  -1.391   8.603  18.922
12788CHOL    R542522  -1.571   8.553  18.814
12788CHOL    C142523  -1.760   8.535  18.961
12788CHOL    C242524  -1.949   8.517  19.108
12789CHOL   ROH42525  10.012  15.779  -2.857
12789CHOL    R142526  10.017  15.844  -3.003
12789CHOL    R242527  10.143  15.747  -3.174
12789CHOL    R342528  10.022  15.917  -3.167
12789CHOL    R442529  10.147  15.804  -3.301
12789CHOL    R542530  10.026  15.982  -3.313
12789CHOL    C142531  10.033  16.080  -3.533
12789CHOL    C242532  10.040  16.178  -3.752
12790CHOL   ROH42533   2.960   2.386  19.503
12790CHOL    R142534   2.877   2.303  19.612
12790CHOL    R242535   2.978   2.226  19.807
12790CHOL    R342536   2.783   2.210  19.734
12790CHOL    R442537   2.905   2.154  19.902
12790CHOL    R542538   2.700   2.127  19.843
12790CHOL    C142539   2.574   2.003  20.005
12790CHOL    C242540   2.449   1.879  20.168
12791CHOL   ROH42541  13.171  21.581   2.707
12791CHOL    R142542  13.207  21.717   2.630
12791CHOL    R242543  13.347  21.876   2.726
12791CHOL    R342544  13.247  21.869   2.543
12791CHOL    R442545  13.378  21.995   2.658
12791CHOL    R542546  13.283  22.004   2.466
12791CHOL    C142547  13.336  22.208   2.350
12791CHOL    C242548  13.390  22.411   2.234
12792CHOL   ROH42549  19.151   7.549  -0.346
12792CHOL    R142550  19.254   7.518  -0.465
12792CHOL    R242551  19.190   7.387  -0.647
12792CHOL    R342552  19.369   7.484  -0.599
12792CHOL    R442553  19.280   7.360  -0.751
12792CHOL    R542554  19.471   7.454  -0.717
12792CHOL    C142555  19.625   7.408  -0.896
12792CHOL    C242556  19.779   7.362  -1.074
12793CHOL   ROH42557   6.785  -2.202  16.262
12793CHOL    R142558   6.752  -2.341  16.334
12793CHOL    R242559   6.921  -2.493  16.386
12793CHOL    R342560   6.714  -2.497  16.415
12793CHOL    R442561   6.892  -2.615  16.449
12793CHOL    R542562   6.681  -2.636  16.487
12793CHOL    C142563   6.631  -2.845  16.595
12793CHOL    C242564   6.581  -3.054  16.703
12794CHOL   ROH42565  20.884  16.033  16.362
12794CHOL    R142566  21.008  16.105  16.434
12794CHOL    R242567  21.054  16.331  16.395
12794CHOL    R342568  21.147  16.186  16.514
12794CHOL    R442569  21.162  16.394  16.458
12794CHOL    R542570  21.270  16.259  16.586
12794CHOL    C142571  21.456  16.367  16.693
12794CHOL    C242572  21.642  16.475  16.800
12795CHOL   ROH42573  -2.773   9.598   3.833
12795CHOL    R142574  -2.918   9.593   3.767
12795CHOL    R242575  -3.086   9.457   3.855
12795CHOL    R342576  -3.082   9.587   3.692
12795CHOL    R442577  -3.213   9.452   3.797
12795CHOL    R542578  -3.227   9.581   3.626
12795CHOL    C142579  -3.446   9.574   3.526
12795CHOL    C242580  -3.664   9.566   3.426
12796CHOL   ROH42581   6.484  -1.906   3.258
12796CHOL    R142582   6.449  -2.043   3.183
12796CHOL    R242583   6.619  -2.179   3.097
12796CHOL    R342584   6.411  -2.197   3.099
12796CHOL    R442585   6.588  -2.299   3.032
12796CHOL    R542586   6.376  -2.334   3.024
12796CHOL    C142587   6.324  -2.540   2.912
12796CHOL    C242588   6.272  -2.746   2.799
12797CHOL   ROH42589   9.958  24.000   9.246
12797CHOL    R142590   9.959  24.160   9.239
12797CHOL    R242591  10.125  24.274   9.122
12797CHOL    R342592   9.959  24.340   9.231
12797CHOL    R442593  10.125  24.414   9.116
12797CHOL    R542594   9.960  24.499   9.224
12797CHOL    C142595   9.961  24.739   9.213
12797CHOL    C242596   9.962  24.979   9.203
12798CHOL   ROH42597  15.286  21.423   3.846
12798CHOL    R142598  15.348  21.553   3.776
12798CHOL    R242599  15.526  21.668   3.872
12798CHOL    R342600  15.418  21.699   3.697
12798CHOL    R442601  15.580  21.782   3.811
12798CHOL    R542602  15.479  21.829   3.627
12798CHOL    C142603  15.572  22.023   3.521
12798CHOL    C242604  15.665  22.218   3.416
12799CHOL   ROH42605  15.307   1.155  19.402
12799CHOL    R142606  15.367   1.053  19.510
12799CHOL    R242607  15.412   0.832  19.454
12799CHOL    R342608  15.434   0.939  19.632
12799CHOL    R442609  15.464   0.742  19.548
12799CHOL    R542610  15.494   0.837  19.740
12799CHOL    C142611  15.583   0.684  19.902
12799CHOL    C242612  15.673   0.532  20.064
12800CHOL   ROH42613   3.479  14.831  21.442
12800CHOL    R142614   3.399  14.886  21.569
12800CHOL    R242615   3.500  15.031  21.721
12800CHOL    R342616   3.309  14.947  21.712
12800CHOL    R442617   3.429  15.079  21.832
12800CHOL    R542618   3.228  15.001  21.840
12800CHOL    C142619   3.108  15.083  22.030
12800CHOL    C242620   2.988  15.165  22.221
12801CHOL   ROH42621  18.676  14.567  -0.030
12801CHOL    R142622  18.774  14.619  -0.145
12801CHOL    R242623  18.812  14.491  -0.336
12801CHOL    R342624  18.884  14.677  -0.275
12801CHOL    R442625  18.898  14.536  -0.437
12801CHOL    R542626  18.982  14.728  -0.390
12801CHOL    C142627  19.130  14.806  -0.564
12801CHOL    C242628  19.277  14.884  -0.737
12802CHOL   ROH42629  14.903  -2.039  15.164
12802CHOL    R142630  14.959  -2.178  15.222
12802CHOL    R242631  15.166  -2.189  15.327
12802CHOL    R342632  15.021  -2.333  15.286
12802CHOL    R442633  15.215  -2.310  15.378
12802CHOL    R542634  15.077  -2.472  15.344
12802CHOL    C142635  15.160  -2.680  15.430
12802CHOL    C242636  15.243  -2.888  15.517
12803CHOL   ROH42637  11.019  23.144  14.777
12803CHOL    R142638  11.035  23.294  14.829
12803CHOL    R242639  11.245  23.394  14.847
12803CHOL    R342640  11.053  23.463  14.889
12803CHOL    R442641  11.259  23.525  14.893
12803CHOL    R542642  11.069  23.614  14.941
12803CHOL    C142643  11.092  23.839  15.020
12803CHOL    C242644  11.116  24.064  15.098
12804CHOL   ROH42645  16.526  13.813  -1.863
12804CHOL    R142646  16.605  13.858  -1.995
12804CHOL    R242647  16.495  13.883  -2.199
12804CHOL    R342648  16.694  13.909  -2.142
12804CHOL    R442649  16.564  13.922  -2.314
12804CHOL    R542650  16.773  13.955  -2.274
12804CHOL    C142651  16.892  14.022  -2.471
12804CHOL    C242652  17.010  14.090  -2.669
12805CHOL   ROH42653   0.033   8.907  19.917
12805CHOL    R142654  -0.080   8.898  20.030
12805CHOL    R242655  -0.031   8.941  20.254
12805CHOL    R342656  -0.208   8.888  20.156
12805CHOL    R442657  -0.130   8.933  20.352
12805CHOL    R542658  -0.321   8.879  20.269
12805CHOL    C142659  -0.491   8.866  20.438
12805CHOL    C242660  -0.661   8.852  20.607
12806CHOL   ROH42661  11.665   9.933  23.890
12806CHOL    R142662  11.690   9.931  24.048
12806CHOL    R242663  11.742  10.127  24.164
12806CHOL    R342664  11.719   9.929  24.226
12806CHOL    R442665  11.764  10.125  24.302
12806CHOL    R542666  11.744   9.926  24.384
12806CHOL    C142667  11.782   9.923  24.620
12806CHOL    C242668  11.820   9.920  24.857
12807CHOL   ROH42669   2.461  20.875   5.313
12807CHOL    R142670   2.376  21.000   5.260
12807CHOL    R242671   2.478  21.205   5.216
12807CHOL    R342672   2.280  21.140   5.201
12807CHOL    R442673   2.404  21.314   5.170
12807CHOL    R542674   2.195  21.265   5.148
12807CHOL    C142675   2.067  21.452   5.070
12807CHOL    C242676   1.940  21.639   4.991
12808CHOL   ROH42677   6.023  23.391  11.930
12808CHOL    R142678   5.976  23.542  11.955
12808CHOL    R242679   6.052  23.662  12.140
12808CHOL    R342680   5.924  23.712  11.983
12808CHOL    R442681   6.011  23.794  12.162
12808CHOL    R542682   5.877  23.863  12.008
12808CHOL    C142683   5.807  24.090  12.045
12808CHOL    C242684   5.737  24.316  12.082
12809CHOL   ROH42685   2.752  -0.293  16.390
12809CHOL    R142686   2.672  -0.410  16.464
12809CHOL    R242687   2.647  -0.409  16.696
12809CHOL    R342688   2.582  -0.541  16.548
12809CHOL    R442689   2.576  -0.511  16.761
12809CHOL    R542690   2.502  -0.658  16.623
12809CHOL    C142691   2.381  -0.833  16.734
12809CHOL    C242692   2.261  -1.008  16.846
12810CHOL   ROH42693  -2.335  11.517  16.762
12810CHOL    R142694  -2.470  11.533  16.846
12810CHOL    R242695  -2.559  11.743  16.893
12810CHOL    R342696  -2.623  11.550  16.940
12810CHOL    R442697  -2.678  11.757  16.966
12810CHOL    R542698  -2.758  11.565  17.024
12810CHOL    C142699  -2.961  11.589  17.150
12810CHOL    C242700  -3.164  11.612  17.276
12811CHOL   ROH42701  23.711  11.836   8.537
12811CHOL    R142702  23.870  11.850   8.525
12811CHOL    R242703  24.001  11.673   8.447
12811CHOL    R342704  24.049  11.866   8.513
12811CHOL    R442705  24.140  11.686   8.437
12811CHOL    R542706  24.208  11.880   8.501
12811CHOL    C142707  24.446  11.901   8.484
12811CHOL    C242708  24.684  11.922   8.466
12812CHOL   ROH42709  13.765  -3.207  12.793
12812CHOL    R142710  13.811  -3.356  12.827
12812CHOL    R242711  13.894  -3.497  12.661
12812CHOL    R342712  13.862  -3.525  12.865
12812CHOL    R442713  13.935  -3.628  12.691
12812CHOL    R542714  13.908  -3.674  12.900
12812CHOL    C142715  13.977  -3.898  12.951
12812CHOL    C242716  14.045  -4.122  13.002
12813CHOL   ROH42717  19.535  17.618  16.670
12813CHOL    R142718  19.644  17.711  16.742
12813CHOL    R242719  19.872  17.678  16.707
12813CHOL    R342720  19.766  17.815  16.823
12813CHOL    R442721  19.967  17.759  16.769
12813CHOL    R542722  19.874  17.908  16.895
12813CHOL    C142723  20.037  18.047  17.002
12813CHOL    C242724  20.200  18.186  17.110
12814CHOL   ROH42725   3.293  19.508   1.957
12814CHOL    R142726   3.217  19.621   1.873
12814CHOL    R242727   3.249  19.847   1.919
12814CHOL    R342728   3.131  19.748   1.778
12814CHOL    R442729   3.182  19.946   1.845
12814CHOL    R542730   3.055  19.861   1.694
12814CHOL    C142731   2.941  20.030   1.568
12814CHOL    C242732   2.827  20.199   1.442
12815CHOL   ROH42733  -2.014  10.371   2.390
12815CHOL    R142734  -2.148  10.372   2.303
12815CHOL    R242735  -2.270  10.176   2.267
12815CHOL    R342736  -2.300  10.373   2.206
12815CHOL    R442737  -2.387  10.177   2.191
12815CHOL    R542738  -2.434  10.375   2.119
12815CHOL    C142739  -2.636  10.376   1.989
12815CHOL    C242740  -2.837  10.378   1.859
12816CHOL   ROH42741   6.481   9.410  -3.692
12816CHOL    R142742   6.445   9.403  -3.848
12816CHOL    R242743   6.277   9.262  -3.926
12816CHOL    R342744   6.404   9.396  -4.023
12816CHOL    R442745   6.245   9.256  -4.062
12816CHOL    R542746   6.367   9.390  -4.178
12816CHOL    C142747   6.313   9.380  -4.412
12816CHOL    C242748   6.259   9.370  -4.646
12817CHOL   ROH42749   5.473  -2.904  13.467
12817CHOL    R142750   5.422  -3.051  13.506
12817CHOL    R242751   5.571  -3.213  13.581
12817CHOL    R342752   5.365  -3.216  13.549
12817CHOL    R442753   5.527  -3.342  13.615
12817CHOL    R542754   5.315  -3.363  13.587
12817CHOL    C142755   5.238  -3.583  13.645
12817CHOL    C242756   5.162  -3.803  13.703
12818CHOL   ROH42757  14.890  22.912   7.984
12818CHOL    R142758  14.951  23.058   7.963
12818CHOL    R242759  15.141  23.092   7.832
12818CHOL    R342760  15.020  23.223   7.939
12818CHOL    R442761  15.195  23.220   7.814
12818CHOL    R542762  15.081  23.370   7.919
12818CHOL    C142763  15.172  23.589   7.887
12818CHOL    C242764  15.263  23.809   7.856
12819CHOL   ROH42765  18.318  14.872  19.867
12819CHOL    R142766  18.414  14.924  19.984
12819CHOL    R242767  18.633  14.992  19.939
12819CHOL    R342768  18.522  14.983  20.116
12819CHOL    R442769  18.717  15.037  20.041
12819CHOL    R542770  18.618  15.035  20.232
12819CHOL    C142771  18.762  15.113  20.408
12819CHOL    C242772  18.906  15.191  20.583
12820CHOL   ROH42773  16.670   0.509   2.082
12820CHOL    R142774  16.747   0.400   1.994
12820CHOL    R242775  16.920   0.462   1.850
12820CHOL    R342776  16.833   0.277   1.894
12820CHOL    R442777  16.987   0.366   1.772
12820CHOL    R542778  16.910   0.168   1.806
12820CHOL    C142779  17.024   0.004   1.673
12820CHOL    C242780  17.139  -0.159   1.540
12821CHOL   ROH42781   0.959   8.979  -0.838
12821CHOL    R142782   0.857   8.972  -0.961
12821CHOL    R242783   0.705   9.144  -1.001
12821CHOL    R342784   0.742   8.963  -1.099
12821CHOL    R442785   0.615   9.137  -1.109
12821CHOL    R542786   0.640   8.956  -1.223
12821CHOL    C142787   0.487   8.945  -1.407
12821CHOL    C242788   0.334   8.934  -1.592
12822CHOL   ROH42789   5.195  -1.522   3.266
12822CHOL    R142790   5.145  -1.654   3.190
12822CHOL    R242791   5.224  -1.707   2.977
12822CHOL    R342792   5.089  -1.802   3.105
12822CHOL    R442793   5.181  -1.822   2.911
12822CHOL    R542794   5.039  -1.933   3.029
12822CHOL    C142795   4.963  -2.131   2.915
12822CHOL    C242796   4.888  -2.329   2.801
12823CHOL   ROH42797  17.168  21.851  11.824
12823CHOL    R142798  17.248  21.989  11.837
12823CHOL    R242799  17.444  22.026  11.717
12823CHOL    R342800  17.337  22.145  11.852
12823CHOL    R442801  17.514  22.147  11.728
12823CHOL    R542802  17.417  22.283  11.864
12823CHOL    C142803  17.536  22.490  11.884
12823CHOL    C242804  17.655  22.698  11.903
12824CHOL   ROH42805  10.688  -3.820   7.131
12824CHOL    R142806  10.691  -3.977   7.103
12824CHOL    R242807  10.786  -4.125   7.256
12824CHOL    R342808  10.693  -4.155   7.071
12824CHOL    R442809  10.788  -4.263   7.231
12824CHOL    R542810  10.696  -4.312   7.042
12824CHOL    C142811  10.700  -4.548   7.000
12824CHOL    C242812  10.704  -4.784   6.958
12825CHOL   ROH42813  10.565  23.978   9.084
12825CHOL    R142814  10.572  24.138   9.076
12825CHOL    R242815  10.763  24.246   8.997
12825CHOL    R342816  10.579  24.317   9.066
12825CHOL    R442817  10.768  24.386   8.990
12825CHOL    R542818  10.585  24.477   9.058
12825CHOL    C142819  10.595  24.717   9.046
12825CHOL    C242820  10.605  24.956   9.033
12826CHOL   ROH42821   0.512   0.488  14.501
12826CHOL    R142822   0.404   0.382  14.552
12826CHOL    R242823   0.452   0.238  14.729
12826CHOL    R342824   0.282   0.262  14.610
12826CHOL    R442825   0.358   0.145  14.774
12826CHOL    R542826   0.174   0.156  14.662
12826CHOL    C142827   0.012  -0.003  14.739
12826CHOL    C242828  -0.150  -0.163  14.816
12827CHOL   ROH42829  13.500   1.612  -0.743
12827CHOL    R142830  13.539   1.515  -0.864
12827CHOL    R242831  13.723   1.560  -1.000
12827CHOL    R342832  13.582   1.406  -1.000
12827CHOL    R442833  13.757   1.475  -1.106
12827CHOL    R542834  13.621   1.309  -1.122
12827CHOL    C142835  13.679   1.164  -1.303
12827CHOL    C242836  13.737   1.018  -1.485
12828CHOL   ROH42837   2.602  21.958  11.354
12828CHOL    R142838   2.521  22.096  11.366
12828CHOL    R242839   2.632  22.301  11.356
12828CHOL    R342840   2.430  22.250  11.379
12828CHOL    R442841   2.561  22.421  11.366
12828CHOL    R542842   2.350  22.388  11.391
12828CHOL    C142843   2.228  22.594  11.409
12828CHOL    C242844   2.107  22.801  11.427
12829CHOL   ROH42845  21.794   3.884   5.596
12829CHOL    R142846  21.930   3.813   5.550
12829CHOL    R242847  22.126   3.936   5.524
12829CHOL    R342848  22.083   3.733   5.498
12829CHOL    R442849  22.245   3.874   5.484
12829CHOL    R542850  22.219   3.663   5.453
12829CHOL    C142851  22.422   3.556   5.384
12829CHOL    C242852  22.626   3.450   5.315
12830CHOL   ROH42853   1.571  19.812   4.436
12830CHOL    R142854   1.480  19.928   4.375
12830CHOL    R242855   1.573  20.131   4.308
12830CHOL    R342856   1.377  20.059   4.306
12830CHOL    R442857   1.493  20.233   4.254
12830CHOL    R542858   1.286  20.176   4.245
12830CHOL    C142859   1.148  20.350   4.154
12830CHOL    C242860   1.011  20.524   4.063
12831CHOL   ROH42861  -0.195   0.768  13.413
12831CHOL    R142862  -0.310   0.664  13.453
12831CHOL    R242863  -0.300   0.545  13.653
12831CHOL    R342864  -0.439   0.547  13.497
12831CHOL    R442865  -0.400   0.454  13.688
12831CHOL    R542866  -0.553   0.443  13.537
12831CHOL    C142867  -0.726   0.286  13.597
12831CHOL    C242868  -0.898   0.130  13.656
12832CHOL   ROH42869  12.494   0.715  20.032
12832CHOL    R142870  12.520   0.605  20.146
12832CHOL    R242871  12.721   0.599  20.263
12832CHOL    R342872  12.548   0.482  20.274
12832CHOL    R442873  12.743   0.503  20.363
12832CHOL    R542874  12.574   0.373  20.388
12832CHOL    C142875  12.612   0.208  20.558
12832CHOL    C242876  12.651   0.044  20.729
12833CHOL   ROH42877  11.341  23.561  13.150
12833CHOL    R142878  11.359  23.716  13.184
12833CHOL    R242879  11.432  23.867  13.022
12833CHOL    R342880  11.379  23.891  13.223
12833CHOL    R442881  11.448  24.003  13.052
12833CHOL    R542882  11.397  24.046  13.257
12833CHOL    C142883  11.425  24.279  13.308
12833CHOL    C242884  11.452  24.512  13.360
12834CHOL   ROH42885  -2.841   4.301  11.665
12834CHOL    R142886  -2.987   4.238  11.686
12834CHOL    R242887  -3.047   4.142  11.889
12834CHOL    R342888  -3.150   4.167  11.710
12834CHOL    R442889  -3.175   4.087  11.908
12834CHOL    R542890  -3.296   4.105  11.731
12834CHOL    C142891  -3.514   4.010  11.762
12834CHOL    C242892  -3.733   3.916  11.793
12835CHOL   ROH42893   1.262  15.328   0.149
12835CHOL    R142894   1.166  15.387   0.035
12835CHOL    R242895   1.234  15.566  -0.098
12835CHOL    R342896   1.059  15.452  -0.094
12835CHOL    R442897   1.150  15.618  -0.198
12835CHOL    R542898   0.963  15.511  -0.208
12835CHOL    C142899   0.820  15.599  -0.379
12835CHOL    C242900   0.677  15.687  -0.551
12836CHOL   ROH42901   6.799  11.742  -3.690
12836CHOL    R142902   6.765  11.759  -3.845
12836CHOL    R242903   6.833  11.949  -3.962
12836CHOL    R342904   6.727  11.779  -4.020
12836CHOL    R442905   6.803  11.964  -4.098
12836CHOL    R542906   6.693  11.796  -4.176
12836CHOL    C142907   6.642  11.822  -4.409
12836CHOL    C242908   6.591  11.848  -4.642
12837CHOL   ROH42909  -0.765  18.621  13.026
12837CHOL    R142910  -0.888  18.717  13.061
12837CHOL    R242911  -0.893  18.937  12.984
12837CHOL    R342912  -1.026  18.826  13.101
12837CHOL    R442913  -1.001  19.022  13.015
12837CHOL    R542914  -1.148  18.923  13.136
12837CHOL    C142915  -1.333  19.067  13.189
12837CHOL    C242916  -1.517  19.212  13.242
12838CHOL   ROH42917   7.791  19.513  19.973
12838CHOL    R142918   7.764  19.622  20.087
12838CHOL    R242919   7.766  19.850  20.039
12838CHOL    R342920   7.735  19.744  20.216
12838CHOL    R442921   7.742  19.945  20.139
12838CHOL    R542922   7.708  19.852  20.331
12838CHOL    C142923   7.668  20.015  20.502
12838CHOL    C242924   7.628  20.178  20.674
12839CHOL   ROH42925  14.803  14.798  -2.326
12839CHOL    R142926  14.856  14.856  -2.466
12839CHOL    R242927  14.996  14.729  -2.602
12839CHOL    R342928  14.915  14.920  -2.623
12839CHOL    R442929  15.042  14.779  -2.724
12839CHOL    R542930  14.968  14.978  -2.763
12839CHOL    C142931  15.047  15.064  -2.972
12839CHOL    C242932  15.126  15.151  -3.182
12840CHOL   ROH42933  12.053  10.661  -3.985
12840CHOL    R142934  12.079  10.672  -4.142
12840CHOL    R242935  11.937  10.796  -4.279
12840CHOL    R342936  12.108  10.684  -4.320
12840CHOL    R442937  11.959  10.805  -4.417
12840CHOL    R542938  12.134  10.695  -4.477
12840CHOL    C142939  12.174  10.711  -4.713
12840CHOL    C242940  12.213  10.728  -4.949
12841CHOL   ROH42941   6.771  11.070  23.459
12841CHOL    R142942   6.735  11.084  23.614
12841CHOL    R242943   6.748  10.900  23.757
12841CHOL    R342944   6.694  11.099  23.789
12841CHOL    R442945   6.716  10.911  23.893
12841CHOL    R542946   6.658  11.112  23.944
12841CHOL    C142947   6.604  11.133  24.177
12841CHOL    C242948   6.550  11.153  24.410
12842CHOL   ROH42949  17.332   9.918  -1.931
12842CHOL    R142950  17.415   9.918  -2.068
12842CHOL    R242951  17.306   9.925  -2.274
12842CHOL    R342952  17.508   9.917  -2.222
12842CHOL    R442953  17.378   9.925  -2.394
12842CHOL    R542954  17.590   9.917  -2.359
12842CHOL    C142955  17.715   9.917  -2.564
12842CHOL    C242956  17.839   9.916  -2.770
12843CHOL   ROH42957  11.701  20.836   1.163
12843CHOL    R142958  11.713  20.959   1.062
12843CHOL    R242959  11.922  21.041   0.997
12843CHOL    R342960  11.727  21.098   0.948
12843CHOL    R442961  11.932  21.149   0.909
12843CHOL    R542962  11.739  21.221   0.846
12843CHOL    C142963  11.757  21.406   0.695
12843CHOL    C242964  11.775  21.591   0.543
12844CHOL   ROH42965  -2.421  16.910  10.129
12844CHOL    R142966  -2.561  16.987  10.135
12844CHOL    R242967  -2.717  16.941  10.301
12844CHOL    R342968  -2.719  17.075  10.141
12844CHOL    R442969  -2.840  17.009  10.306
12844CHOL    R542970  -2.859  17.152  10.147
12844CHOL    C142971  -3.069  17.268  10.155
12844CHOL    C242972  -3.279  17.384  10.163
12845CHOL   ROH42973   0.147  16.333   1.950
12845CHOL    R142974   0.035  16.406   1.862
12845CHOL    R242975   0.029  16.638   1.844
12845CHOL    R342976  -0.091  16.488   1.763
12845CHOL    R442977  -0.069  16.702   1.767
12845CHOL    R542978  -0.203  16.561   1.675
12845CHOL    C142979  -0.371  16.670   1.543
12845CHOL    C242980  -0.539  16.780   1.411
12846CHOL   ROH42981  10.547   8.007  23.856
12846CHOL    R142982  10.552   7.983  24.014
12846CHOL    R242983  10.587   7.770  24.102
12846CHOL    R342984  10.558   7.956  24.192
12846CHOL    R442985  10.591   7.749  24.240
12846CHOL    R542986  10.564   7.933  24.350
12846CHOL    C142987  10.571   7.897  24.587
12846CHOL    C242988  10.579   7.861  24.824
12847CHOL   ROH42989  19.422  19.257  14.078
12847CHOL    R142990  19.528  19.365  14.128
12847CHOL    R242991  19.724  19.300  14.236
12847CHOL    R342992  19.648  19.488  14.184
12847CHOL    R442993  19.818  19.395  14.280
12847CHOL    R542994  19.755  19.596  14.234
12847CHOL    C142995  19.914  19.759  14.309
12847CHOL    C242996  20.074  19.921  14.384
12848CHOL   ROH42997  10.380  10.108  -4.131
12848CHOL    R142998  10.380  10.107  -4.291
12848CHOL    R242999  10.578  10.132  -4.411
12848CHOL    R343000  10.380  10.106  -4.471
12848CHOL    R443001  10.578  10.131  -4.551
12848CHOL    R543002  10.380  10.106  -4.631
12848CHOL    C143003  10.379  10.104  -4.871
12848CHOL    C243004  10.379  10.103  -5.111
12849CHOL   ROH43005  15.032  10.274  -3.109
12849CHOL    R143006  15.095  10.274  -3.256
12849CHOL    R243007  15.014  10.418  -3.421
12849CHOL    R343008  15.166  10.275  -3.421
12849CHOL    R443009  15.069  10.418  -3.550
12849CHOL    R543010  15.230  10.276  -3.568
12849CHOL    C143011  15.324  10.276  -3.789
12849CHOL    C243012  15.419  10.277  -4.010
12850CHOL   ROH43013  13.852  22.790   5.979
12850CHOL    R143014  13.896  22.936   5.931
12850CHOL    R243015  13.988  22.970   5.719
12850CHOL    R343016  13.944  23.101   5.876
12850CHOL    R443017  14.026  23.098   5.677
12850CHOL    R543018  13.988  23.247   5.828
12850CHOL    C143019  14.053  23.466   5.756
12850CHOL    C243020  14.119  23.686   5.683
12851CHOL   ROH43021   8.745   5.827  23.245
12851CHOL    R143022   8.728   5.776  23.396
12851CHOL    R243023   8.767   5.553  23.452
12851CHOL    R343024   8.709   5.719  23.565
12851CHOL    R443025   8.752   5.508  23.584
12851CHOL    R543026   8.692   5.668  23.716
12851CHOL    C143027   8.667   5.591  23.942
12851CHOL    C243028   8.642   5.514  24.168
12852CHOL   ROH43029  17.780   2.175  18.483
12852CHOL    R143030  17.869   2.085  18.580
12852CHOL    R243031  18.055   1.968  18.500
12852CHOL    R343032  17.970   1.984  18.690
12852CHOL    R443033  18.133   1.890  18.585
12852CHOL    R543034  18.060   1.894  18.787
12852CHOL    C143035  18.194   1.758  18.934
12852CHOL    C243036  18.328   1.623  19.080
12853CHOL   ROH43037  19.947  17.941   4.290
12853CHOL    R143038  20.060  18.035   4.226
12853CHOL    R243039  20.224  17.946   4.086
12853CHOL    R343040  20.187  18.140   4.155
12853CHOL    R443041  20.323  18.028   4.031
12853CHOL    R543042  20.301  18.234   4.092
12853CHOL    C143043  20.470  18.374   3.996
12853CHOL    C243044  20.640  18.514   3.901
12854CHOL   ROH43045   3.846  -2.094   5.906
12854CHOL    R143046   3.779  -2.232   5.861
12854CHOL    R243047   3.772  -2.415   6.007
12854CHOL    R343048   3.705  -2.388   5.811
12854CHOL    R443049   3.714  -2.536   5.968
12854CHOL    R543050   3.638  -2.527   5.767
12854CHOL    C143051   3.538  -2.734   5.700
12854CHOL    C243052   3.438  -2.942   5.633
12855CHOL   ROH43053  23.440  13.379   8.424
12855CHOL    R143054  23.594  13.419   8.408
12855CHOL    R243055  23.693  13.430   8.197
12855CHOL    R343056  23.767  13.465   8.389
12855CHOL    R443057  23.828  13.465   8.182
12855CHOL    R543058  23.921  13.506   8.372
12855CHOL    C143059  24.152  13.566   8.348
12855CHOL    C243060  24.383  13.627   8.323
12856CHOL   ROH43061   4.379  20.116   1.911
12856CHOL    R143062   4.318  20.234   1.823
12856CHOL    R243063   4.310  20.453   1.903
12856CHOL    R343064   4.249  20.368   1.723
12856CHOL    R443065   4.256  20.557   1.826
12856CHOL    R543066   4.188  20.486   1.634
12856CHOL    C143067   4.096  20.664   1.502
12856CHOL    C243068   4.004  20.841   1.369
12857CHOL   ROH43069   8.230   6.584  23.420
12857CHOL    R143070   8.209   6.539  23.572
12857CHOL    R243071   8.349   6.382  23.672
12857CHOL    R343072   8.184   6.488  23.743
12857CHOL    R443073   8.331   6.342  23.805
12857CHOL    R543074   8.163   6.443  23.895
12857CHOL    C143075   8.131   6.375  24.123
12857CHOL    C243076   8.099   6.308  24.351
12858CHOL   ROH43077  22.001   8.791  16.841
12858CHOL    R143078  22.137   8.773  16.923
12858CHOL    R243079  22.332   8.702  16.816
12858CHOL    R343080  22.291   8.754  17.014
12858CHOL    R443081  22.452   8.687  16.888
12858CHOL    R543082  22.428   8.736  17.096
12858CHOL    C143083  22.632   8.710  17.218
12858CHOL    C243084  22.837   8.683  17.341
12859CHOL   ROH43085  18.264  17.548  18.288
12859CHOL    R143086  18.361  17.631  18.384
12859CHOL    R243087  18.593  17.613  18.365
12859CHOL    R343088  18.470  17.725  18.492
12859CHOL    R443089  18.678  17.686  18.450
12859CHOL    R543090  18.568  17.808  18.588
12859CHOL    C143091  18.713  17.933  18.733
12859CHOL    C243092  18.859  18.058  18.877
12860CHOL   ROH43093  -2.765   3.865   9.898
12860CHOL    R143094  -2.910   3.797   9.895
12860CHOL    R243095  -2.934   3.565   9.908
12860CHOL    R343096  -3.073   3.721   9.891
12860CHOL    R443097  -3.061   3.506   9.905
12860CHOL    R543098  -3.217   3.653   9.888
12860CHOL    C143099  -3.435   3.551   9.883
12860CHOL    C243100  -3.652   3.449   9.878
12861CHOL   ROH43101  19.678  19.945   8.153
12861CHOL    R143102  19.790  20.057   8.131
12861CHOL    R243103  19.773  20.211   7.957
12861CHOL    R343104  19.916  20.183   8.106
12861CHOL    R443105  19.872  20.309   7.937
12861CHOL    R543106  20.028  20.295   8.085
12861CHOL    C143107  20.197  20.463   8.052
12861CHOL    C243108  20.365  20.631   8.019
12862CHOL   ROH43109   5.542  -1.670  16.544
12862CHOL    R143110   5.493  -1.802  16.620
12862CHOL    R243111   5.634  -1.986  16.646
12862CHOL    R343112   5.437  -1.950  16.706
12862CHOL    R443113   5.591  -2.101  16.712
12862CHOL    R543114   5.388  -2.082  16.782
12862CHOL    C143115   5.313  -2.280  16.896
12862CHOL    C243116   5.239  -2.478  17.010
12863CHOL   ROH43117  10.213  13.330  -3.706
12863CHOL    R143118  10.219  13.370  -3.861
12863CHOL    R243119  10.405  13.316  -3.991
12863CHOL    R343120  10.226  13.415  -4.035
12863CHOL    R443121  10.410  13.351  -4.127
12863CHOL    R543122  10.232  13.455  -4.190
12863CHOL    C143123  10.240  13.514  -4.422
12863CHOL    C243124  10.249  13.574  -4.655
12864CHOL   ROH43125  17.470   4.678  -0.595
12864CHOL    R143126  17.560   4.618  -0.712
12864CHOL    R243127  17.737   4.740  -0.803
12864CHOL    R343128  17.662   4.550  -0.845
12864CHOL    R443129  17.816   4.687  -0.905
12864CHOL    R543130  17.752   4.489  -0.962
12864CHOL    C143131  17.888   4.399  -1.138
12864CHOL    C243132  18.024   4.309  -1.314
12865CHOL   ROH43133  23.319   7.307   7.036
12865CHOL    R143134  23.473   7.280   7.003
12865CHOL    R243135  23.598   7.434   6.879
12865CHOL    R343136  23.647   7.250   6.966
12865CHOL    R443137  23.733   7.410   6.851
12865CHOL    R543138  23.801   7.223   6.933
12865CHOL    C143139  24.032   7.183   6.884
12865CHOL    C243140  24.264   7.143   6.835
12866CHOL   ROH43141  21.987  16.693   7.978
12866CHOL    R143142  22.125  16.770   7.954
12866CHOL    R243143  22.244  16.743   7.755
12866CHOL    R343144  22.281  16.856   7.927
12866CHOL    R443145  22.365  16.810   7.734
12866CHOL    R543146  22.419  16.933   7.903
12866CHOL    C143147  22.626  17.048   7.867
12866CHOL    C243148  22.834  17.163   7.831
12867CHOL   ROH43149  19.153  19.846  13.318
12867CHOL    R143150  19.260  19.956  13.362
12867CHOL    R243151  19.449  19.897  13.485
12867CHOL    R343152  19.380  20.081  13.412
12867CHOL    R443153  19.543  19.994  13.524
12867CHOL    R543154  19.488  20.191  13.457
12867CHOL    C143155  19.648  20.357  13.523
12867CHOL    C243156  19.809  20.522  13.589
12868CHOL   ROH43157  16.580  18.065  19.325
12868CHOL    R143158  16.659  18.153  19.433
12868CHOL    R243159  16.884  18.206  19.402
12868CHOL    R343160  16.748  18.252  19.554
12868CHOL    R443161  16.953  18.283  19.496
12868CHOL    R543162  16.827  18.340  19.661
12868CHOL    C143163  16.946  18.472  19.823
12868CHOL    C243164  17.065  18.604  19.985
12869CHOL   ROH43165  18.932  20.746  10.245
12869CHOL    R143166  19.031  20.871  10.248
12869CHOL    R243167  19.207  20.888  10.095
12869CHOL    R343168  19.143  21.012  10.251
12869CHOL    R443169  19.294  20.998  10.098
12869CHOL    R543170  19.243  21.138  10.254
12869CHOL    C143171  19.392  21.325  10.258
12869CHOL    C243172  19.541  21.513  10.263
12870CHOL   ROH43173  11.611   6.716  -3.619
12870CHOL    R143174  11.625   6.674  -3.773
12870CHOL    R243175  11.703   6.826  -3.932
12870CHOL    R343176  11.642   6.627  -3.946
12870CHOL    R443177  11.716   6.789  -4.066
12870CHOL    R543178  11.656   6.585  -4.100
12870CHOL    C143179  11.678   6.522  -4.330
12870CHOL    C243180  11.699   6.459  -4.561
12871CHOL   ROH43181   2.866  13.344  21.599
12871CHOL    R143182   2.781  13.385  21.728
12871CHOL    R243183   2.845  13.315  21.941
12871CHOL    R343184   2.685  13.430  21.873
12871CHOL    R443185   2.770  13.350  22.054
12871CHOL    R543186   2.600  13.471  22.003
12871CHOL    C143187   2.472  13.532  22.196
12871CHOL    C243188   2.344  13.593  22.390
12872CHOL   ROH43189  19.166  -0.530   8.964
12872CHOL    R143190  19.273  -0.648   8.953
12872CHOL    R243191  19.415  -0.665   8.769
12872CHOL    R343192  19.393  -0.782   8.941
12872CHOL    R443193  19.509  -0.769   8.760
12872CHOL    R543194  19.501  -0.900   8.930
12872CHOL    C143195  19.661  -1.078   8.914
12872CHOL    C243196  19.822  -1.255   8.897
12873CHOL   ROH43197   1.899  11.735  21.347
12873CHOL    R143198   1.806  11.760  21.475
12873CHOL    R243199   1.888  11.730  21.691
12873CHOL    R343200   1.701  11.788  21.618
12873CHOL    R443201   1.806  11.752  21.803
12873CHOL    R543202   1.608  11.813  21.746
12873CHOL    C143203   1.468  11.851  21.938
12873CHOL    C243204   1.329  11.889  22.129
12874CHOL   ROH43205   0.673  18.420  16.423
12874CHOL    R143206   0.568  18.515  16.497
12874CHOL    R243207   0.639  18.691  16.632
12874CHOL    R343208   0.449  18.622  16.580
12874CHOL    R443209   0.547  18.774  16.697
12874CHOL    R543210   0.344  18.717  16.654
12874CHOL    C143211   0.186  18.860  16.766
12874CHOL    C243212   0.028  19.002  16.877
12875CHOL   ROH43213  -0.600   6.024   1.374
12875CHOL    R143214  -0.718   5.981   1.275
12875CHOL    R243215  -0.910   5.876   1.355
12875CHOL    R343216  -0.851   5.934   1.163
12875CHOL    R443217  -1.013   5.838   1.268
12875CHOL    R543218  -0.969   5.891   1.064
12875CHOL    C143219  -1.146   5.827   0.915
12875CHOL    C243220  -1.323   5.763   0.766
12876CHOL   ROH43221  17.382   7.318  -1.585
12876CHOL    R143222  17.464   7.289  -1.719
12876CHOL    R243223  17.519   7.462  -1.866
12876CHOL    R343224  17.557   7.257  -1.870
12876CHOL    R443225  17.591   7.437  -1.983
12876CHOL    R543226  17.639   7.228  -2.004
12876CHOL    C143227  17.762   7.185  -2.205
12876CHOL    C243228  17.886   7.142  -2.406
12877CHOL   ROH43229  17.078  12.906  21.540
12877CHOL    R143230  17.169  12.944  21.666
12877CHOL    R243231  17.401  12.920  21.659
12877CHOL    R343232  17.271  12.987  21.808
12877CHOL    R443233  17.480  12.953  21.770
12877CHOL    R543234  17.361  13.024  21.935
12877CHOL    C143235  17.498  13.081  22.124
12877CHOL    C243236  17.634  13.138  22.313
12878CHOL   ROH43237   6.391  21.567  17.140
12878CHOL    R143238   6.352  21.699  17.222
12878CHOL    R243239   6.511  21.814  17.347
12878CHOL    R343240   6.307  21.846  17.315
12878CHOL    R443241   6.477  21.929  17.419
12878CHOL    R543242   6.268  21.978  17.397
12878CHOL    C143243   6.209  22.175  17.520
12878CHOL    C243244   6.150  22.373  17.644
12879CHOL   ROH43245  -3.023   7.700  15.133
12879CHOL    R143246  -3.171   7.677  15.190
12879CHOL    R243247  -3.207   7.548  15.381
12879CHOL    R343248  -3.337   7.651  15.255
12879CHOL    R443249  -3.336   7.528  15.431
12879CHOL    R543250  -3.484   7.628  15.312
12879CHOL    C143251  -3.706   7.593  15.398
12879CHOL    C243252  -3.928   7.559  15.484
12880CHOL   ROH43253  12.340  -3.161  14.233
12880CHOL    R143254  12.371  -3.310  14.281
12880CHOL    R243255  12.476  -3.463  14.140
12880CHOL    R343256  12.405  -3.479  14.336
12880CHOL    R443257  12.503  -3.594  14.183
12880CHOL    R543258  12.435  -3.628  14.384
12880CHOL    C143259  12.481  -3.852  14.457
12880CHOL    C243260  12.527  -4.076  14.530
12881CHOL   ROH43261   6.988   8.807  23.617
12881CHOL    R143262   6.957   8.797  23.774
12881CHOL    R243263   7.126   8.825  23.932
12881CHOL    R343264   6.921   8.785  23.950
12881CHOL    R443265   7.098   8.816  24.069
12881CHOL    R543266   6.890   8.775  24.106
12881CHOL    C143267   6.843   8.760  24.341
12881CHOL    C243268   6.796   8.744  24.576
12882CHOL   ROH43269   1.328  -0.266  14.505
12882CHOL    R143270   1.230  -0.382  14.556
12882CHOL    R243271   1.293  -0.606  14.542
12882CHOL    R343272   1.121  -0.513  14.613
12882CHOL    R443273   1.208  -0.708  14.587
12882CHOL    R543274   1.023  -0.629  14.664
12882CHOL    C143275   0.877  -0.803  14.741
12882CHOL    C243276   0.730  -0.977  14.818
12883CHOL   ROH43277  15.377  10.912  -2.941
12883CHOL    R143278  15.444  10.918  -3.086
12883CHOL    R243279  15.379  11.079  -3.242
12883CHOL    R343280  15.520  10.925  -3.249
12883CHOL    R443281  15.438  11.084  -3.369
12883CHOL    R543282  15.587  10.931  -3.394
12883CHOL    C143283  15.688  10.940  -3.612
12883CHOL    C243284  15.789  10.949  -3.830
12884CHOL   ROH43285   5.770  23.321  11.858
12884CHOL    R143286   5.720  23.471  11.882
12884CHOL    R243287   5.775  23.586  12.078
12884CHOL    R343288   5.663  23.640  11.910
12884CHOL    R443289   5.731  23.717  12.099
12884CHOL    R543290   5.613  23.789  11.934
12884CHOL    C143291   5.538  24.014  11.971
12884CHOL    C243292   5.462  24.239  12.008
12885CHOL   ROH43293  15.284   4.928  -2.005
12885CHOL    R143294  15.348   4.877  -2.143
12885CHOL    R243295  15.451   5.026  -2.289
12885CHOL    R343296  15.420   4.820  -2.297
12885CHOL    R443297  15.507   4.982  -2.410
12885CHOL    R543298  15.483   4.769  -2.435
12885CHOL    C143299  15.579   4.693  -2.641
12885CHOL    C243300  15.675   4.617  -2.848
12886CHOL   ROH43301  12.471  21.995   3.163
12886CHOL    R143302  12.501  22.134   3.090
12886CHOL    R243303  12.701  22.169   2.975
12886CHOL    R343304  12.535  22.291   3.008
12886CHOL    R443305  12.727  22.290   2.911
12886CHOL    R543306  12.565  22.430   2.935
12886CHOL    C143307  12.610  22.639   2.826
12886CHOL    C243308  12.655  22.848   2.716
12887CHOL   ROH43309  23.707  12.025   8.724
12887CHOL    R143310  23.866  12.041   8.714
12887CHOL    R243311  23.979  11.998   8.515
12887CHOL    R343312  24.045  12.059   8.703
12887CHOL    R443313  24.118  12.012   8.506
12887CHOL    R543314  24.203  12.074   8.694
12887CHOL    C143315  24.442  12.098   8.679
12887CHOL    C243316  24.680  12.122   8.664
12888CHOL   ROH43317   0.916  11.304  20.669
12888CHOL    R143318   0.816  11.323  20.792
12888CHOL    R243319   0.889  11.296  21.012
12888CHOL    R343320   0.703  11.344  20.931
12888CHOL    R443321   0.802  11.312  21.120
12888CHOL    R543322   0.603  11.363  21.054
12888CHOL    C143323   0.453  11.392  21.239
12888CHOL    C243324   0.303  11.421  21.424
12889CHOL   ROH43325   3.749   4.634  21.391
12889CHOL    R143326   3.669   4.575  21.517
12889CHOL    R243327   3.674   4.347  21.565
12889CHOL    R343328   3.580   4.509  21.658
12889CHOL    R443329   3.604   4.295  21.675
12889CHOL    R543330   3.500   4.450  21.784
12889CHOL    C143331   3.380   4.362  21.972
12889CHOL    C243332   3.261   4.273  22.160
12890CHOL   ROH43333   9.025   7.410  -3.810
12890CHOL    R143334   9.015   7.377  -3.966
12890CHOL    R243335   9.197   7.413  -4.108
12890CHOL    R343336   9.005   7.340  -4.142
12890CHOL    R443337   9.189   7.384  -4.245
12890CHOL    R543338   8.995   7.308  -4.299
12890CHOL    C143339   8.981   7.258  -4.533
12890CHOL    C243340   8.966   7.209  -4.767
12891CHOL   ROH43341  12.371  -3.101   5.291
12891CHOL    R143342  12.404  -3.249   5.239
12891CHOL    R243343  12.502  -3.283   5.030
12891CHOL    R343344  12.442  -3.414   5.180
12891CHOL    R443345  12.531  -3.412   4.984
12891CHOL    R543346  12.475  -3.562   5.128
12891CHOL    C143347  12.525  -3.783   5.049
12891CHOL    C243348  12.575  -4.005   4.971
12892CHOL   ROH43349  21.697   9.221  17.418
12892CHOL    R143350  21.832   9.207  17.503
12892CHOL    R243351  22.014   9.088  17.420
12892CHOL    R343352  21.983   9.191  17.599
12892CHOL    R443353  22.132   9.076  17.495
12892CHOL    R543354  22.118   9.176  17.685
12892CHOL    C143355  22.319   9.155  17.812
12892CHOL    C243356  22.521   9.134  17.940
12893CHOL   ROH43357  11.621  17.435  21.710
12893CHOL    R143358  11.645  17.518  21.845
12893CHOL    R243359  11.847  17.627  21.885
12893CHOL    R343360  11.671  17.610  21.997
12893CHOL    R443361  11.867  17.699  22.003
12893CHOL    R543362  11.694  17.693  22.132
12893CHOL    C143363  11.730  17.817  22.335
12893CHOL    C243364  11.765  17.941  22.537
12894CHOL   ROH43365  -2.171   5.466  15.788
12894CHOL    R143366  -2.308   5.409  15.848
12894CHOL    R243367  -2.352   5.180  15.850
12894CHOL    R343368  -2.462   5.345  15.916
12894CHOL    R443369  -2.472   5.131  15.903
12894CHOL    R543370  -2.599   5.289  15.976
12894CHOL    C143371  -2.804   5.203  16.066
12894CHOL    C243372  -3.010   5.118  16.156
12895CHOL   ROH43373  -0.498   1.237   6.323
12895CHOL    R143374  -0.618   1.139   6.284
12895CHOL    R243375  -0.744   1.031   6.448
12895CHOL    R343376  -0.753   1.029   6.239
12895CHOL    R443377  -0.849   0.946   6.413
12895CHOL    R543378  -0.873   0.930   6.200
12895CHOL    C143379  -1.054   0.783   6.141
12895CHOL    C243380  -1.234   0.636   6.082
12896CHOL   ROH43381  18.940   8.364  -0.681
12896CHOL    R143382  19.042   8.346  -0.803
12896CHOL    R243383  19.010   8.461  -1.004
12896CHOL    R343384  19.157   8.326  -0.940
12896CHOL    R443385  19.100   8.446  -1.110
12896CHOL    R543386  19.258   8.308  -1.062
12896CHOL    C143387  19.411   8.282  -1.246
12896CHOL    C243388  19.564   8.255  -1.429
12897CHOL   ROH43389  14.878  19.252   0.551
12897CHOL    R143390  14.939  19.358   0.447
12897CHOL    R243391  15.132  19.310   0.326
12897CHOL    R343392  15.007  19.477   0.331
12897CHOL    R443393  15.186  19.402   0.236
12897CHOL    R543394  15.068  19.582   0.227
12897CHOL    C143395  15.159  19.741   0.072
12897CHOL    C243396  15.250  19.900  -0.083
12898CHOL   ROH43397  16.130  -0.074  17.495
12898CHOL    R143398  16.203  -0.184  17.586
12898CHOL    R243399  16.278  -0.385  17.493
12898CHOL    R343400  16.284  -0.308  17.687
12898CHOL    R443401  16.341  -0.481  17.573
12898CHOL    R543402  16.357  -0.418  17.778
12898CHOL    C143403  16.466  -0.583  17.914
12898CHOL    C243404  16.575  -0.748  18.050
12899CHOL   ROH43405  23.183   7.742  13.895
12899CHOL    R143406  23.335   7.715  13.938
12899CHOL    R243407  23.435   7.508  13.900
12899CHOL    R343408  23.505   7.684  13.987
12899CHOL    R443409  23.567   7.484  13.938
12899CHOL    R543410  23.657   7.657  14.030
12899CHOL    C143411  23.884   7.615  14.095
12899CHOL    C243412  24.111   7.574  14.160
12900CHOL   ROH43413  19.354   9.040  -0.388
12900CHOL    R143414  19.463   9.032  -0.505
12900CHOL    R243415  19.470   9.192  -0.674
12900CHOL    R343416  19.586   9.022  -0.636
12900CHOL    R443417  19.566   9.184  -0.776
12900CHOL    R543418  19.695   9.013  -0.752
12900CHOL    C143419  19.859   9.001  -0.927
12900CHOL    C243420  20.022   8.988  -1.102
12901CHOL   ROH43421  16.196  22.431  10.406
12901CHOL    R143422  16.270  22.573  10.410
12901CHOL    R243423  16.498  22.588  10.459
12901CHOL    R343424  16.353  22.732  10.413
12901CHOL    R443425  16.562  22.712  10.462
12901CHOL    R543426  16.428  22.874  10.417
12901CHOL    C143427  16.539  23.087  10.422
12901CHOL    C243428  16.650  23.299  10.428
12902CHOL   ROH43429   6.795  13.597  23.116
12902CHOL    R143430   6.764  13.627  23.270
12902CHOL    R243431   6.868  13.505  23.439
12902CHOL    R343432   6.729  13.660  23.443
12902CHOL    R443433   6.841  13.531  23.574
12902CHOL    R543434   6.698  13.690  23.597
12902CHOL    C143435   6.651  13.735  23.829
12902CHOL    C243436   6.604  13.779  24.060
12903CHOL   ROH43437  -2.999  14.927  12.810
12903CHOL    R143438  -3.145  14.984  12.841
12903CHOL    R243439  -3.287  14.875  12.991
12903CHOL    R343440  -3.310  15.048  12.876
12903CHOL    R443441  -3.415  14.925  13.018
12903CHOL    R543442  -3.456  15.105  12.907
12903CHOL    C143443  -3.675  15.190  12.954
12903CHOL    C243444  -3.895  15.276  13.001
12904CHOL   ROH43445   2.765   8.958  -2.144
12904CHOL    R143446   2.679   8.952  -2.279
12904CHOL    R243447   2.510   8.793  -2.307
12904CHOL    R343448   2.582   8.945  -2.431
12904CHOL    R443449   2.435   8.788  -2.425
12904CHOL    R543450   2.497   8.939  -2.566
12904CHOL    C143451   2.368   8.930  -2.768
12904CHOL    C243452   2.239   8.921  -2.970
12905CHOL   ROH43453  22.986   6.782  13.845
12905CHOL    R143454  23.135   6.743  13.889
12905CHOL    R243455  23.285   6.907  13.960
12905CHOL    R343456  23.303   6.700  13.939
12905CHOL    R443457  23.416   6.873  13.999
12905CHOL    R543458  23.452   6.661  13.983
12905CHOL    C143459  23.675   6.603  14.049
12905CHOL    C243460  23.898   6.545  14.115
12906CHOL   ROH43461  14.309  19.314  19.503
12906CHOL    R143462  14.357  19.422  19.611
12906CHOL    R243463  14.572  19.512  19.603
12906CHOL    R343464  14.411  19.544  19.732
12906CHOL    R443465  14.614  19.607  19.697
12906CHOL    R543466  14.459  19.652  19.840
12906CHOL    C143467  14.530  19.814  20.001
12906CHOL    C243468  14.602  19.976  20.163
12907CHOL   ROH43469   1.175  -1.044   9.867
12907CHOL    R143470   1.076  -1.170   9.870
12907CHOL    R243471   1.126  -1.359   9.996
12907CHOL    R343472   0.965  -1.311   9.872
12907CHOL    R443473   1.039  -1.469   9.998
12907CHOL    R543474   0.865  -1.437   9.875
12907CHOL    C143475   0.717  -1.625   9.879
12907CHOL    C243476   0.568  -1.813   9.883
12908CHOL   ROH43477  17.464  11.136  -1.800
12908CHOL    R143478  17.548  11.147  -1.936
12908CHOL    R243479  17.446  11.209  -2.136
12908CHOL    R343480  17.643  11.159  -2.088
12908CHOL    R443481  17.520  11.219  -2.255
12908CHOL    R543482  17.728  11.169  -2.224
12908CHOL    C143483  17.854  11.186  -2.428
12908CHOL    C243484  17.980  11.202  -2.631
12909CHOL   ROH43485  15.477  17.948  20.107
12909CHOL    R143486  15.541  18.035  20.225
12909CHOL    R243487  15.713  18.187  20.183
12909CHOL    R343488  15.613  18.133  20.358
12909CHOL    R443489  15.769  18.263  20.286
12909CHOL    R543490  15.677  18.220  20.476
12909CHOL    C143491  15.773  18.351  20.653
12909CHOL    C243492  15.869  18.481  20.830
12910CHOL   ROH43493  -2.622  14.676   5.747
12910CHOL    R143494  -2.765  14.729   5.698
12910CHOL    R243495  -2.883  14.887   5.822
12910CHOL    R343496  -2.925  14.789   5.643
12910CHOL    R443497  -3.008  14.933   5.779
12910CHOL    R543498  -3.068  14.842   5.593
12910CHOL    C143499  -3.282  14.922   5.520
12910CHOL    C243500  -3.496  15.001   5.446
12911CHOL   ROH43501  -2.611  11.906   3.750
12911CHOL    R143502  -2.756  11.929   3.687
12911CHOL    R243503  -2.945  11.940   3.823
12911CHOL    R343504  -2.920  11.955   3.616
12911CHOL    R443505  -3.073  11.960   3.768
12911CHOL    R543506  -3.065  11.977   3.554
12911CHOL    C143507  -3.283  12.012   3.459
12911CHOL    C243508  -3.501  12.046   3.365
12912CHOL   ROH43509   5.964  23.274   7.178
12912CHOL    R143510   5.919  23.425   7.149
12912CHOL    R243511   5.836  23.560   7.319
12912CHOL    R343512   5.867  23.594   7.116
12912CHOL    R443513   5.796  23.692   7.294
12912CHOL    R543514   5.822  23.745   7.087
12912CHOL    C143515   5.754  23.970   7.043
12912CHOL    C243516   5.686  24.196   6.999
12913CHOL   ROH43517   9.814  14.100  23.339
12913CHOL    R143518   9.817  14.150  23.491
12913CHOL    R243519   9.876  14.005  23.664
12913CHOL    R343520   9.821  14.207  23.662
12913CHOL    R443521   9.879  14.049  23.797
12913CHOL    R543522   9.824  14.257  23.813
12913CHOL    C143523   9.829  14.332  24.041
12913CHOL    C243524   9.834  14.408  24.269
12914CHOL   ROH43525  16.134  22.213   7.218
12914CHOL    R143526  16.205  22.354   7.191
12914CHOL    R243527  16.418  22.365   7.098
12914CHOL    R343528  16.284  22.513   7.161
12914CHOL    R443529  16.480  22.489   7.075
12914CHOL    R543530  16.355  22.654   7.134
12914CHOL    C143531  16.461  22.865   7.094
12914CHOL    C243532  16.567  23.076   7.054
12915CHOL   ROH43533  -1.479   8.427   1.809
12915CHOL    R143534  -1.604   8.411   1.711
12915CHOL    R243535  -1.673   8.200   1.638
12915CHOL    R343536  -1.746   8.392   1.601
12915CHOL    R443537  -1.783   8.185   1.553
12915CHOL    R543538  -1.871   8.376   1.503
12915CHOL    C143539  -2.059   8.351   1.356
12915CHOL    C243540  -2.247   8.326   1.209
12916CHOL   ROH43541  13.821  10.293  -3.568
12916CHOL    R143542  13.870  10.297  -3.720
12916CHOL    R243543  13.761  10.171  -3.884
12916CHOL    R343544  13.925  10.300  -3.891
12916CHOL    R443545  13.804  10.174  -4.017
12916CHOL    R543546  13.975  10.304  -4.043
12916CHOL    C143547  14.048  10.309  -4.272
12916CHOL    C243548  14.122  10.315  -4.500
12917CHOL   ROH43549  19.923   1.321   5.279
12917CHOL    R143550  20.038   1.223   5.228
12917CHOL    R243551  20.239   1.307   5.145
12917CHOL    R343552  20.168   1.112   5.170
12917CHOL    R443553  20.340   1.221   5.100
12917CHOL    R543554  20.283   1.014   5.119
12917CHOL    C143555  20.456   0.867   5.041
12917CHOL    C243556  20.629   0.719   4.964
12918CHOL   ROH43557   3.895  10.612  -2.769
12918CHOL    R143558   3.823  10.622  -2.911
12918CHOL    R243559   3.689  10.447  -2.990
12918CHOL    R343560   3.741  10.632  -3.071
12918CHOL    R443561   3.625  10.456  -3.114
12918CHOL    R543562   3.668  10.642  -3.214
12918CHOL    C143563   3.560  10.656  -3.427
12918CHOL    C243564   3.451  10.671  -3.640
12919CHOL   ROH43565  12.296  17.627  -1.585
12919CHOL    R143566  12.323  17.713  -1.717
12919CHOL    R243567  12.523  17.829  -1.746
12919CHOL    R343568  12.354  17.809  -1.866
12919CHOL    R443569  12.547  17.904  -1.862
12919CHOL    R543570  12.381  17.894  -1.998
12919CHOL    C143571  12.422  18.023  -2.197
12919CHOL    C243572  12.463  18.151  -2.395
12920CHOL   ROH43573  23.089   5.798   7.653
12920CHOL    R143574  23.239   5.750   7.626
12920CHOL    R243575  23.330   5.758   7.411
12920CHOL    R343576  23.408   5.696   7.595
12920CHOL    R443577  23.462   5.716   7.387
12920CHOL    R543578  23.558   5.648   7.568
12920CHOL    C143579  23.783   5.576   7.526
12920CHOL    C243580  24.008   5.504   7.485
12921CHOL   ROH43581   7.156  -2.717  15.344
12921CHOL    R143582   7.127  -2.861  15.406
12921CHOL    R243583   7.280  -2.964  15.549
12921CHOL    R343584   7.094  -3.024  15.477
12921CHOL    R443585   7.255  -3.090  15.604
12921CHOL    R543586   7.065  -3.168  15.539
12921CHOL    C143587   7.021  -3.385  15.633
12921CHOL    C243588   6.978  -3.602  15.726
12922CHOL   ROH43589  23.253   7.943   6.302
12922CHOL    R143590  23.407   7.922   6.265
12922CHOL    R243591  23.471   7.778   6.093
12922CHOL    R343592  23.581   7.897   6.223
12922CHOL    R443593  23.605   7.759   6.060
12922CHOL    R543594  23.735   7.876   6.186
12922CHOL    C143595  23.966   7.844   6.131
12922CHOL    C243596  24.198   7.812   6.076
12923CHOL   ROH43597   8.720  18.968  20.656
12923CHOL    R143598   8.703  19.074  20.775
12923CHOL    R243599   8.807  19.282  20.766
12923CHOL    R343600   8.684  19.192  20.909
12923CHOL    R443601   8.792  19.375  20.870
12923CHOL    R543602   8.666  19.298  21.028
12923CHOL    C143603   8.641  19.456  21.206
12923CHOL    C243604   8.615  19.615  21.384
12924CHOL   ROH43605   9.521  23.977   8.922
12924CHOL    R143606   9.517  24.137   8.911
12924CHOL    R243607   9.635  24.248   8.744
12924CHOL    R343608   9.513  24.316   8.899
12924CHOL    R443609   9.631  24.388   8.734
12924CHOL    R543610   9.509  24.476   8.888
12924CHOL    C143611   9.503  24.715   8.872
12924CHOL    C243612   9.497  24.954   8.856
12925CHOL   ROH43613  11.944  -3.147   5.179
12925CHOL    R143614  11.970  -3.295   5.124
12925CHOL    R243615  12.051  -3.331   4.908
12925CHOL    R343616  11.999  -3.462   5.063
12925CHOL    R443617  12.074  -3.461   4.861
12925CHOL    R543618  12.025  -3.610   5.008
12925CHOL    C143619  12.064  -3.832   4.926
12925CHOL    C243620  12.103  -4.054   4.844
12926CHOL   ROH43621   7.734  14.509  -3.230
12926CHOL    R143622   7.711  14.561  -3.379
12926CHOL    R243623   7.787  14.772  -3.446
12926CHOL    R343624   7.685  14.620  -3.548
12926CHOL    R443625   7.767  14.818  -3.576
12926CHOL    R543626   7.662  14.673  -3.697
12926CHOL    C143627   7.628  14.751  -3.921
12926CHOL    C243628   7.594  14.829  -4.145
12927CHOL   ROH43629  -1.933  10.265  17.521
12927CHOL    R143630  -2.065  10.270  17.611
12927CHOL    R243631  -2.111  10.101  17.765
12927CHOL    R343632  -2.214  10.275  17.713
12927CHOL    R443633  -2.227  10.105  17.844
12927CHOL    R543634  -2.346  10.279  17.803
12927CHOL    C143635  -2.544  10.286  17.939
12927CHOL    C243636  -2.742  10.293  18.075
12928CHOL   ROH43637   9.780  -3.793   7.064
12928CHOL    R143638   9.774  -3.950   7.034
12928CHOL    R243639   9.968  -4.072   6.990
12928CHOL    R343640   9.767  -4.127   7.001
12928CHOL    R443641   9.963  -4.209   6.964
12928CHOL    R543642   9.761  -4.284   6.971
12928CHOL    C143643   9.752  -4.520   6.927
12928CHOL    C243644   9.743  -4.755   6.883
12929CHOL   ROH43645  12.336  13.606  23.243
12929CHOL    R143646  12.362  13.652  23.394
12929CHOL    R243647  12.574  13.636  23.490
12929CHOL    R343648  12.391  13.704  23.564
12929CHOL    R443649  12.596  13.676  23.622
12929CHOL    R543650  12.417  13.750  23.715
12929CHOL    C143651  12.455  13.819  23.942
12929CHOL    C243652  12.494  13.888  24.168
12930CHOL   ROH43653  14.439  22.300  14.882
12930CHOL    R143654  14.493  22.439  14.940
12930CHOL    R243655  14.704  22.455  15.038
12930CHOL    R343656  14.554  22.595  15.005
12930CHOL    R443657  14.751  22.576  15.088
12930CHOL    R543658  14.607  22.735  15.063
12930CHOL    C143659  14.688  22.943  15.151
12930CHOL    C243660  14.769  23.152  15.238
12931CHOL   ROH43661  22.800  10.907   4.536
12931CHOL    R143662  22.947  10.916   4.474
12931CHOL    R243663  23.056  10.726   4.395
12931CHOL    R343664  23.113  10.927   4.404
12931CHOL    R443665  23.185  10.734   4.341
12931CHOL    R543666  23.260  10.937   4.342
12931CHOL    C143667  23.481  10.951   4.250
12931CHOL    C243668  23.702  10.965   4.157
12932CHOL   ROH43669  22.756  14.321   6.293
12932CHOL    R143670  22.902  14.376   6.257
12932CHOL    R243671  22.932  14.531   6.085
12932CHOL    R343672  23.065  14.439   6.215
12932CHOL    R443673  23.059  14.580   6.053
12932CHOL    R543674  23.211  14.494   6.179
12932CHOL    C143675  23.429  14.577   6.124
12932CHOL    C243676  23.648  14.660   6.070
12933CHOL   ROH43677   6.955  23.636  11.935
12933CHOL    R143678   6.922  23.791  11.958
12933CHOL    R243679   6.980  23.897  12.158
12933CHOL    R343680   6.886  23.965  11.984
12933CHOL    R443681   6.951  24.033  12.178
12933CHOL    R543682   6.853  24.120  12.007
12933CHOL    C143683   6.804  24.352  12.042
12933CHOL    C243684   6.755  24.585  12.076
12934CHOL   ROH43685  21.518  17.007   6.720
12934CHOL    R143686  21.650  17.089   6.684
12934CHOL    R243687  21.798  17.012   6.520
12934CHOL    R343688  21.800  17.181   6.643
12934CHOL    R443689  21.914  17.084   6.488
12934CHOL    R543690  21.932  17.263   6.607
12934CHOL    C143691  22.131  17.386   6.552
12934CHOL    C243692  22.329  17.509   6.498
12935CHOL   ROH43693   4.542  -0.122  18.148
12935CHOL    R143694   4.482  -0.237  18.241
12935CHOL    R243695   4.441  -0.199  18.468
12935CHOL    R343696   4.415  -0.367  18.346
12935CHOL    R443697   4.389  -0.300  18.549
12935CHOL    R543698   4.356  -0.483  18.439
12935CHOL    C143699   4.266  -0.656  18.579
12935CHOL    C243700   4.176  -0.829  18.719
12936CHOL   ROH43701   5.358  -3.191  11.793
12936CHOL    R143702   5.306  -3.341  11.813
12936CHOL    R243703   5.344  -3.504  11.651
12936CHOL    R343704   5.247  -3.510  11.836
12936CHOL    R443705   5.298  -3.635  11.669
12936CHOL    R543706   5.195  -3.660  11.856
12936CHOL    C143707   5.117  -3.884  11.886
12936CHOL    C243708   5.039  -4.109  11.916
12937CHOL   ROH43709  12.629  20.606   1.057
12937CHOL    R143710  12.656  20.728   0.956
12937CHOL    R243711  12.783  20.698   0.763
12937CHOL    R343712  12.686  20.864   0.843
12937CHOL    R443713  12.807  20.804   0.675
12937CHOL    R543714  12.713  20.986   0.743
12937CHOL    C143715  12.753  21.168   0.592
12937CHOL    C243716  12.793  21.351   0.441
12938CHOL   ROH43717  15.507   0.120  18.195
12938CHOL    R143718  15.572   0.009  18.290
12938CHOL    R243719  15.626  -0.203  18.209
12938CHOL    R343720  15.645  -0.116  18.398
12938CHOL    R443721  15.683  -0.300  18.292
12938CHOL    R543722  15.710  -0.226  18.493
12938CHOL    C143723  15.807  -0.393  18.636
12938CHOL    C243724  15.905  -0.559  18.779
12939CHOL   ROH43725   7.816  15.814  22.610
12939CHOL    R143726   7.795  15.879  22.755
12939CHOL    R243727   7.962  16.008  22.853
12939CHOL    R343728   7.772  15.952  22.918
12939CHOL    R443729   7.944  16.065  22.980
12939CHOL    R543730   7.751  16.017  23.063
12939CHOL    C143731   7.720  16.114  23.280
12939CHOL    C243732   7.689  16.211  23.497
12940CHOL   ROH43733  21.834   6.658  16.406
12940CHOL    R143734  21.969   6.622  16.484
12940CHOL    R243735  22.125   6.788  16.536
12940CHOL    R343736  22.122   6.583  16.571
12940CHOL    R443737  22.244   6.757  16.604
12940CHOL    R543738  22.257   6.547  16.649
12940CHOL    C143739  22.460   6.494  16.765
12940CHOL    C243740  22.663   6.440  16.881
12941CHOL   ROH43741   0.758  12.795  20.201
12941CHOL    R143742   0.658  12.830  20.321
12941CHOL    R243743   0.722  12.799  20.543
12941CHOL    R343744   0.546  12.869  20.456
12941CHOL    R443745   0.635  12.830  20.648
12941CHOL    R543746   0.446  12.904  20.576
12941CHOL    C143747   0.296  12.956  20.756
12941CHOL    C243748   0.146  13.009  20.936
12942CHOL   ROH43749   4.046  18.528  19.463
12942CHOL    R143750   3.982  18.625  19.572
12942CHOL    R243751   4.014  18.589  19.800
12942CHOL    R343752   3.909  18.735  19.695
12942CHOL    R443753   3.958  18.674  19.896
12942CHOL    R543754   3.845  18.832  19.804
12942CHOL    C143755   3.748  18.979  19.968
12942CHOL    C243756   3.651  19.125  20.132
12943CHOL   ROH43757   7.582   8.252  23.670
12943CHOL    R143758   7.556   8.232  23.827
12943CHOL    R243759   7.734   8.223  23.977
12943CHOL    R343760   7.527   8.211  24.003
12943CHOL    R443761   7.712   8.206  24.114
12943CHOL    R543762   7.501   8.191  24.160
12943CHOL    C143763   7.463   8.162  24.394
12943CHOL    C243764   7.424   8.132  24.629
12944CHOL   ROH43765  -3.087  15.013   7.878
12944CHOL    R143766  -3.234  15.067   7.848
12944CHOL    R243767  -3.311  15.266   7.943
12944CHOL    R343768  -3.400  15.128   7.813
12944CHOL    R443769  -3.440  15.313   7.917
12944CHOL    R543770  -3.548  15.182   7.783
12944CHOL    C143771  -3.769  15.264   7.737
12944CHOL    C243772  -3.990  15.345   7.692
12945CHOL   ROH43773  17.358   8.871  -1.857
12945CHOL    R143774  17.441   8.856  -1.993
12945CHOL    R243775  17.349   8.924  -2.197
12945CHOL    R343776  17.533   8.840  -2.147
12945CHOL    R443777  17.421   8.911  -2.316
12945CHOL    R543778  17.616   8.825  -2.283
12945CHOL    C143779  17.740   8.803  -2.487
12945CHOL    C243780  17.864   8.781  -2.692
12946CHOL   ROH43781  22.441   9.004   3.766
12946CHOL    R143782  22.584   8.994   3.694
12946CHOL    R243783  22.636   8.813   3.556
12946CHOL    R343784  22.744   8.983   3.613
12946CHOL    R443785  22.761   8.805   3.493
12946CHOL    R543786  22.886   8.973   3.541
12946CHOL    C143787  23.100   8.957   3.433
12946CHOL    C243788  23.314   8.942   3.325
12947CHOL   ROH43789  20.430  18.600  13.108
12947CHOL    R143790  20.547  18.702  13.147
12947CHOL    R243791  20.573  18.904  13.032
12947CHOL    R343792  20.679  18.817  13.190
12947CHOL    R443793  20.676  18.993  13.066
12947CHOL    R543794  20.797  18.918  13.228
12947CHOL    C143795  20.972  19.071  13.286
12947CHOL    C243796  21.148  19.224  13.344
12948CHOL   ROH43797  22.490  13.637  14.830
12948CHOL    R143798  22.637  13.676  14.881
12948CHOL    R243799  22.763  13.838  14.771
12948CHOL    R343800  22.801  13.720  14.939
12948CHOL    R443801  22.891  13.872  14.816
12948CHOL    R543802  22.948  13.758  14.990
12948CHOL    C143803  23.168  13.817  15.067
12948CHOL    C243804  23.388  13.875  15.144
12949CHOL   ROH43805   8.232  19.068  20.482
12949CHOL    R143806   8.210  19.175  20.599
12949CHOL    R243807   8.204  19.403  20.553
12949CHOL    R343808   8.184  19.295  20.731
12949CHOL    R443809   8.184  19.497  20.656
12949CHOL    R543810   8.162  19.401  20.847
12949CHOL    C143811   8.128  19.562  21.023
12949CHOL    C243812   8.095  19.722  21.198
12950CHOL   ROH43813   3.843  22.163   6.539
12950CHOL    R143814   3.766  22.299   6.502
12950CHOL    R243815   3.883  22.498   6.471
12950CHOL    R343816   3.680  22.451   6.460
12950CHOL    R443817   3.816  22.617   6.439
12950CHOL    R543818   3.603  22.587   6.424
12950CHOL    C143819   3.488  22.790   6.368
12950CHOL    C243820   3.373  22.993   6.313
12951CHOL   ROH43821   6.666  -0.654  18.560
12951CHOL    R143822   6.629  -0.774  18.659
12951CHOL    R243823   6.700  -0.992  18.614
12951CHOL    R343824   6.587  -0.910  18.769
12951CHOL    R443825   6.668  -1.097  18.701
12951CHOL    R543826   6.550  -1.031  18.868
12951CHOL    C143827   6.494  -1.211  19.016
12951CHOL    C243828   6.439  -1.392  19.164
12952CHOL   ROH43829  13.731  20.910  17.839
12952CHOL    R143830  13.773  21.035  17.930
12952CHOL    R243831  13.865  21.004  18.141
12952CHOL    R343832  13.820  21.176  18.031
12952CHOL    R443833  13.901  21.114  18.221
12952CHOL    R543834  13.861  21.301  18.122
12952CHOL    C143835  13.924  21.489  18.258
12952CHOL    C243836  13.987  21.676  18.394
12953CHOL   ROH43837  11.010   1.678  -1.318
12953CHOL    R143838  11.026   1.585  -1.447
12953CHOL    R243839  11.232   1.562  -1.554
12953CHOL    R343840  11.043   1.480  -1.593
12953CHOL    R443841  11.245   1.481  -1.668
12953CHOL    R543842  11.059   1.387  -1.722
12953CHOL    C143843  11.083   1.248  -1.916
12953CHOL    C243844  11.106   1.109  -2.110
12954CHOL   ROH43845  -1.441   8.803   1.703
12954CHOL    R143846  -1.566   8.790   1.604
12954CHOL    R243847  -1.638   8.581   1.529
12954CHOL    R343848  -1.706   8.775   1.492
12954CHOL    R443849  -1.747   8.569   1.442
12954CHOL    R543850  -1.830   8.761   1.392
12954CHOL    C143851  -2.017   8.742   1.243
12954CHOL    C243852  -2.204   8.722   1.094
12955CHOL   ROH43853  18.368  20.758   6.639
12955CHOL    R143854  18.464  20.881   6.605
12955CHOL    R243855  18.434  21.007   6.411
12955CHOL    R343856  18.572  21.020   6.567
12955CHOL    R443857  18.518  21.115   6.381
12955CHOL    R543858  18.668  21.143   6.533
12955CHOL    C143859  18.813  21.328   6.481
12955CHOL    C243860  18.957  21.513   6.430
12956CHOL   ROH43861   1.959   0.052  16.014
12956CHOL    R143862   1.870  -0.060  16.086
12956CHOL    R243863   1.823  -0.048  16.314
12956CHOL    R343864   1.770  -0.186  16.166
12956CHOL    R443865   1.746  -0.146  16.377
12956CHOL    R543866   1.682  -0.298  16.238
12956CHOL    C143867   1.548  -0.467  16.346
12956CHOL    C243868   1.415  -0.635  16.453
12957CHOL   ROH43869  14.399  15.024  22.237
12957CHOL    R143870  14.445  15.085  22.377
12957CHOL    R243871  14.557  14.954  22.535
12957CHOL    R343872  14.498  15.154  22.535
12957CHOL    R443873  14.597  15.007  22.657
12957CHOL    R543874  14.544  15.215  22.676
12957CHOL    C143875  14.614  15.307  22.886
12957CHOL    C243876  14.683  15.398  23.096
12958CHOL   ROH43877  19.359   1.021   4.683
12958CHOL    R143878  19.468   0.920   4.624
12958CHOL    R243879  19.696   0.968   4.634
12958CHOL    R343880  19.590   0.805   4.557
12958CHOL    R443881  19.791   0.880   4.582
12958CHOL    R543882  19.698   0.704   4.498
12958CHOL    C143883  19.861   0.552   4.408
12958CHOL    C243884  20.024   0.400   4.319
12959CHOL   ROH43885  13.640  18.917  -0.316
12959CHOL    R143886  13.680  19.015  -0.436
12959CHOL    R243887  13.825  18.946  -0.605
12959CHOL    R343888  13.726  19.126  -0.570
12959CHOL    R443889  13.860  19.032  -0.710
12959CHOL    R543890  13.766  19.224  -0.689
12959CHOL    C143891  13.826  19.372  -0.869
12959CHOL    C243892  13.887  19.520  -1.048
12960CHOL   ROH43893  -0.977  17.365  14.991
12960CHOL    R143894  -1.101  17.449  15.046
12960CHOL    R243895  -1.121  17.677  15.002
12960CHOL    R343896  -1.242  17.544  15.108
12960CHOL    R443897  -1.230  17.751  15.051
12960CHOL    R543898  -1.366  17.628  15.163
12960CHOL    C143899  -1.553  17.754  15.246
12960CHOL    C243900  -1.739  17.880  15.329
12961CHOL   ROH43901  17.683   7.520  -1.439
12961CHOL    R143902  17.768   7.493  -1.572
12961CHOL    R243903  17.811   7.664  -1.724
12961CHOL    R343904  17.865   7.462  -1.721
12961CHOL    R443905  17.886   7.640  -1.840
12961CHOL    R543906  17.950   7.435  -1.854
12961CHOL    C143907  18.078   7.394  -2.052
12961CHOL    C243908  18.206   7.353  -2.251
12962CHOL   ROH43909  -0.737   3.296  16.342
12962CHOL    R143910  -0.856   3.218  16.415
12962CHOL    R243911  -0.850   2.987  16.442
12962CHOL    R343912  -0.991   3.131  16.497
12962CHOL    R443913  -0.954   2.919  16.506
12962CHOL    R543914  -1.110   3.053  16.569
12962CHOL    C143915  -1.289   2.936  16.679
12962CHOL    C243916  -1.468   2.820  16.788
12963CHOL   ROH43917   6.664  -3.537   7.785
12963CHOL    R143918   6.629  -3.691   7.761
12963CHOL    R243919   6.762  -3.824   7.621
12963CHOL    R343920   6.590  -3.865   7.733
12963CHOL    R443921   6.731  -3.958   7.600
12963CHOL    R543922   6.555  -4.019   7.709
12963CHOL    C143923   6.503  -4.250   7.673
12963CHOL    C243924   6.451  -4.482   7.636
12964CHOL   ROH43925  13.379  19.587  19.580
12964CHOL    R143926  13.415  19.701  19.687
12964CHOL    R243927  13.632  19.725  19.767
12964CHOL    R343928  13.455  19.828  19.807
12964CHOL    R443929  13.664  19.825  19.861
12964CHOL    R543930  13.491  19.942  19.914
12964CHOL    C143931  13.545  20.112  20.074
12964CHOL    C243932  13.599  20.283  20.235
12965CHOL   ROH43933   8.836  16.745  -2.372
12965CHOL    R143934   8.827  16.821  -2.513
12965CHOL    R243935   9.018  16.855  -2.642
12965CHOL    R343936   8.818  16.906  -2.671
12965CHOL    R443937   9.011  16.921  -2.765
12965CHOL    R543938   8.809  16.982  -2.811
12965CHOL    C143939   8.796  17.095  -3.022
12965CHOL    C243940   8.783  17.209  -3.233
12966CHOL   ROH43941  -2.446  13.002  16.085
12966CHOL    R143942  -2.586  13.036  16.156
12966CHOL    R243943  -2.599  13.196  16.325
12966CHOL    R343944  -2.742  13.074  16.235
12966CHOL    R443945  -2.721  13.225  16.387
12966CHOL    R543946  -2.882  13.107  16.306
12966CHOL    C143947  -3.091  13.158  16.411
12966CHOL    C243948  -3.301  13.209  16.517
12967CHOL   ROH43949  13.337  17.305  -1.537
12967CHOL    R143950  13.373  17.387  -1.670
12967CHOL    R243951  13.537  17.552  -1.668
12967CHOL    R343952  13.414  17.478  -1.819
12967CHOL    R443953  13.569  17.624  -1.784
12967CHOL    R543954  13.451  17.560  -1.952
12967CHOL    C143955  13.505  17.682  -2.151
12967CHOL    C243956  13.559  17.805  -2.350
12968CHOL   ROH43957  23.648   8.341  11.947
12968CHOL    R143958  23.806   8.327  11.964
12968CHOL    R243959  23.930   8.189  11.822
12968CHOL    R343960  23.985   8.311  11.983
12968CHOL    R443961  24.069   8.177  11.837
12968CHOL    R543962  24.143   8.297  12.000
12968CHOL    C143963  24.381   8.275  12.025
12968CHOL    C243964  24.618   8.254  12.051
12969CHOL   ROH43965  12.926  20.402  18.806
12969CHOL    R143966  12.959  20.523  18.906
12969CHOL    R243967  13.128  20.505  19.065
12969CHOL    R343968  12.995  20.659  19.018
12969CHOL    R443969  13.157  20.611  19.152
12969CHOL    R543970  13.028  20.780  19.118
12969CHOL    C143971  13.077  20.961  19.267
12969CHOL    C243972  13.126  21.143  19.417
12970CHOL   ROH43973   3.475   1.588  19.239
12970CHOL    R143974   3.396   1.495  19.343
12970CHOL    R243975   3.489   1.444  19.551
12970CHOL    R343976   3.308   1.391  19.460
12970CHOL    R443977   3.420   1.363  19.642
12970CHOL    R543978   3.230   1.299  19.565
12970CHOL    C143979   3.112   1.160  19.721
12970CHOL    C243980   2.994   1.021  19.877
12971CHOL   ROH43981   5.075  18.710  19.832
12971CHOL    R143982   5.025  18.811  19.945
12971CHOL    R243983   5.051  18.762  20.171
12971CHOL    R343984   4.968  18.926  20.072
12971CHOL    R443985   5.007  18.850  20.270
12971CHOL    R543986   4.918  19.027  20.185
12971CHOL    C143987   4.842  19.179  20.354
12971CHOL    C243988   4.766  19.331  20.524
12972CHOL   ROH43989  14.197  22.841   6.486
12972CHOL    R143990  14.245  22.988   6.443
12972CHOL    R243991  14.429  23.018   6.304
12972CHOL    R343992  14.298  23.153   6.396
12972CHOL    R443993  14.471  23.147   6.267
12972CHOL    R543994  14.346  23.300   6.353
12972CHOL    C143995  14.417  23.520   6.289
12972CHOL    C243996  14.488  23.740   6.225
12973CHOL   ROH43997   7.486  22.923  14.905
12973CHOL    R143998   7.456  23.070  14.962
12973CHOL    R243999   7.470  23.257  14.824
12973CHOL    R344000   7.422  23.234  15.025
12973CHOL    R444001   7.444  23.385  14.873
12973CHOL    R544002   7.392  23.381  15.082
12973CHOL    C144003   7.346  23.601  15.167
12973CHOL    C244004   7.301  23.821  15.252
12974CHOL   ROH44005  16.740  20.187   3.238
12974CHOL    R144006  16.822  20.298   3.158
12974CHOL    R244007  16.799  20.320   2.926
12974CHOL    R344008  16.914  20.424   3.067
12974CHOL    R444009  16.871  20.418   2.856
12974CHOL    R544010  16.997  20.535   2.987
12974CHOL    C144011  17.120  20.702   2.866
12974CHOL    C244012  17.243  20.869   2.745
12975CHOL   ROH44013  16.004   3.973  -1.227
12975CHOL    R144014  16.079   3.912  -1.354
12975CHOL    R244015  16.293   3.985  -1.414
12975CHOL    R344016  16.164   3.844  -1.498
12975CHOL    R444017  16.359   3.932  -1.525
12975CHOL    R544018  16.240   3.783  -1.625
12975CHOL    C144019  16.353   3.692  -1.816
12975CHOL    C244020  16.466   3.601  -2.007
12976CHOL   ROH44021  11.461  22.076   2.964
12976CHOL    R144022  11.483  22.214   2.887
12976CHOL    R244023  11.679  22.256   2.768
12976CHOL    R344024  11.507  22.370   2.800
12976CHOL    R444025  11.698  22.377   2.701
12976CHOL    R544026  11.529  22.509   2.722
12976CHOL    C144027  11.562  22.716   2.607
12976CHOL    C244028  11.594  22.924   2.491
12977CHOL   ROH44029   9.069   1.978  -1.623
12977CHOL    R144030   9.066   1.889  -1.756
12977CHOL    R244031   9.202   1.701  -1.777
12977CHOL    R344032   9.062   1.788  -1.905
12977CHOL    R444033   9.199   1.623  -1.894
12977CHOL    R544034   9.059   1.699  -2.038
12977CHOL    C144035   9.054   1.565  -2.237
12977CHOL    C244036   9.049   1.431  -2.436
12978CHOL   ROH44037   0.520  20.286   8.252
12978CHOL    R144038   0.421  20.410   8.230
12978CHOL    R244039   0.500  20.613   8.145
12978CHOL    R344040   0.310  20.549   8.205
12978CHOL    R444041   0.413  20.721   8.126
12978CHOL    R544042   0.211  20.673   8.183
12978CHOL    C144043   0.063  20.859   8.149
12978CHOL    C244044  -0.086  21.045   8.116
12979CHOL   ROH44045   1.388  20.896  12.798
12979CHOL    R144046   1.296  21.022  12.835
12979CHOL    R244047   1.341  21.233  12.748
12979CHOL    R344048   1.193  21.163  12.878
12979CHOL    R444049   1.261  21.343  12.781
12979CHOL    R544050   1.102  21.289  12.915
12979CHOL    C144051   0.964  21.477  12.971
12979CHOL    C244052   0.826  21.665  13.027
12980CHOL   ROH44053  11.027   9.706  23.965
12980CHOL    R144054  11.042   9.702  24.124
12980CHOL    R244055  11.054   9.899  24.248
12980CHOL    R344056  11.058   9.698  24.303
12980CHOL    R444057  11.067   9.896  24.387
12980CHOL    R544058  11.073   9.694  24.462
12980CHOL    C144059  11.095   9.688  24.701
12980CHOL    C244060  11.117   9.682  24.940
12981CHOL   ROH44061   0.797   1.652   3.066
12981CHOL    R144062   0.697   1.558   2.983
12981CHOL    R244063   0.719   1.326   2.989
12981CHOL    R344064   0.586   1.452   2.890
12981CHOL    R444065   0.632   1.243   2.917
12981CHOL    R544066   0.486   1.358   2.807
12981CHOL    C144067   0.337   1.217   2.683
12981CHOL    C244068   0.187   1.076   2.559
12982CHOL   ROH44069   5.820  14.417  22.712
12982CHOL    R144070   5.774  14.456  22.860
12982CHOL    R244071   5.892  14.615  22.984
12982CHOL    R344072   5.723  14.500  23.027
12982CHOL    R444073   5.852  14.649  23.114
12982CHOL    R544074   5.678  14.539  23.176
12982CHOL    C144075   5.609  14.598  23.398
12982CHOL    C244076   5.541  14.657  23.620
12983CHOL   ROH44077   9.448   2.705  -2.080
12983CHOL    R144078   9.448   2.624  -2.218
12983CHOL    R244079   9.594   2.682  -2.391
12983CHOL    R344080   9.449   2.533  -2.373
12983CHOL    R444081   9.594   2.611  -2.511
12983CHOL    R544082   9.449   2.452  -2.511
12983CHOL    C144083   9.449   2.331  -2.718
12983CHOL    C244084   9.450   2.209  -2.925
12984CHOL   ROH44085  22.137  14.671  14.954
12984CHOL    R144086  22.280  14.720  15.008
12984CHOL    R244087  22.454  14.767  14.860
12984CHOL    R344088  22.440  14.774  15.068
12984CHOL    R444089  22.578  14.809  14.907
12984CHOL    R544090  22.582  14.823  15.122
12984CHOL    C144091  22.796  14.896  15.203
12984CHOL    C244092  23.010  14.969  15.283
12985CHOL   ROH44093  20.696  15.896  16.792
12985CHOL    R144094  20.815  15.967  16.872
12985CHOL    R244095  20.862  16.193  16.843
12985CHOL    R344096  20.949  16.046  16.963
12985CHOL    R444097  20.966  16.255  16.913
12985CHOL    R544098  21.068  16.117  17.043
12985CHOL    C144099  21.247  16.222  17.163
12985CHOL    C244100  21.425  16.328  17.284
12986CHOL   ROH44101  16.660  20.989   4.400
12986CHOL    R144102  16.736  21.112   4.331
12986CHOL    R244103  16.683  21.179   4.114
12986CHOL    R344104  16.821  21.250   4.254
12986CHOL    R444105  16.750  21.287   4.054
12986CHOL    R544106  16.897  21.373   4.185
12986CHOL    C144107  17.011  21.557   4.083
12986CHOL    C244108  17.125  21.742   3.980
12987CHOL   ROH44109  11.589  18.322  -1.221
12987CHOL    R144110  11.606  18.419  -1.347
12987CHOL    R244111  11.786  18.567  -1.361
12987CHOL    R344112  11.625  18.528  -1.489
12987CHOL    R444113  11.801  18.652  -1.471
12987CHOL    R544114  11.643  18.625  -1.615
12987CHOL    C144115  11.668  18.770  -1.804
12987CHOL    C244116  11.694  18.916  -1.993
12988CHOL   ROH44117  21.038   8.825  18.316
12988CHOL    R144118  21.167   8.807  18.409
12988CHOL    R244119  21.355   8.941  18.381
12988CHOL    R344120  21.311   8.787  18.515
12988CHOL    R444121  21.468   8.925  18.463
12988CHOL    R544122  21.440   8.769  18.608
12988CHOL    C144123  21.633   8.742  18.748
12988CHOL    C244124  21.826   8.715  18.888
12989CHOL   ROH44125  -0.623   3.476  16.702
12989CHOL    R144126  -0.740   3.400  16.780
12989CHOL    R244127  -0.759   3.168  16.773
12989CHOL    R344128  -0.872   3.315  16.869
12989CHOL    R444129  -0.861   3.101  16.842
12989CHOL    R544130  -0.989   3.239  16.947
12989CHOL    C144131  -1.165   3.125  17.065
12989CHOL    C244132  -1.340   3.011  17.182
12990CHOL   ROH44133   8.711  10.365  -4.062
12990CHOL    R144134   8.697  10.368  -4.221
12990CHOL    R244135   8.488  10.356  -4.323
12990CHOL    R344136   8.681  10.372  -4.401
12990CHOL    R444137   8.475  10.359  -4.463
12990CHOL    R544138   8.667  10.375  -4.560
12990CHOL    C144139   8.646  10.380  -4.799
12990CHOL    C244140   8.625  10.385  -5.038
12991CHOL   ROH44141   6.956  16.040  -2.428
12991CHOL    R144142   6.922  16.107  -2.569
12991CHOL    R244143   6.916  16.339  -2.593
12991CHOL    R344144   6.884  16.183  -2.728
12991CHOL    R444145   6.886  16.398  -2.717
12991CHOL    R544146   6.850  16.250  -2.869
12991CHOL    C144147   6.799  16.351  -3.081
12991CHOL    C244148   6.748  16.452  -3.292
12992CHOL   ROH44149  18.956  17.988   2.930
12992CHOL    R144150  19.057  18.084   2.851
12992CHOL    R244151  19.058  18.091   2.618
12992CHOL    R344152  19.171  18.191   2.762
12992CHOL    R444153  19.146  18.175   2.548
12992CHOL    R544154  19.271  18.287   2.683
12992CHOL    C144155  19.423  18.431   2.564
12992CHOL    C244156  19.574  18.574   2.445
12993CHOL   ROH44157  11.051  17.264  21.903
12993CHOL    R144158  11.070  17.345  22.040
12993CHOL    R244159  11.279  17.424  22.104
12993CHOL    R344160  11.091  17.436  22.194
12993CHOL    R444161  11.296  17.495  22.224
12993CHOL    R544162  11.110  17.516  22.331
12993CHOL    C144163  11.138  17.638  22.536
12993CHOL    C244164  11.167  17.759  22.741
12994CHOL   ROH44165  20.363  18.985  12.187
12994CHOL    R144166  20.481  19.089  12.217
12994CHOL    R244167  20.669  19.024  12.341
12994CHOL    R344168  20.614  19.205  12.251
12994CHOL    R444169  20.772  19.115  12.367
12994CHOL    R544170  20.733  19.308  12.281
12994CHOL    C144171  20.910  19.464  12.327
12994CHOL    C244172  21.087  19.619  12.372
12995CHOL   ROH44173  -3.068  10.050   4.518
12995CHOL    R144174  -3.217  10.051   4.460
12995CHOL    R244175  -3.380   9.907   4.545
12995CHOL    R344176  -3.385  10.053   4.396
12995CHOL    R444177  -3.510   9.908   4.495
12995CHOL    R544178  -3.534  10.054   4.338
12995CHOL    C144179  -3.758  10.056   4.252
12995CHOL    C244180  -3.982  10.058   4.165
12996CHOL   ROH44181   2.485  21.475   7.084
12996CHOL    R144182   2.399  21.606   7.053
12996CHOL    R244183   2.503  21.810   7.009
12996CHOL    R344184   2.302  21.754   7.018
12996CHOL    R444185   2.428  21.925   6.982
12996CHOL    R544186   2.216  21.885   6.987
12996CHOL    C144187   2.087  22.082   6.940
12996CHOL    C244188   1.958  22.279   6.893
12997CHOL   ROH44189  23.751   9.166  11.396
12997CHOL    R144190  23.910   9.159  11.408
12997CHOL    R244191  24.047   9.260  11.249
12997CHOL    R344192  24.090   9.152  11.422
12997CHOL    R444193  24.187   9.255  11.260
12997CHOL    R544194  24.249   9.145  11.434
12997CHOL    C144195  24.488   9.136  11.453
12997CHOL    C244196  24.727   9.126  11.471
12998CHOL   ROH44197  16.999   1.724   1.056
12998CHOL    R144198  17.084   1.632   0.956
12998CHOL    R244199  17.082   1.672   0.726
12998CHOL    R344200  17.180   1.530   0.844
12998CHOL    R444201  17.157   1.592   0.639
12998CHOL    R544202  17.266   1.438   0.744
12998CHOL    C144203  17.393   1.301   0.594
12998CHOL    C244204  17.521   1.163   0.444
12999CHOL   ROH44205  -0.500  17.362  15.922
12999CHOL    R144206  -0.618  17.446  15.991
12999CHOL    R244207  -0.598  17.676  16.022
12999CHOL    R344208  -0.750  17.540  16.068
12999CHOL    R444209  -0.702  17.749  16.082
12999CHOL    R544210  -0.868  17.624  16.136
12999CHOL    C144211  -1.045  17.750  16.239
12999CHOL    C244212  -1.221  17.876  16.342
13000CHOL   ROH44213   0.786   6.824  -0.342
13000CHOL    R144214   0.683   6.790  -0.459
13000CHOL    R244215   0.473   6.699  -0.412
13000CHOL    R344216   0.566   6.752  -0.591
13000CHOL    R444217   0.383   6.670  -0.514
13000CHOL    R544218   0.463   6.718  -0.709
13000CHOL    C144219   0.308   6.666  -0.884
13000CHOL    C244220   0.153   6.615  -1.060
13001CHOL   ROH44221  10.298  16.877  22.202
13001CHOL    R144222  10.309  16.952  22.343
13001CHOL    R244223  10.508  17.052  22.410
13001CHOL    R344224  10.321  17.037  22.501
13001CHOL    R444225  10.518  17.118  22.534
13001CHOL    R544226  10.331  17.112  22.642
13001CHOL    C144227  10.348  17.225  22.853
13001CHOL    C244228  10.364  17.338  23.064
13002CHOL   ROH44229  10.735  21.906   2.530
13002CHOL    R144230  10.745  22.041   2.444
13002CHOL    R244231  10.880  22.052   2.254
13002CHOL    R344232  10.755  22.192   2.347
13002CHOL    R444233  10.888  22.170   2.179
13002CHOL    R544234  10.765  22.326   2.262
13002CHOL    C144235  10.779  22.528   2.133
13002CHOL    C244236  10.794  22.730   2.004
13003CHOL   ROH44237  21.015  17.931  12.989
13003CHOL    R144238  21.139  18.026  13.025
13003CHOL    R244239  21.239  18.159  12.862
13003CHOL    R344240  21.279  18.132  13.065
13003CHOL    R444241  21.347  18.242  12.893
13003CHOL    R544242  21.403  18.226  13.101
13003CHOL    C144243  21.589  18.368  13.154
13003CHOL    C244244  21.775  18.510  13.208
13004CHOL   ROH44245  -0.716   9.668  19.133
13004CHOL    R144246  -0.837   9.669  19.237
13004CHOL    R244247  -0.845   9.516  19.413
13004CHOL    R344248  -0.973   9.669  19.355
13004CHOL    R444249  -0.951   9.516  19.505
13004CHOL    R544250  -1.095   9.670  19.459
13004CHOL    C144251  -1.276   9.671  19.616
13004CHOL    C244252  -1.458   9.672  19.773
13005CHOL   ROH44253   0.499   7.318  20.032
13005CHOL    R144254   0.396   7.282  20.149
13005CHOL    R244255   0.469   7.252  20.368
13005CHOL    R344256   0.279   7.243  20.280
13005CHOL    R444257   0.378   7.221  20.470
13005CHOL    R544258   0.176   7.207  20.397
13005CHOL    C144259   0.021   7.154  20.572
13005CHOL    C244260  -0.134   7.100  20.747
13006CHOL   ROH44261  -0.769   3.121   3.638
13006CHOL    R144262  -0.889   3.040   3.569
13006CHOL    R244263  -0.884   2.807   3.556
13006CHOL    R344264  -1.023   2.949   3.492
13006CHOL    R444265  -0.989   2.736   3.496
13006CHOL    R544266  -1.143   2.868   3.424
13006CHOL    C144267  -1.323   2.747   3.321
13006CHOL    C244268  -1.502   2.625   3.218
13007CHOL   ROH44269  11.339   2.971  -2.138
13007CHOL    R144270  11.355   2.888  -2.274
13007CHOL    R244271  11.538   2.921  -2.414
13007CHOL    R344272  11.373   2.794  -2.426
13007CHOL    R444273  11.553   2.848  -2.533
13007CHOL    R544274  11.390   2.710  -2.562
13007CHOL    C144275  11.414   2.585  -2.766
13007CHOL    C244276  11.438   2.460  -2.969
13008CHOL   ROH44277  16.804   1.818   0.811
13008CHOL    R144278  16.886   1.727   0.708
13008CHOL    R244279  16.884   1.773   0.479
13008CHOL    R344280  16.978   1.625   0.592
13008CHOL    R444281  16.956   1.693   0.389
13008CHOL    R544282  17.060   1.534   0.489
13008CHOL    C144283  17.184   1.398   0.335
13008CHOL    C244284  17.307   1.261   0.181
13009CHOL   ROH44285   0.141   3.793   1.845
13009CHOL    R144286   0.037   3.721   1.747
13009CHOL    R244287  -0.123   3.573   1.831
13009CHOL    R344288  -0.081   3.640   1.638
13009CHOL    R444289  -0.215   3.510   1.745
13009CHOL    R544290  -0.185   3.568   1.540
13009CHOL    C144291  -0.341   3.460   1.394
13009CHOL    C244292  -0.498   3.352   1.247
13010CHOL   ROH44293  -0.793   8.694  18.995
13010CHOL    R144294  -0.915   8.683  19.097
13010CHOL    R244295  -0.882   8.708  19.327
13010CHOL    R344296  -1.053   8.671  19.213
13010CHOL    R444297  -0.990   8.698  19.416
13010CHOL    R544298  -1.176   8.659  19.315
13010CHOL    C144299  -1.359   8.643  19.469
13010CHOL    C244300  -1.543   8.626  19.622
13011CHOL   ROH44301  12.192  -1.733  17.339
13011CHOL    R144302  12.218  -1.860  17.433
13011CHOL    R244303  12.422  -1.890  17.541
13011CHOL    R344304  12.246  -2.003  17.539
13011CHOL    R444305  12.444  -2.001  17.623
13011CHOL    R544306  12.272  -2.130  17.632
13011CHOL    C144307  12.310  -2.321  17.773
13011CHOL    C244308  12.349  -2.511  17.914
13012CHOL   ROH44309   8.031  -1.891  17.234
13012CHOL    R144310   8.010  -2.026  17.317
13012CHOL    R244311   8.193  -2.149  17.393
13012CHOL    R344312   7.987  -2.178  17.411
13012CHOL    R444313   8.175  -2.267  17.466
13012CHOL    R544314   7.966  -2.313  17.494
13012CHOL    C144315   7.935  -2.516  17.619
13012CHOL    C244316   7.904  -2.718  17.744
13013CHOL   ROH44317   5.167  21.081  17.193
13013CHOL    R144318   5.113  21.205  17.278
13013CHOL    R244319   5.258  21.369  17.357
13013CHOL    R344320   5.052  21.345  17.374
13013CHOL    R444321   5.211  21.478  17.431
13013CHOL    R544322   4.998  21.469  17.459
13013CHOL    C144323   4.916  21.656  17.586
13013CHOL    C244324   4.835  21.842  17.713
13014CHOL   ROH44325  15.952  22.257   6.984
13014CHOL    R144326  16.021  22.398   6.954
13014CHOL    R244327  16.223  22.412   6.840
13014CHOL    R344328  16.098  22.558   6.921
13014CHOL    R444329  16.284  22.535   6.814
13014CHOL    R544330  16.167  22.699   6.892
13014CHOL    C144331  16.270  22.911   6.847
13014CHOL    C244332  16.373  23.123   6.803
13015CHOL   ROH44333   1.312   1.737  17.449
13015CHOL    R144334   1.215   1.646  17.537
13015CHOL    R244335   1.297   1.464  17.658
13015CHOL    R344336   1.105   1.544  17.637
13015CHOL    R444337   1.212   1.384  17.735
13015CHOL    R544338   1.007   1.452  17.725
13015CHOL    C144339   0.861   1.316  17.858
13015CHOL    C244340   0.715   1.179  17.991
13016CHOL   ROH44341  -0.697  17.286   4.201
13016CHOL    R144342  -0.820  17.365   4.136
13016CHOL    R244343  -0.970  17.485   4.268
13016CHOL    R344344  -0.957  17.455   4.062
13016CHOL    R444345  -1.077  17.554   4.211
13016CHOL    R544346  -1.080  17.534   3.996
13016CHOL    C144347  -1.264  17.653   3.898
13016CHOL    C244348  -1.448  17.772   3.800
13017CHOL   ROH44349  22.326   3.531   9.450
13017CHOL    R144350  22.466   3.455   9.439
13017CHOL    R244351  22.639   3.538   9.307
13017CHOL    R344352  22.624   3.368   9.428
13017CHOL    R444353  22.762   3.471   9.298
13017CHOL    R544354  22.764   3.292   9.417
13017CHOL    C144355  22.974   3.177   9.401
13017CHOL    C244356  23.184   3.063   9.385
13018CHOL   ROH44357   9.270  21.501   1.975
13018CHOL    R144358   9.260  21.630   1.881
13018CHOL    R244359   9.270  21.845   1.970
13018CHOL    R344360   9.249  21.775   1.775
13018CHOL    R444361   9.261  21.958   1.888
13018CHOL    R544362   9.239  21.904   1.681
13018CHOL    C144363   9.224  22.097   1.539
13018CHOL    C244364   9.209  22.291   1.398
13019CHOL   ROH44365  10.411  20.924  18.744
13019CHOL    R144366  10.420  21.047  18.846
13019CHOL    R244367  10.494  21.017  19.065
13019CHOL    R344368  10.430  21.186  18.960
13019CHOL    R444369  10.502  21.125  19.153
13019CHOL    R544370  10.439  21.309  19.061
13019CHOL    C144371  10.453  21.494  19.214
13019CHOL    C244372  10.467  21.679  19.366
13020CHOL   ROH44373  21.745  13.480  16.647
13020CHOL    R144374  21.882  13.519  16.720
13020CHOL    R244375  22.015  13.356  16.821
13020CHOL    R344376  22.036  13.563  16.802
13020CHOL    R444377  22.135  13.390  16.885
13020CHOL    R544378  22.173  13.602  16.875
13020CHOL    C144379  22.378  13.660  16.984
13020CHOL    C244380  22.584  13.718  17.094
13021CHOL   ROH44381  21.716  13.480   3.231
13021CHOL    R144382  21.850  13.517   3.152
13021CHOL    R244383  21.850  13.547   2.921
13021CHOL    R344384  22.001  13.560   3.064
13021CHOL    R444385  21.967  13.580   2.852
13021CHOL    R544386  22.135  13.597   2.985
13021CHOL    C144387  22.337  13.653   2.868
13021CHOL    C244388  22.538  13.709   2.750
13022CHOL   ROH44389   6.333  -3.349  12.660
13022CHOL    R144390   6.292  -3.501  12.689
13022CHOL    R244391   6.315  -3.593  12.902
13022CHOL    R344392   6.246  -3.672  12.722
13022CHOL    R444393   6.279  -3.726  12.927
13022CHOL    R544394   6.205  -3.824  12.750
13022CHOL    C144395   6.143  -4.052  12.794
13022CHOL    C244396   6.081  -4.280  12.837
13023CHOL   ROH44397  19.238   1.261   4.103
13023CHOL    R144398  19.345   1.163   4.035
13023CHOL    R244399  19.567   1.228   4.008
13023CHOL    R344400  19.465   1.053   3.959
13023CHOL    R444401  19.660   1.142   3.949
13023CHOL    R544402  19.572   0.954   3.891
13023CHOL    C144403  19.732   0.807   3.790
13023CHOL    C244404  19.892   0.660   3.688
13024CHOL   ROH44405  15.699   4.089  21.290
13024CHOL    R144406  15.769   4.025  21.418
13024CHOL    R244407  15.992   4.071  21.469
13024CHOL    R344408  15.849   3.952  21.563
13024CHOL    R444409  16.054   4.015  21.581
13024CHOL    R544410  15.919   3.888  21.692
13024CHOL    C144411  16.025   3.792  21.884
13024CHOL    C244412  16.130   3.695  22.077
13025CHOL   ROH44413  10.273  23.846  12.109
13025CHOL    R144414  10.279  24.004  12.133
13025CHOL    R244415  10.446  24.134  12.035
13025CHOL    R344416  10.286  24.182  12.161
13025CHOL    R444417  10.451  24.272  12.056
13025CHOL    R544418  10.292  24.339  12.186
13025CHOL    C144419  10.302  24.576  12.222
13025CHOL    C244420  10.311  24.813  12.259
13026CHOL   ROH44421  13.854  18.941  20.047
13026CHOL    R144422  13.898  19.044  20.161
13026CHOL    R244423  14.114  19.131  20.169
13026CHOL    R344424  13.946  19.160  20.290
13026CHOL    R444425  14.152  19.221  20.269
13026CHOL    R544426  13.990  19.264  20.404
13026CHOL    C144427  14.055  19.418  20.576
13026CHOL    C244428  14.121  19.573  20.748
13027CHOL   ROH44429  16.899  22.043   9.403
13027CHOL    R144430  16.978  22.182   9.398
13027CHOL    R244431  17.188  22.198   9.298
13027CHOL    R344432  17.067  22.339   9.392
13027CHOL    R444433  17.257  22.319   9.294
13027CHOL    R544434  17.145  22.478   9.388
13027CHOL    C144435  17.264  22.687   9.380
13027CHOL    C244436  17.382  22.896   9.373
13028CHOL   ROH44437  10.834   3.322  22.281
13028CHOL    R144438  10.839   3.245  22.421
13028CHOL    R244439  11.026   3.261  22.560
13028CHOL    R344440  10.845   3.158  22.579
13028CHOL    R444441  11.030   3.193  22.683
13028CHOL    R544442  10.850   3.081  22.719
13028CHOL    C144443  10.858   2.965  22.929
13028CHOL    C244444  10.865   2.850  23.139
13029CHOL   ROH44445   0.898  20.759  11.481
13029CHOL    R144446   0.795  20.881  11.493
13029CHOL    R244447   0.850  21.073  11.613
13029CHOL    R344448   0.679  21.018  11.506
13029CHOL    R444449   0.760  21.180  11.623
13029CHOL    R544450   0.576  21.140  11.518
13029CHOL    C144451   0.421  21.323  11.536
13029CHOL    C244452   0.267  21.506  11.554
13030CHOL   ROH44453  12.051  -3.848   8.190
13030CHOL    R144454  12.075  -4.005   8.173
13030CHOL    R244455  12.192  -4.127   8.333
13030CHOL    R344456  12.102  -4.182   8.153
13030CHOL    R444457  12.213  -4.265   8.318
13030CHOL    R544458  12.126  -4.340   8.135
13030CHOL    C144459  12.163  -4.575   8.109
13030CHOL    C244460  12.199  -4.811   8.083
13031CHOL   ROH44461   8.166  13.958  -3.465
13031CHOL    R144462   8.149  14.003  -3.617
13031CHOL    R244463   8.124  14.229  -3.674
13031CHOL    R344464   8.130  14.055  -3.789
13031CHOL    R444465   8.109  14.268  -3.807
13031CHOL    R544466   8.113  14.100  -3.942
13031CHOL    C144467   8.087  14.168  -4.170
13031CHOL    C244468   8.061  14.236  -4.399
13032CHOL   ROH44469  11.950   7.143  -3.693
13032CHOL    R144470  11.970   7.106  -3.847
13032CHOL    R244471  11.909   7.256  -4.015
13032CHOL    R344472  11.993   7.065  -4.021
13032CHOL    R444473  11.927   7.224  -4.150
13032CHOL    R544474  12.013   7.029  -4.175
13032CHOL    C144475  12.043   6.974  -4.407
13032CHOL    C244476  12.073   6.919  -4.639
13033CHOL   ROH44477   2.880   4.253  -0.780
13033CHOL    R144478   2.798   4.183  -0.898
13033CHOL    R244479   2.586   4.092  -0.860
13033CHOL    R344480   2.705   4.104  -1.031
13033CHOL    R444481   2.514   4.031  -0.963
13033CHOL    R544482   2.623   4.034  -1.149
13033CHOL    C144483   2.500   3.930  -1.326
13033CHOL    C244484   2.376   3.825  -1.503
13034CHOL   ROH44485  18.411   9.748  -1.213
13034CHOL    R144486  18.506   9.746  -1.342
13034CHOL    R244487  18.524   9.933  -1.480
13034CHOL    R344488  18.612   9.743  -1.487
13034CHOL    R444489  18.607   9.931  -1.593
13034CHOL    R544490  18.706   9.741  -1.617
13034CHOL    C144491  18.848   9.738  -1.810
13034CHOL    C244492  18.990   9.734  -2.004
13035CHOL   ROH44493  11.766  -1.885  17.242
13035CHOL    R144494  11.789  -2.013  17.335
13035CHOL    R244495  12.004  -2.081  17.395
13035CHOL    R344496  11.815  -2.158  17.439
13035CHOL    R444497  12.024  -2.194  17.476
13035CHOL    R544498  11.838  -2.286  17.532
13035CHOL    C144499  11.872  -2.478  17.671
13035CHOL    C244500  11.906  -2.671  17.810
13036CHOL   ROH44501  15.621   8.105  22.590
13036CHOL    R144502  15.683   8.080  22.735
13036CHOL    R244503  15.886   8.175  22.797
13036CHOL    R344504  15.752   8.052  22.899
13036CHOL    R444505  15.940   8.153  22.925
13036CHOL    R544506  15.814   8.027  23.044
13036CHOL    C144507  15.907   7.989  23.263
13036CHOL    C244508  15.999   7.951  23.481
13037CHOL   ROH44509   6.479  21.767  16.848
13037CHOL    R144510   6.441  21.902  16.925
13037CHOL    R244511   6.599  22.070  16.958
13037CHOL    R344512   6.398  22.053  17.012
13037CHOL    R444513   6.565  22.188  17.026
13037CHOL    R544514   6.359  22.188  17.090
13037CHOL    C144515   6.302  22.390  17.205
13037CHOL    C244516   6.245  22.592  17.321
13038CHOL   ROH44517   2.620  18.353  18.622
13038CHOL    R144518   2.537  18.445  18.723
13038CHOL    R244519   2.580  18.441  18.952
13038CHOL    R344520   2.444  18.549  18.837
13038CHOL    R444521   2.508  18.522  19.041
13038CHOL    R544522   2.360  18.641  18.938
13038CHOL    C144523   2.236  18.779  19.090
13038CHOL    C244524   2.111  18.917  19.241
13039CHOL   ROH44525  18.703  -0.157   5.825
13039CHOL    R144526  18.803  -0.273   5.779
13039CHOL    R244527  18.893  -0.276   5.564
13039CHOL    R344528  18.915  -0.404   5.727
13039CHOL    R444529  18.980  -0.378   5.524
13039CHOL    R544530  19.015  -0.520   5.681
13039CHOL    C144531  19.165  -0.694   5.613
13039CHOL    C244532  19.315  -0.868   5.544
13040CHOL   ROH44533  18.272  15.569  19.576
13040CHOL    R144534  18.368  15.626  19.691
13040CHOL    R244535  18.590  15.679  19.646
13040CHOL    R344536  18.475  15.691  19.820
13040CHOL    R444537  18.674  15.730  19.747
13040CHOL    R544538  18.570  15.748  19.935
13040CHOL    C144539  18.714  15.835  20.107
13040CHOL    C244540  18.857  15.921  20.280
13041CHOL   ROH44541  -0.319   1.131   6.052
13041CHOL    R144542  -0.438   1.032   6.011
13041CHOL    R244543  -0.576   0.937   6.173
13041CHOL    R344544  -0.571   0.920   5.965
13041CHOL    R444545  -0.680   0.850   6.137
13041CHOL    R544546  -0.689   0.821   5.924
13041CHOL    C144547  -0.867   0.671   5.863
13041CHOL    C244548  -1.045   0.522   5.802
13042CHOL   ROH44549  10.307  21.782   2.318
13042CHOL    R144550  10.309  21.914   2.227
13042CHOL    R244551  10.458  21.934   2.049
13042CHOL    R344552  10.311  22.061   2.125
13042CHOL    R444553  10.460  22.049   1.970
13042CHOL    R544554  10.313  22.193   2.034
13042CHOL    C144555  10.315  22.390   1.897
13042CHOL    C244556  10.318  22.588   1.760
13043CHOL   ROH44557  14.607   0.275  18.870
13043CHOL    R144558  14.656   0.163  18.974
13043CHOL    R244559  14.727   0.222  19.188
13043CHOL    R344560  14.711   0.038  19.091
13043CHOL    R444561  14.770   0.124  19.279
13043CHOL    R544562  14.759  -0.074  19.194
13043CHOL    C144563  14.833  -0.241  19.350
13043CHOL    C244564  14.906  -0.408  19.506
13044CHOL   ROH44565  21.257  16.985   5.819
13044CHOL    R144566  21.387  17.068   5.776
13044CHOL    R244567  21.458  17.074   5.554
13044CHOL    R344568  21.534  17.161   5.728
13044CHOL    R444569  21.572  17.146   5.517
13044CHOL    R544570  21.664  17.243   5.686
13044CHOL    C144571  21.859  17.368   5.621
13044CHOL    C244572  22.055  17.492   5.557
13045CHOL   ROH44573  -2.517   3.477  11.180
13045CHOL    R144574  -2.659   3.405  11.196
13045CHOL    R244575  -2.676   3.173  11.213
13045CHOL    R344576  -2.819   3.325  11.213
13045CHOL    R444577  -2.800   3.111  11.227
13045CHOL    R544578  -2.962   3.253  11.229
13045CHOL    C144579  -3.175   3.145  11.253
13045CHOL    C244580  -3.388   3.038  11.276
13046CHOL   ROH44581  22.165  15.089   5.393
13046CHOL    R144582  22.304  15.152   5.346
13046CHOL    R244583  22.311  15.318   5.182
13046CHOL    R344584  22.461  15.224   5.293
13046CHOL    R444585  22.433  15.374   5.141
13046CHOL    R544586  22.600  15.287   5.246
13046CHOL    C144587  22.809  15.382   5.175
13046CHOL    C244588  23.018  15.477   5.104
13047CHOL   ROH44589  11.624  -0.273  19.213
13047CHOL    R144590  11.647  -0.389  19.321
13047CHOL    R244591  11.857  -0.486  19.349
13047CHOL    R344592  11.674  -0.519  19.442
13047CHOL    R444593  11.878  -0.587  19.443
13047CHOL    R544594  11.697  -0.635  19.550
13047CHOL    C144595  11.732  -0.809  19.712
13047CHOL    C244596  11.767  -0.983  19.874
13048CHOL   ROH44597  18.383  20.682   6.424
13048CHOL    R144598  18.481  20.803   6.386
13048CHOL    R244599  18.449  20.926   6.190
13048CHOL    R344600  18.591  20.939   6.343
13048CHOL    R444601  18.535  21.031   6.157
13048CHOL    R544602  18.688  21.059   6.305
13048CHOL    C144603  18.835  21.241   6.248
13048CHOL    C244604  18.982  21.422   6.191
13049CHOL   ROH44605  23.144   7.253   6.315
13049CHOL    R144606  23.297   7.224   6.278
13049CHOL    R244607  23.370   7.225   6.056
13049CHOL    R344608  23.469   7.192   6.237
13049CHOL    R444609  23.504   7.200   6.024
13049CHOL    R544610  23.623   7.163   6.200
13049CHOL    C144611  23.852   7.120   6.145
13049CHOL    C244612  24.082   7.077   6.090
13050CHOL   ROH44613   5.011  20.179  18.282
13050CHOL    R144614   4.959  20.295  18.379
13050CHOL    R244615   5.076  20.496  18.398
13050CHOL    R344616   4.901  20.425  18.489
13050CHOL    R444617   5.030  20.598  18.484
13050CHOL    R544618   4.849  20.541  18.586
13050CHOL    C144619   4.772  20.715  18.732
13050CHOL    C244620   4.694  20.889  18.878
13051CHOL   ROH44621   0.477   0.163  13.639
13051CHOL    R144622   0.370   0.051  13.679
13051CHOL    R244623   0.409  -0.094  13.857
13051CHOL    R344624   0.249  -0.075  13.724
13051CHOL    R444625   0.315  -0.192  13.892
13051CHOL    R544626   0.142  -0.186  13.764
13051CHOL    C144627  -0.019  -0.354  13.824
13051CHOL    C244628  -0.180  -0.522  13.884
13052CHOL   ROH44629  17.788  -0.037  15.801
13052CHOL    R144630  17.881  -0.150  15.865
13052CHOL    R244631  18.108  -0.113  15.903
13052CHOL    R344632  17.985  -0.278  15.937
13052CHOL    R444633  18.189  -0.212  15.959
13052CHOL    R544634  18.078  -0.391  16.001
13052CHOL    C144635  18.217  -0.562  16.098
13052CHOL    C244636  18.356  -0.732  16.194
13053CHOL   ROH44637  13.916  14.124  -2.867
13053CHOL    R144638  13.958  14.173  -3.013
13053CHOL    R244639  13.809  14.160  -3.192
13053CHOL    R344640  14.006  14.229  -3.178
13053CHOL    R444641  13.846  14.203  -3.320
13053CHOL    R544642  14.048  14.278  -3.324
13053CHOL    C144643  14.111  14.353  -3.543
13053CHOL    C244644  14.175  14.427  -3.763
13054CHOL   ROH44645   5.635   1.327  20.244
13054CHOL    R144646   5.588   1.226  20.359
13054CHOL    R244647   5.728   1.056  20.434
13054CHOL    R344648   5.535   1.113  20.488
13054CHOL    R444649   5.687   0.968  20.535
13054CHOL    R544650   5.488   1.012  20.603
13054CHOL    C144651   5.417   0.861  20.776
13054CHOL    C244652   5.347   0.710  20.949
13055CHOL   ROH44653   2.050  20.754  14.405
13055CHOL    R144654   1.964  20.879  14.456
13055CHOL    R244655   1.939  20.923  14.683
13055CHOL    R344656   1.868  21.020  14.513
13055CHOL    R444657   1.864  21.033  14.728
13055CHOL    R544658   1.782  21.146  14.564
13055CHOL    C144659   1.654  21.333  14.640
13055CHOL    C244660   1.526  21.521  14.716
13056CHOL   ROH44661   8.361  22.339   3.367
13056CHOL    R144662   8.342  22.475   3.285
13056CHOL    R244663   8.509  22.553   3.142
13056CHOL    R344664   8.320  22.628   3.193
13056CHOL    R444665   8.492  22.672   3.070
13056CHOL    R544666   8.301  22.764   3.110
13056CHOL    C144667   8.272  22.968   2.987
13056CHOL    C244668   8.243  23.172   2.864
13057CHOL   ROH44669  22.491   8.314  15.840
13057CHOL    R144670  22.631   8.290  15.913
13057CHOL    R244671  22.827   8.385  15.830
13057CHOL    R344672  22.789   8.264  15.996
13057CHOL    R444673  22.950   8.364  15.895
13057CHOL    R544674  22.929   8.241  16.069
13057CHOL    C144675  23.139   8.205  16.180
13057CHOL    C244676  23.349   8.170  16.290
13058CHOL   ROH44677  -2.965  13.901   5.990
13058CHOL    R144678  -3.112  13.946   5.944
13058CHOL    R244679  -3.251  14.065   6.088
13058CHOL    R344680  -3.276  13.996   5.892
13058CHOL    R444681  -3.380  14.105   6.047
13058CHOL    R544682  -3.423  14.041   5.846
13058CHOL    C144683  -3.643  14.108   5.777
13058CHOL    C244684  -3.863  14.175   5.708
13059CHOL   ROH44685   9.007  23.982   9.360
13059CHOL    R144686   8.999  24.142   9.353
13059CHOL    R244687   9.171  24.267   9.258
13059CHOL    R344688   8.990  24.321   9.345
13059CHOL    R444689   9.164  24.406   9.252
13059CHOL    R544690   8.981  24.481   9.339
13059CHOL    C144691   8.969  24.721   9.328
13059CHOL    C244692   8.957  24.960   9.318
13060CHOL   ROH44693  16.995  -2.067  10.812
13060CHOL    R144694  17.076  -2.205  10.824
13060CHOL    R244695  17.207  -2.282  10.647
13060CHOL    R344696  17.167  -2.359  10.836
13060CHOL    R444697  17.278  -2.402  10.657
13060CHOL    R544698  17.247  -2.497  10.848
13060CHOL    C144699  17.369  -2.703  10.865
13060CHOL    C244700  17.490  -2.910  10.883
13061CHOL   ROH44701   1.581   3.315  19.029
13061CHOL    R144702   1.486   3.243  19.136
13061CHOL    R244703   1.576   3.139  19.324
13061CHOL    R344704   1.380   3.162  19.256
13061CHOL    R444705   1.493   3.075  19.418
13061CHOL    R544706   1.285   3.090  19.363
13061CHOL    C144707   1.143   2.981  19.523
13061CHOL    C244708   1.001   2.873  19.684
13062CHOL   ROH44709  20.155   0.680   7.706
13062CHOL    R144710  20.274   0.576   7.681
13062CHOL    R244711  20.260   0.417   7.510
13062CHOL    R344712  20.407   0.458   7.653
13062CHOL    R444713  20.364   0.326   7.488
13062CHOL    R544714  20.526   0.354   7.628
13062CHOL    C144715  20.704   0.198   7.590
13062CHOL    C244716  20.882   0.041   7.552
13063CHOL   ROH44717  12.530  -3.721   7.903
13063CHOL    R144718  12.565  -3.876   7.880
13063CHOL    R244719  12.663  -4.003   8.049
13063CHOL    R344720  12.604  -4.049   7.855
13063CHOL    R444721  12.693  -4.138   8.030
13063CHOL    R544722  12.639  -4.204   7.832
13063CHOL    C144723  12.691  -4.436   7.798
13063CHOL    C244724  12.743  -4.668   7.764
13064CHOL   ROH44725   4.952  -0.314   1.752
13064CHOL    R144726   4.892  -0.427   1.655
13064CHOL    R244727   4.771  -0.607   1.741
13064CHOL    R344728   4.826  -0.553   1.546
13064CHOL    R444729   4.719  -0.705   1.656
13064CHOL    R544730   4.766  -0.666   1.450
13064CHOL    C144731   4.677  -0.835   1.304
13064CHOL    C244732   4.587  -1.004   1.159
13065CHOL   ROH44733  22.701  15.207   7.957
13065CHOL    R144734  22.846  15.271   7.936
13065CHOL    R244735  23.030  15.137   7.882
13065CHOL    R344736  23.009  15.343   7.912
13065CHOL    R444737  23.157  15.193   7.863
13065CHOL    R544738  23.154  15.407   7.892
13065CHOL    C144739  23.372  15.503   7.860
13065CHOL    C244740  23.590  15.599   7.829
13066CHOL   ROH44741   0.289  17.100   2.452
13066CHOL    R144742   0.178  17.181   2.369
13066CHOL    R244743   0.024  17.318   2.478
13066CHOL    R344744   0.054  17.272   2.276
13066CHOL    R444745  -0.072  17.389   2.405
13066CHOL    R544746  -0.057  17.352   2.193
13066CHOL    C144747  -0.222  17.474   2.069
13066CHOL    C244748  -0.388  17.595   1.945
13067CHOL   ROH44749  23.741   9.514   8.266
13067CHOL    R144750  23.900   9.507   8.249
13067CHOL    R244751  24.025   9.701   8.214
13067CHOL    R344752  24.079   9.500   8.230
13067CHOL    R444753  24.164   9.695   8.199
13067CHOL    R544754  24.238   9.493   8.213
13067CHOL    C144755  24.477   9.484   8.188
13067CHOL    C244756  24.715   9.474   8.162
13068CHOL   ROH44757  19.747   0.056   8.713
13068CHOL    R144758  19.861  -0.056   8.699
13068CHOL    R244759  20.070  -0.026   8.799
13068CHOL    R344760  19.989  -0.181   8.684
13068CHOL    R444761  20.170  -0.124   8.786
13068CHOL    R544762  20.103  -0.293   8.670
13068CHOL    C144763  20.274  -0.460   8.649
13068CHOL    C244764  20.445  -0.627   8.629
13069CHOL   ROH44765   6.238  23.584   9.001
13069CHOL    R144766   6.199  23.739   8.991
13069CHOL    R244767   6.175  23.869   9.183
13069CHOL    R344768   6.155  23.913   8.980
13069CHOL    R444769   6.141  24.004   9.174
13069CHOL    R544770   6.116  24.067   8.970
13069CHOL    C144771   6.057  24.300   8.955
13069CHOL    C244772   5.998  24.532   8.940
13070CHOL   ROH44773   7.637  23.842  11.114
13070CHOL    R144774   7.616  24.000  11.126
13070CHOL    R244775   7.689  24.117  11.314
13070CHOL    R344776   7.592  24.178  11.140
13070CHOL    R444777   7.670  24.255  11.325
13070CHOL    R544778   7.570  24.336  11.152
13070CHOL    C144779   7.539  24.573  11.170
13070CHOL    C244780   7.507  24.810  11.188
13071CHOL   ROH44781  16.442  -1.482  14.725
13071CHOL    R144782  16.519  -1.613  14.775
13071CHOL    R244783  16.576  -1.783  14.627
13071CHOL    R344784  16.606  -1.760  14.832
13071CHOL    R444785  16.644  -1.898  14.671
13071CHOL    R544786  16.682  -1.891  14.883
13071CHOL    C144787  16.798  -2.087  14.958
13071CHOL    C244788  16.913  -2.284  15.034
13072CHOL   ROH44789  11.466  18.700  20.843
13072CHOL    R144790  11.483  18.801  20.966
13072CHOL    R244791  11.692  18.837  21.064
13072CHOL    R344792  11.502  18.915  21.104
13072CHOL    R444793  11.707  18.926  21.171
13072CHOL    R544794  11.519  19.017  21.226
13072CHOL    C144795  11.545  19.168  21.411
13072CHOL    C244796  11.571  19.320  21.595
13073CHOL   ROH44797  15.072  22.867   8.222
13073CHOL    R144798  15.135  23.013   8.204
13073CHOL    R244799  15.318  23.048   8.064
13073CHOL    R344800  15.206  23.177   8.184
13073CHOL    R444801  15.374  23.176   8.048
13073CHOL    R544802  15.270  23.323   8.166
13073CHOL    C144803  15.364  23.542   8.139
13073CHOL    C244804  15.459  23.761   8.112
13074CHOL   ROH44805  18.186   0.262   4.078
13074CHOL    R144806  18.280   0.151   4.010
13074CHOL    R244807  18.227   0.060   3.803
13074CHOL    R344808  18.385   0.027   3.935
13074CHOL    R444809  18.309  -0.037   3.744
13074CHOL    R544810  18.479  -0.084   3.867
13074CHOL    C144811  18.619  -0.250   3.766
13074CHOL    C244812  18.759  -0.416   3.664
13075CHOL   ROH44813  12.393  10.263  -3.945
13075CHOL    R144814  12.424  10.268  -4.102
13075CHOL    R244815  12.329  10.433  -4.237
13075CHOL    R344816  12.458  10.274  -4.279
13075CHOL    R444817  12.355  10.437  -4.374
13075CHOL    R544818  12.489  10.279  -4.435
13075CHOL    C144819  12.534  10.287  -4.671
13075CHOL    C244820  12.580  10.295  -4.906
13076CHOL   ROH44821  10.339  23.222  14.714
13076CHOL    R144822  10.348  23.373  14.766
13076CHOL    R244823  10.517  23.440  14.911
13076CHOL    R344824  10.358  23.543  14.824
13076CHOL    R444825  10.525  23.573  14.957
13076CHOL    R544826  10.367  23.694  14.875
13076CHOL    C144827  10.380  23.921  14.953
13076CHOL    C244828  10.394  24.148  15.031
13077CHOL   ROH44829  20.274  18.083   5.210
13077CHOL    R144830  20.395  18.176   5.161
13077CHOL    R244831  20.573  18.087   5.039
13077CHOL    R344832  20.530  18.281   5.106
13077CHOL    R444833  20.678  18.169   4.996
13077CHOL    R544834  20.651  18.373   5.057
13077CHOL    C144835  20.832  18.513   4.983
13077CHOL    C244836  21.013  18.652   4.909
13078CHOL   ROH44837   4.384  20.819   2.913
13078CHOL    R144838   4.320  20.942   2.834
13078CHOL    R244839   4.357  21.162   2.903
13078CHOL    R344840   4.248  21.081   2.744
13078CHOL    R444841   4.301  21.270   2.834
13078CHOL    R544842   4.184  21.204   2.665
13078CHOL    C144843   4.088  21.390   2.546
13078CHOL    C244844   3.992  21.575   2.427
13079CHOL   ROH44845   2.191  18.404  18.202
13079CHOL    R144846   2.103  18.496  18.298
13079CHOL    R244847   2.197  18.600  18.485
13079CHOL    R344848   2.003  18.599  18.407
13079CHOL    R444849   2.119  18.680  18.569
13079CHOL    R544850   1.914  18.691  18.503
13079CHOL    C144851   1.782  18.829  18.648
13079CHOL    C244852   1.649  18.967  18.793
13080CHOL   ROH44853   5.445  -3.187  12.033
13080CHOL    R144854   5.394  -3.337  12.056
13080CHOL    R244855   5.474  -3.512  11.925
13080CHOL    R344856   5.336  -3.506  12.081
13080CHOL    R444857   5.429  -3.644  11.944
13080CHOL    R544858   5.285  -3.655  12.104
13080CHOL    C144859   5.208  -3.880  12.138
13080CHOL    C244860   5.131  -4.105  12.172
13081CHOL   ROH44861   2.784   3.969  -0.540
13081CHOL    R144862   2.701   3.896  -0.656
13081CHOL    R244863   2.508   3.775  -0.608
13081CHOL    R344864   2.608   3.815  -0.787
13081CHOL    R444865   2.435   3.712  -0.710
13081CHOL    R544866   2.525   3.742  -0.903
13081CHOL    C144867   2.401   3.633  -1.077
13081CHOL    C244868   2.277   3.524  -1.251
13082CHOL   ROH44869  -2.029  16.326   6.070
13082CHOL    R144870  -2.167  16.391   6.022
13082CHOL    R244871  -2.209  16.618   6.051
13082CHOL    R344872  -2.322  16.464   5.967
13082CHOL    R444873  -2.330  16.675   6.008
13082CHOL    R544874  -2.460  16.529   5.919
13082CHOL    C144875  -2.667  16.626   5.847
13082CHOL    C244876  -2.874  16.724   5.774
13083CHOL   ROH44877  14.697  -2.936   7.445
13083CHOL    R144878  14.754  -3.082   7.415
13083CHOL    R244879  14.978  -3.134   7.456
13083CHOL    R344880  14.818  -3.247   7.382
13083CHOL    R444881  15.028  -3.262   7.430
13083CHOL    R544882  14.876  -3.393   7.353
13083CHOL    C144883  14.961  -3.613   7.308
13083CHOL    C244884  15.047  -3.833   7.264
13084CHOL   ROH44885  17.627  -1.087  13.681
13084CHOL    R144886  17.717  -1.213  13.724
13084CHOL    R244887  17.933  -1.239  13.642
13084CHOL    R344888  17.817  -1.354  13.771
13084CHOL    R444889  18.012  -1.348  13.679
13084CHOL    R544890  17.907  -1.479  13.814
13084CHOL    C144891  18.041  -1.668  13.878
13084CHOL    C244892  18.176  -1.856  13.942
13085CHOL   ROH44893  10.724  12.723  23.681
13085CHOL    R144894  10.736  12.758  23.837
13085CHOL    R244895  10.929  12.707  23.957
13085CHOL    R344896  10.748  12.798  24.012
13085CHOL    R444897  10.939  12.738  24.094
13085CHOL    R544898  10.760  12.833  24.168
13085CHOL    C144899  10.777  12.886  24.401
13085CHOL    C244900  10.795  12.939  24.635
13086CHOL   ROH44901  11.531  15.948  22.495
13086CHOL    R144902  11.554  16.011  22.640
13086CHOL    R244903  11.750  15.969  22.760
13086CHOL    R344904  11.580  16.082  22.804
13086CHOL    R444905  11.770  16.024  22.887
13086CHOL    R544906  11.603  16.144  22.949
13086CHOL    C144907  11.637  16.239  23.168
13086CHOL    C244908  11.671  16.333  23.386
13087CHOL   ROH44909  20.254  11.429   0.662
13087CHOL    R144910  20.376  11.444   0.560
13087CHOL    R244911  20.405  11.292   0.385
13087CHOL    R344912  20.514  11.460   0.445
13087CHOL    R444913  20.512  11.305   0.295
13087CHOL    R544914  20.636  11.474   0.342
13087CHOL    C144915  20.819  11.496   0.189
13087CHOL    C244916  21.003  11.518   0.036
13088CHOL   ROH44917   1.384   1.265   2.850
13088CHOL    R144918   1.294   1.167   2.762
13088CHOL    R244919   1.336   0.937   2.756
13088CHOL    R344920   1.192   1.056   2.663
13088CHOL    R444921   1.257   0.852   2.679
13088CHOL    R544922   1.102   0.958   2.575
13088CHOL    C144923   0.967   0.811   2.442
13088CHOL    C244924   0.831   0.663   2.310
13089CHOL   ROH44925  -2.744  15.734   7.615
13089CHOL    R144926  -2.888  15.795   7.581
13089CHOL    R244927  -2.929  16.024   7.600
13089CHOL    R344928  -3.050  15.864   7.544
13089CHOL    R444929  -3.055  16.077   7.571
13089CHOL    R544930  -3.195  15.924   7.510
13089CHOL    C144931  -3.411  16.016   7.460
13089CHOL    C244932  -3.627  16.107   7.409
13090CHOL   ROH44933  -4.006   9.149  12.018
13090CHOL    R144934  -4.163   9.136  12.044
13090CHOL    R244935  -4.245   9.068  12.251
13090CHOL    R344936  -4.340   9.122  12.073
13090CHOL    R444937  -4.383   9.057  12.274
13090CHOL    R544938  -4.498   9.110  12.100
13090CHOL    C144939  -4.733   9.091  12.139
13090CHOL    C244940  -4.969   9.072  12.178
13091CHOL   ROH44941   7.404  -3.708   8.021
13091CHOL    R144942   7.379  -3.865   8.002
13091CHOL    R244943   7.556  -4.010   7.958
13091CHOL    R344944   7.351  -4.042   7.982
13091CHOL    R444945   7.534  -4.147   7.942
13091CHOL    R544946   7.326  -4.199   7.963
13091CHOL    C144947   7.289  -4.434   7.935
13091CHOL    C244948   7.251  -4.669   7.907
13092CHOL   ROH44949  10.604   9.554  23.993
13092CHOL    R144950  10.613   9.549  24.153
13092CHOL    R244951  10.622   9.744  24.279
13092CHOL    R344952  10.624   9.542  24.332
13092CHOL    R444953  10.630   9.740  24.419
13092CHOL    R544954  10.633   9.537  24.492
13092CHOL    C144955  10.647   9.529  24.732
13092CHOL    C244956  10.661   9.521  24.971
13093CHOL   ROH44957   5.737  23.108   6.737
13093CHOL    R144958   5.687  23.256   6.702
13093CHOL    R244959   5.629  23.406   6.872
13093CHOL    R344960   5.631  23.423   6.664
13093CHOL    R444961   5.586  23.535   6.841
13093CHOL    R544962   5.581  23.571   6.629
13093CHOL    C144963   5.506  23.793   6.577
13093CHOL    C244964   5.431  24.015   6.525
13094CHOL   ROH44965  23.561   8.060   7.756
13094CHOL    R144966  23.718   8.041   7.733
13094CHOL    R244967  23.860   8.225   7.718
13094CHOL    R344968  23.895   8.020   7.707
13094CHOL    R444969  23.998   8.208   7.698
13094CHOL    R544970  24.052   8.001   7.683
13094CHOL    C144971  24.288   7.972   7.649
13094CHOL    C244972  24.523   7.943   7.614
13095CHOL   ROH44973  -0.780  19.175   8.985
13095CHOL    R144974  -0.897  19.283   8.977
13095CHOL    R244975  -0.906  19.462   9.126
13095CHOL    R344976  -1.029  19.406   8.967
13095CHOL    R444977  -1.009  19.557   9.119
13095CHOL    R544978  -1.147  19.514   8.959
13095CHOL    C144979  -1.322  19.677   8.946
13095CHOL    C244980  -1.498  19.839   8.933
13096CHOL   ROH44981   4.964   6.903  22.773
13096CHOL    R144982   4.911   6.866  22.919
13096CHOL    R244983   4.891   6.644  22.987
13096CHOL    R344984   4.850   6.824  23.084
13096CHOL    R444985   4.845   6.611  23.115
13096CHOL    R544986   4.797   6.787  23.230
13096CHOL    C144987   4.717   6.732  23.449
13096CHOL    C244988   4.637   6.677  23.669
13097CHOL   ROH44989  12.225  23.665  12.038
13097CHOL    R144990  12.249  23.821  12.065
13097CHOL    R244991  12.434  23.931  11.973
13097CHOL    R344992  12.277  23.996  12.094
13097CHOL    R444993  12.455  24.067  11.996
13097CHOL    R544994  12.302  24.152  12.121
13097CHOL    C144995  12.338  24.386  12.161
13097CHOL    C244996  12.375  24.620  12.201
13098CHOL   ROH44997  19.545  -0.217   9.875
13098CHOL    R144998  19.655  -0.333   9.875
13098CHOL    R244999  19.864  -0.300   9.974
13098CHOL    R345000  19.780  -0.463   9.874
13098CHOL    R445001  19.960  -0.402   9.974
13098CHOL    R545002  19.890  -0.579   9.874
13098CHOL    C145003  20.056  -0.753   9.873
13098CHOL    C245004  20.221  -0.927   9.872
13099CHOL   ROH45005  -1.230  11.025   1.358
13099CHOL    R145006  -1.352  11.030   1.255
13099CHOL    R245007  -1.479  10.840   1.209
13099CHOL    R345008  -1.490  11.036   1.139
13099CHOL    R445009  -1.586  10.844   1.119
13099CHOL    R545010  -1.612  11.041   1.036
13099CHOL    C145011  -1.795  11.049   0.881
13099CHOL    C245012  -1.979  11.057   0.727
13100CHOL   ROH45013  18.525  20.931  11.689
13100CHOL    R145014  18.625  21.054  11.711
13100CHOL    R245015  18.840  21.052  11.620
13100CHOL    R345016  18.737  21.193  11.735
13100CHOL    R445017  18.927  21.160  11.639
13100CHOL    R545018  18.837  21.316  11.756
13100CHOL    C145019  18.987  21.501  11.789
13100CHOL    C245020  19.137  21.686  11.821
13101CHOL   ROH45021  14.788  23.088   9.459
13101CHOL    R145022  14.849  23.236   9.452
13101CHOL    R245023  14.988  23.300   9.276
13101CHOL    R345024  14.918  23.402   9.445
13101CHOL    R445025  15.042  23.429   9.271
13101CHOL    R545026  14.979  23.550   9.438
13101CHOL    C145027  15.071  23.771   9.428
13101CHOL    C245028  15.162  23.993   9.418
13102CHOL   ROH45029  12.046  22.801   4.760
13102CHOL    R145030  12.076  22.947   4.703
13102CHOL    R245031  12.293  23.033   4.701
13102CHOL    R345032  12.110  23.112   4.638
13102CHOL    R445033  12.319  23.161   4.650
13102CHOL    R545034  12.140  23.258   4.580
13102CHOL    C145035  12.185  23.477   4.494
13102CHOL    C245036  12.230  23.697   4.408
13103CHOL   ROH45037   3.057  15.978  -0.806
13103CHOL    R145038   2.980  16.042  -0.931
13103CHOL    R245039   2.853  16.236  -0.907
13103CHOL    R345040   2.893  16.114  -1.071
13103CHOL    R445041   2.785  16.292  -1.016
13103CHOL    R545042   2.817  16.178  -1.196
13103CHOL    C145043   2.701  16.273  -1.383
13103CHOL    C245044   2.586  16.369  -1.570
13104CHOL   ROH45045  -3.808  13.361  10.261
13104CHOL    R145046  -3.963  13.402  10.263
13104CHOL    R245047  -4.118  13.278  10.386
13104CHOL    R345048  -4.137  13.447  10.266
13104CHOL    R445049  -4.253  13.313  10.388
13104CHOL    R545050  -4.292  13.488  10.268
13104CHOL    C145051  -4.524  13.549  10.271
13104CHOL    C245052  -4.756  13.610  10.275
13105CHOL   ROH45053   2.916  11.592  22.068
13105CHOL    R145054   2.837  11.615  22.206
13105CHOL    R245055   2.856  11.816  22.323
13105CHOL    R345056   2.749  11.641  22.360
13105CHOL    R445057   2.788  11.836  22.443
13105CHOL    R545058   2.671  11.664  22.498
13105CHOL    C145059   2.553  11.698  22.704
13105CHOL    C245060   2.435  11.732  22.911
13106CHOL   ROH45061   1.639  12.612  20.949
13106CHOL    R145062   1.545  12.646  21.074
13106CHOL    R245063   1.623  12.621  21.292
13106CHOL    R345064   1.439  12.684  21.215
13106CHOL    R445065   1.540  12.651  21.402
13106CHOL    R545066   1.346  12.718  21.339
13106CHOL    C145067   1.205  12.770  21.527
13106CHOL    C245068   1.064  12.821  21.714
13107CHOL   ROH45069  13.675   9.602  -3.615
13107CHOL    R145070  13.726   9.597  -3.767
13107CHOL    R245071  13.632   9.447  -3.919
13107CHOL    R345072  13.782   9.591  -3.937
13107CHOL    R445073  13.677   9.442  -4.052
13107CHOL    R545074  13.833   9.586  -4.089
13107CHOL    C145075  13.909   9.578  -4.317
13107CHOL    C245076  13.985   9.570  -4.544
13108CHOL   ROH45077  15.594  11.085  -2.830
13108CHOL    R145078  15.663  11.093  -2.974
13108CHOL    R245079  15.617  11.268  -3.121
13108CHOL    R345080  15.742  11.102  -3.136
13108CHOL    R445081  15.677  11.275  -3.247
13108CHOL    R545082  15.811  11.109  -3.280
13108CHOL    C145083  15.915  11.121  -3.496
13108CHOL    C245084  16.019  11.133  -3.712
13109CHOL   ROH45085  17.264  17.577   0.702
13109CHOL    R145086  17.349  17.664   0.598
13109CHOL    R245087  17.575  17.618   0.559
13109CHOL    R345088  17.445  17.762   0.482
13109CHOL    R445089  17.649  17.695   0.469
13109CHOL    R545090  17.530  17.850   0.378
13109CHOL    C145091  17.658  17.980   0.222
13109CHOL    C245092  17.785  18.111   0.067
13110CHOL   ROH45093  -2.920   4.390  11.354
13110CHOL    R145094  -3.066   4.328  11.372
13110CHOL    R245095  -3.117   4.189  11.552
13110CHOL    R345096  -3.231   4.258  11.392
13110CHOL    R445097  -3.245   4.135  11.568
13110CHOL    R545098  -3.378   4.196  11.409
13110CHOL    C145099  -3.597   4.104  11.436
13110CHOL    C245100  -3.817   4.011  11.463
13111CHOL   ROH45101  20.764   1.960   6.164
13111CHOL    R145102  20.889   1.868   6.124
13111CHOL    R245103  21.041   1.936   5.961
13111CHOL    R345104  21.030   1.765   6.080
13111CHOL    R445105  21.150   1.856   5.926
13111CHOL    R545106  21.155   1.673   6.041
13111CHOL    C145107  21.342   1.535   5.981
13111CHOL    C245108  21.529   1.397   5.922
13112CHOL   ROH45109  11.873   0.242   0.014
13112CHOL    R145110  11.898   0.132  -0.099
13112CHOL    R245111  12.030   0.179  -0.286
13112CHOL    R345112  11.926   0.008  -0.227
13112CHOL    R445113  12.051   0.083  -0.385
13112CHOL    R545114  11.950  -0.102  -0.340
13112CHOL    C145115  11.988  -0.267  -0.511
13112CHOL    C245116  12.025  -0.432  -0.681
13113CHOL   ROH45117  14.499  19.492   0.586
13113CHOL    R145118  14.555  19.600   0.482
13113CHOL    R245119  14.738  19.553   0.346
13113CHOL    R345120  14.618  19.723   0.366
13113CHOL    R445121  14.787  19.648   0.256
13113CHOL    R545122  14.674  19.831   0.263
13113CHOL    C145123  14.757  19.994   0.107
13113CHOL    C245124  14.841  20.156  -0.048
13114CHOL   ROH45125  16.567  18.786  18.663
13114CHOL    R145126  16.646  18.887  18.759
13114CHOL    R245127  16.877  18.909  18.746
13114CHOL    R345128  16.734  19.001  18.867
13114CHOL    R445129  16.946  18.998  18.830
13114CHOL    R545130  16.812  19.102  18.963
13114CHOL    C145131  16.930  19.254  19.107
13114CHOL    C245132  17.048  19.405  19.251
13115CHOL   ROH45133   5.313  -2.802   6.264
13115CHOL    R145134   5.265  -2.948   6.220
13115CHOL    R245135   5.369  -3.062   6.045
13115CHOL    R345136   5.210  -3.113   6.172
13115CHOL    R445137   5.327  -3.190   6.007
13115CHOL    R545138   5.162  -3.259   6.128
13115CHOL    C145139   5.090  -3.478   6.063
13115CHOL    C245140   5.017  -3.698   5.997
13116CHOL   ROH45141  16.799   3.263  -0.299
13116CHOL    R145142  16.885   3.189  -0.412
13116CHOL    R245143  16.895   3.273  -0.629
13116CHOL    R345144  16.981   3.106  -0.539
13116CHOL    R445145  16.970   3.208  -0.728
13116CHOL    R545146  17.066   3.031  -0.653
13116CHOL    C145147  17.195   2.920  -0.822
13116CHOL    C245148  17.323   2.809  -0.992
13117CHOL   ROH45149  -3.815   6.946  10.712
13117CHOL    R145150  -3.970   6.909  10.724
13117CHOL    R245151  -4.038   6.707  10.819
13117CHOL    R345152  -4.145   6.867  10.738
13117CHOL    R445153  -4.174   6.675  10.830
13117CHOL    R545154  -4.300   6.830  10.751
13117CHOL    C145155  -4.533   6.775  10.769
13117CHOL    C245156  -4.766   6.720  10.787
13118CHOL   ROH45157  -0.740  18.518   6.244
13118CHOL    R145158  -0.858  18.615   6.198
13118CHOL    R245159  -1.003  18.710   6.355
13118CHOL    R345160  -0.992  18.725   6.147
13118CHOL    R445161  -1.106  18.795   6.315
13118CHOL    R545162  -1.110  18.823   6.101
13118CHOL    C145163  -1.288  18.969   6.033
13118CHOL    C245164  -1.465  19.115   5.965
13119CHOL   ROH45165  19.532   8.352  -0.152
13119CHOL    R145166  19.642   8.337  -0.267
13119CHOL    R245167  19.667   8.501  -0.431
13119CHOL    R345168  19.767   8.321  -0.396
13119CHOL    R445169  19.763   8.488  -0.532
13119CHOL    R545170  19.877   8.307  -0.511
13119CHOL    C145171  20.043   8.285  -0.683
13119CHOL    C245172  20.208   8.263  -0.856
13120CHOL   ROH45173   8.524  23.246   5.337
13120CHOL    R145174   8.510  23.397   5.287
13120CHOL    R245175   8.617  23.469   5.092
13120CHOL    R345176   8.495  23.567   5.230
13120CHOL    R445177   8.605  23.602   5.049
13120CHOL    R545178   8.481  23.719   5.180
13120CHOL    C145179   8.460  23.945   5.105
13120CHOL    C245180   8.440  24.172   5.029
13121CHOL   ROH45181   1.241   1.455   2.789
13121CHOL    R145182   1.149   1.359   2.700
13121CHOL    R245183   1.186   1.129   2.694
13121CHOL    R345184   1.045   1.251   2.600
13121CHOL    R445185   1.105   1.045   2.616
13121CHOL    R545186   0.953   1.155   2.511
13121CHOL    C145187   0.815   1.011   2.378
13121CHOL    C245188   0.677   0.867   2.244
13122CHOL   ROH45189   3.460   5.442  21.570
13122CHOL    R145190   3.379   5.388  21.697
13122CHOL    R245191   3.427   5.180  21.791
13122CHOL    R345192   3.288   5.328  21.840
13122CHOL    R445193   3.356   5.133  21.902
13122CHOL    R545194   3.207   5.274  21.968
13122CHOL    C145195   3.086   5.193  22.158
13122CHOL    C245196   2.964   5.113  22.349
13123CHOL   ROH45197   0.549  15.961   1.198
13123CHOL    R145198   0.444  16.030   1.099
13123CHOL    R245199   0.483  16.242   1.010
13123CHOL    R345200   0.325  16.107   0.988
13123CHOL    R445201   0.391  16.302   0.924
13123CHOL    R545202   0.219  16.176   0.890
13123CHOL    C145203   0.061  16.279   0.741
13123CHOL    C245204  -0.097  16.382   0.593
13124CHOL   ROH45205  17.545  21.395   6.979
13124CHOL    R145206  17.626  21.531   6.953
13124CHOL    R245207  17.792  21.601   7.101
13124CHOL    R345208  17.717  21.683   6.925
13124CHOL    R445209  17.863  21.719   7.079
13124CHOL    R545210  17.799  21.819   6.899
13124CHOL    C145211  17.920  22.022   6.861
13124CHOL    C245212  18.042  22.225   6.822
13125CHOL   ROH45213   3.013   4.244  20.702
13125CHOL    R145214   2.927   4.182  20.822
13125CHOL    R245215   3.032   4.094  21.011
13125CHOL    R345216   2.831   4.112  20.957
13125CHOL    R445217   2.957   4.040  21.116
13125CHOL    R545218   2.745   4.050  21.077
13125CHOL    C145219   2.616   3.957  21.257
13125CHOL    C245220   2.488   3.864  21.437
13126CHOL   ROH45221   9.596  -1.658   2.083
13126CHOL    R145222   9.591  -1.791   1.994
13126CHOL    R245223   9.739  -1.967   2.033
13126CHOL    R345224   9.586  -1.941   1.894
13126CHOL    R445225   9.735  -2.083   1.955
13126CHOL    R545226   9.581  -2.073   1.805
13126CHOL    C145227   9.574  -2.273   1.672
13126CHOL    C245228   9.567  -2.472   1.538
13127CHOL   ROH45229  13.910  -0.535  18.272
13127CHOL    R145230  13.952  -0.653  18.372
13127CHOL    R245231  13.976  -0.872  18.296
13127CHOL    R345232  13.998  -0.785  18.484
13127CHOL    R445233  14.012  -0.975  18.383
13127CHOL    R545234  14.040  -0.903  18.584
13127CHOL    C145235  14.102  -1.080  18.734
13127CHOL    C245236  14.165  -1.256  18.884
13128CHOL   ROH45237  16.176  -0.884  16.306
13128CHOL    R145238  16.249  -1.007  16.378
13128CHOL    R245239  16.443  -1.100  16.288
13128CHOL    R345240  16.331  -1.146  16.458
13128CHOL    R445241  16.507  -1.208  16.351
13128CHOL    R545242  16.403  -1.269  16.530
13128CHOL    C145243  16.513  -1.454  16.637
13128CHOL    C245244  16.622  -1.639  16.744
13129CHOL   ROH45245   8.095  23.125   5.125
13129CHOL    R145246   8.075  23.274   5.071
13129CHOL    R245247   8.163  23.341   4.866
13129CHOL    R345248   8.052  23.443   5.011
13129CHOL    R445249   8.145  23.472   4.819
13129CHOL    R545250   8.032  23.592   4.958
13129CHOL    C145251   8.002  23.816   4.877
13129CHOL    C245252   7.972  24.040   4.797
13130CHOL   ROH45253   7.220  23.678  12.003
13130CHOL    R145254   7.191  23.834  12.026
13130CHOL    R245255   7.290  23.949  12.203
13130CHOL    R345256   7.159  24.009  12.052
13130CHOL    R445257   7.265  24.085  12.223
13130CHOL    R545258   7.130  24.164  12.075
13130CHOL    C145259   7.088  24.398  12.110
13130CHOL    C245260   7.045  24.632  12.144
13131CHOL   ROH45261  -1.200  18.716   9.626
13131CHOL    R145262  -1.324  18.817   9.626
13131CHOL    R245263  -1.354  18.968   9.802
13131CHOL    R345264  -1.463  18.932   9.627
13131CHOL    R445265  -1.462  19.057   9.802
13131CHOL    R545266  -1.587  19.033   9.628
13131CHOL    C145267  -1.772  19.185   9.628
13131CHOL    C245268  -1.958  19.337   9.629
13132CHOL   ROH45269   3.091  22.128   8.577
13132CHOL    R145270   3.008  22.263   8.558
13132CHOL    R245271   3.108  22.471   8.590
13132CHOL    R345272   2.914  22.415   8.537
13132CHOL    R445273   3.035  22.590   8.574
13132CHOL    R545274   2.830  22.550   8.518
13132CHOL    C145275   2.705  22.753   8.490
13132CHOL    C245276   2.580  22.956   8.462
13133CHOL   ROH45277   8.682  20.049   0.269
13133CHOL    R145278   8.667  20.165   0.160
13133CHOL    R245279   8.807  20.352   0.165
13133CHOL    R345280   8.651  20.297   0.038
13133CHOL    R445281   8.794  20.454   0.070
13133CHOL    R545282   8.637  20.413  -0.071
13133CHOL    C145283   8.615  20.588  -0.234
13133CHOL    C245284   8.593  20.762  -0.397
13134CHOL   ROH45285  -1.201  12.741  18.174
13134CHOL    R145286  -1.327  12.765  18.270
13134CHOL    R245287  -1.326  12.691  18.491
13134CHOL    R345288  -1.469  12.793  18.377
13134CHOL    R445289  -1.436  12.712  18.574
13134CHOL    R545290  -1.595  12.818  18.472
13134CHOL    C145291  -1.783  12.854  18.616
13134CHOL    C245292  -1.972  12.891  18.759
13135CHOL   ROH45293  -4.074  12.079  10.600
13135CHOL    R145294  -4.232  12.103  10.606
13135CHOL    R245295  -4.331  12.202  10.793
13135CHOL    R345296  -4.410  12.130  10.613
13135CHOL    R445297  -4.470  12.223  10.798
13135CHOL    R545298  -4.568  12.154  10.620
13135CHOL    C145299  -4.805  12.190  10.629
13135CHOL    C245300  -5.042  12.226  10.638
13136CHOL   ROH45301   1.791   7.296  -1.270
13136CHOL    R145302   1.697   7.269  -1.397
13136CHOL    R245303   1.472   7.216  -1.370
13136CHOL    R345304   1.592   7.239  -1.540
13136CHOL    R445305   1.390   7.193  -1.481
13136CHOL    R545306   1.499   7.212  -1.667
13136CHOL    C145307   1.358   7.171  -1.857
13136CHOL    C245308   1.218   7.130  -2.047
13137CHOL   ROH45309   0.349   3.383  17.860
13137CHOL    R145310   0.243   3.309  17.954
13137CHOL    R245311   0.305   3.122  18.080
13137CHOL    R345312   0.125   3.225  18.061
13137CHOL    R445313   0.213   3.057  18.163
13137CHOL    R545314   0.019   3.151  18.155
13137CHOL    C145315  -0.139   3.039  18.297
13137CHOL    C245316  -0.298   2.927  18.438
13138CHOL   ROH45317  -2.094   8.434   2.712
13138CHOL    R145318  -2.231   8.416   2.631
13138CHOL    R245319  -2.325   8.205   2.598
13138CHOL    R345320  -2.384   8.396   2.539
13138CHOL    R445321  -2.444   8.190   2.527
13138CHOL    R545322  -2.521   8.378   2.458
13138CHOL    C145323  -2.726   8.352   2.335
13138CHOL    C245324  -2.931   8.325   2.213
13139CHOL   ROH45325  18.168  -1.335   8.990
13139CHOL    R145326  18.260  -1.465   8.980
13139CHOL    R245327  18.275  -1.587   8.782
13139CHOL    R345328  18.364  -1.612   8.969
13139CHOL    R445329  18.356  -1.701   8.773
13139CHOL    R545330  18.457  -1.742   8.959
13139CHOL    C145331  18.595  -1.937   8.944
13139CHOL    C245332  18.733  -2.133   8.929
13140CHOL   ROH45333  20.445  10.971  19.119
13140CHOL    R145334  20.562  10.984  19.227
13140CHOL    R245335  20.743  11.127  19.191
13140CHOL    R345336  20.694  10.999  19.348
13140CHOL    R445337  20.846  11.138  19.285
13140CHOL    R545338  20.812  11.012  19.456
13140CHOL    C145339  20.987  11.032  19.618
13140CHOL    C245340  21.163  11.051  19.780
13141CHOL   ROH45341   7.831  -1.572  17.680
13141CHOL    R145342   7.809  -1.704  17.768
13141CHOL    R245343   7.923  -1.901  17.719
13141CHOL    R345344   7.784  -1.853  17.866
13141CHOL    R445345   7.904  -2.017  17.795
13141CHOL    R545346   7.761  -1.985  17.954
13141CHOL    C145347   7.728  -2.183  18.086
13141CHOL    C245348   7.695  -2.381  18.217
13142CHOL   ROH45349   8.586  23.971  10.069
13142CHOL    R145350   8.575  24.131  10.069
13142CHOL    R245351   8.752  24.263   9.995
13142CHOL    R345352   8.563  24.310  10.070
13142CHOL    R445353   8.743  24.403   9.995
13142CHOL    R545354   8.553  24.470  10.070
13142CHOL    C145355   8.536  24.710  10.070
13142CHOL    C245356   8.520  24.949  10.071
13143CHOL   ROH45357   6.117   9.027  23.428
13143CHOL    R145358   6.078   9.024  23.583
13143CHOL    R245359   6.242   9.031  23.749
13143CHOL    R345360   6.033   9.020  23.757
13143CHOL    R445361   6.207   9.029  23.884
13143CHOL    R545362   5.994   9.017  23.913
13143CHOL    C145363   5.935   9.012  24.145
13143CHOL    C245364   5.876   9.007  24.378
13144CHOL   ROH45365  18.849  20.622  11.866
13144CHOL    R145366  18.953  20.740  11.893
13144CHOL    R245367  19.173  20.727  11.815
13144CHOL    R345368  19.071  20.873  11.923
13144CHOL    R445369  19.264  20.830  11.839
13144CHOL    R545370  19.175  20.991  11.950
13144CHOL    C145371  19.331  21.169  11.990
13144CHOL    C245372  19.488  21.346  12.031
13145CHOL   ROH45373  -4.009  12.451   9.745
13145CHOL    R145374  -4.166  12.481   9.738
13145CHOL    R245375  -4.322  12.321   9.807
13145CHOL    R345376  -4.343  12.515   9.731
13145CHOL    R445377  -4.459  12.348   9.801
13145CHOL    R545378  -4.500  12.545   9.724
13145CHOL    C145379  -4.736  12.589   9.715
13145CHOL    C245380  -4.971  12.634   9.705
13146CHOL   ROH45381  18.379  -1.207   9.448
13146CHOL    R145382  18.474  -1.335   9.444
13146CHOL    R245383  18.657  -1.353   9.587
13146CHOL    R345384  18.581  -1.480   9.440
13146CHOL    R445385  18.741  -1.466   9.584
13146CHOL    R545386  18.677  -1.609   9.436
13146CHOL    C145387  18.819  -1.801   9.430
13146CHOL    C245388  18.962  -1.994   9.424
13147CHOL   ROH45389   7.599  -3.471   6.572
13147CHOL    R145390   7.573  -3.624   6.533
13147CHOL    R245391   7.730  -3.745   6.410
13147CHOL    R345392   7.544  -3.796   6.489
13147CHOL    R445393   7.707  -3.879   6.376
13147CHOL    R545394   7.518  -3.949   6.450
13147CHOL    C145395   7.478  -4.178   6.391
13147CHOL    C245396   7.439  -4.408   6.332
13148CHOL   ROH45397   3.516   1.213  18.919
13148CHOL    R145398   3.442   1.114  19.021
13148CHOL    R245399   3.488   1.120  19.249
13148CHOL    R345400   3.358   1.003  19.135
13148CHOL    R445401   3.423   1.034  19.338
13148CHOL    R545402   3.284   0.905  19.237
13148CHOL    C145403   3.172   0.756  19.389
13148CHOL    C245404   3.060   0.608  19.541
13149CHOL   ROH45405  -2.215   5.062  15.259
13149CHOL    R145406  -2.353   5.002  15.312
13149CHOL    R245407  -2.395   4.772  15.304
13149CHOL    R345408  -2.509   4.933  15.371
13149CHOL    R445409  -2.516   4.719  15.350
13149CHOL    R545410  -2.648   4.873  15.424
13149CHOL    C145411  -2.855   4.782  15.503
13149CHOL    C245412  -3.063   4.692  15.582
13150CHOL   ROH45413  10.987  22.079  17.046
13150CHOL    R145414  11.006  22.215  17.129
13150CHOL    R245415  11.155  22.379  17.056
13150CHOL    R345416  11.028  22.367  17.221
13150CHOL    R445417  11.172  22.498  17.129
13150CHOL    R545418  11.047  22.503  17.304
13150CHOL    C145419  11.076  22.707  17.428
13150CHOL    C245420  11.105  22.910  17.552
13151CHOL   ROH45421   3.096  20.903   4.446
13151CHOL    R145422   3.016  21.027   4.385
13151CHOL    R245423   3.122  21.231   4.345
13151CHOL    R345424   2.925  21.167   4.317
13151CHOL    R445425   3.052  21.340   4.292
13151CHOL    R545426   2.845  21.291   4.257
13151CHOL    C145427   2.725  21.478   4.166
13151CHOL    C245428   2.604  21.664   4.075
13152CHOL   ROH45429  -2.348   8.261  16.715
13152CHOL    R145430  -2.488   8.248  16.792
13152CHOL    R245431  -2.566   8.040  16.864
13152CHOL    R345432  -2.645   8.233  16.878
13152CHOL    R445433  -2.689   8.029  16.931
13152CHOL    R545434  -2.785   8.220  16.954
13152CHOL    C145435  -2.995   8.200  17.069
13152CHOL    C245436  -3.205   8.181  17.184
13153CHOL   ROH45437   1.713  -1.449   9.154
13153CHOL    R145438   1.618  -1.578   9.149
13153CHOL    R245439   1.709  -1.792   9.128
13153CHOL    R345440   1.512  -1.723   9.143
13153CHOL    R445441   1.626  -1.905   9.123
13153CHOL    R545442   1.418  -1.852   9.139
13153CHOL    C145443   1.276  -2.045   9.131
13153CHOL    C245444   1.134  -2.239   9.124
13154CHOL   ROH45445  14.360  -3.336   9.871
13154CHOL    R145446  14.416  -3.486   9.868
13154CHOL    R245447  14.643  -3.528   9.836
13154CHOL    R345448  14.479  -3.654   9.864
13154CHOL    R445449  14.692  -3.659   9.833
13154CHOL    R545450  14.536  -3.804   9.860
13154CHOL    C145451  14.620  -4.029   9.855
13154CHOL    C245452  14.704  -4.253   9.850
13155CHOL   ROH45453  16.672  20.067   3.007
13155CHOL    R145454  16.754  20.177   2.925
13155CHOL    R245455  16.806  20.145   2.700
13155CHOL    R345456  16.846  20.301   2.833
13155CHOL    R445457  16.878  20.242   2.628
13155CHOL    R545458  16.929  20.411   2.750
13155CHOL    C145459  17.052  20.577   2.627
13155CHOL    C245460  17.175  20.742   2.504
13156CHOL   ROH45461  -2.144  16.495   6.657
13156CHOL    R145462  -2.283  16.561   6.614
13156CHOL    R245463  -2.414  16.676   6.768
13156CHOL    R345464  -2.440  16.635   6.565
13156CHOL    R445465  -2.536  16.734   6.731
13156CHOL    R545466  -2.579  16.701   6.522
13156CHOL    C145467  -2.788  16.800   6.457
13156CHOL    C245468  -2.997  16.899   6.392
13157CHOL   ROH45469  11.002  10.313  23.969
13157CHOL    R145470  11.016  10.316  24.128
13157CHOL    R245471  11.225  10.340  24.230
13157CHOL    R345472  11.032  10.319  24.308
13157CHOL    R445473  11.237  10.343  24.369
13157CHOL    R545474  11.047  10.323  24.467
13157CHOL    C145475  11.068  10.327  24.706
13157CHOL    C245476  11.089  10.332  24.945
13158CHOL   ROH45477  20.161   4.054   2.494
13158CHOL    R145478  20.275   3.986   2.405
13158CHOL    R245479  20.443   4.113   2.306
13158CHOL    R345480  20.402   3.908   2.304
13158CHOL    R445481  20.543   4.053   2.228
13158CHOL    R545482  20.516   3.840   2.214
13158CHOL    C145483  20.686   3.737   2.080
13158CHOL    C245484  20.857   3.635   1.946
13159CHOL   ROH45485  10.402   4.832  -3.090
13159CHOL    R145486  10.405   4.777  -3.240
13159CHOL    R245487  10.492   4.566  -3.289
13159CHOL    R345488  10.407   4.715  -3.409
13159CHOL    R445489  10.494   4.518  -3.420
13159CHOL    R545490  10.410   4.659  -3.559
13159CHOL    C145491  10.414   4.577  -3.784
13159CHOL    C245492  10.418   4.494  -4.009
13160CHOL   ROH45493  12.499  17.557  21.467
13160CHOL    R145494  12.528  17.640  21.601
13160CHOL    R245495  12.745  17.659  21.685
13160CHOL    R345496  12.561  17.732  21.752
13160CHOL    R445497  12.771  17.732  21.802
13160CHOL    R545498  12.591  17.815  21.885
13160CHOL    C145499  12.634  17.939  22.086
13160CHOL    C245500  12.678  18.063  22.287
13161CHOL   ROH45501  11.917   3.976  -2.609
13161CHOL    R145502  11.939   3.906  -2.751
13161CHOL    R245503  12.151   3.891  -2.846
13161CHOL    R345504  11.963   3.828  -2.912
13161CHOL    R445505  12.170   3.830  -2.971
13161CHOL    R545506  11.985   3.758  -3.054
13161CHOL    C145507  12.018   3.654  -3.268
13161CHOL    C245508  12.050   3.550  -3.481
13162CHOL   ROH45509   1.523  19.949  15.325
13162CHOL    R145510   1.428  20.063  15.385
13162CHOL    R245511   1.447  20.130  15.607
13162CHOL    R345512   1.322  20.192  15.452
13162CHOL    R445513   1.364  20.230  15.660
13162CHOL    R545514   1.227  20.307  15.511
13162CHOL    C145515   1.086  20.478  15.601
13162CHOL    C245516   0.944  20.650  15.691
13163CHOL   ROH45517  17.309  18.801  17.969
13163CHOL    R145518  17.396  18.905  18.054
13163CHOL    R245519  17.626  18.924  18.021
13163CHOL    R345520  17.494  19.021  18.151
13163CHOL    R445521  17.702  19.015  18.096
13163CHOL    R545522  17.581  19.125  18.236
13163CHOL    C145523  17.711  19.281  18.364
13163CHOL    C245524  17.841  19.436  18.492
13164CHOL   ROH45525   7.455   2.837  -2.000
13164CHOL    R145526   7.430   2.756  -2.136
13164CHOL    R245527   7.567   2.576  -2.195
13164CHOL    R345528   7.403   2.665  -2.288
13164CHOL    R445529   7.545   2.505  -2.313
13164CHOL    R545530   7.378   2.584  -2.424
13164CHOL    C145531   7.341   2.463  -2.628
13164CHOL    C245532   7.304   2.341  -2.831
13165CHOL   ROH45533  20.080  11.430   0.456
13165CHOL    R145534  20.201  11.445   0.352
13165CHOL    R245535  20.300  11.257   0.256
13165CHOL    R345536  20.336  11.461   0.235
13165CHOL    R445537  20.405  11.270   0.164
13165CHOL    R545538  20.457  11.476   0.131
13165CHOL    C145539  20.638  11.498  -0.026
13165CHOL    C245540  20.819  11.520  -0.182
13166CHOL   ROH45541   7.167   3.075  -2.082
13166CHOL    R145542   7.139   2.997  -2.219
13166CHOL    R245543   7.285   2.833  -2.296
13166CHOL    R345544   7.108   2.910  -2.373
13166CHOL    R445545   7.261   2.765  -2.416
13166CHOL    R545546   7.080   2.833  -2.510
13166CHOL    C145547   7.038   2.716  -2.716
13166CHOL    C245548   6.996   2.600  -2.922
13167CHOL   ROH45549  17.098  -0.384   3.804
13167CHOL    R145550  17.177  -0.505   3.734
13167CHOL    R245551  17.401  -0.545   3.782
13167CHOL    R345552  17.265  -0.640   3.656
13167CHOL    R445553  17.470  -0.650   3.721
13167CHOL    R545554  17.344  -0.761   3.587
13167CHOL    C145555  17.462  -0.942   3.482
13167CHOL    C245556  17.580  -1.123   3.378
13168CHOL   ROH45557  -0.032  13.207   0.439
13168CHOL    R145558  -0.139  13.239   0.325
13168CHOL    R245559  -0.367  13.207   0.362
13168CHOL    R345560  -0.260  13.276   0.197
13168CHOL    R445561  -0.461  13.236   0.262
13168CHOL    R545562  -0.368  13.308   0.082
13168CHOL    C145563  -0.529  13.357  -0.089
13168CHOL    C245564  -0.690  13.406  -0.260
13169CHOL   ROH45565   6.086   0.236   0.555
13169CHOL    R145566   6.043   0.125   0.447
13169CHOL    R245567   6.019  -0.098   0.508
13169CHOL    R345568   5.995   0.001   0.327
13169CHOL    R445569   5.982  -0.195   0.414
13169CHOL    R545570   5.953  -0.110   0.219
13169CHOL    C145571   5.888  -0.275   0.058
13169CHOL    C245572   5.824  -0.441  -0.104
13170CHOL   ROH45573  16.817  13.155  21.651
13170CHOL    R145574  16.908  13.194  21.777
13170CHOL    R245575  17.141  13.195  21.761
13170CHOL    R345576  17.010  13.238  21.918
13170CHOL    R445577  17.220  13.229  21.871
13170CHOL    R545578  17.101  13.277  22.044
13170CHOL    C145579  17.237  13.336  22.233
13170CHOL    C245580  17.374  13.395  22.421
13171CHOL   ROH45581   7.177  19.472  19.855
13171CHOL    R145582   7.146  19.581  19.968
13171CHOL    R245583   7.313  19.725  20.045
13171CHOL    R345584   7.111  19.703  20.095
13171CHOL    R445585   7.286  19.820  20.144
13171CHOL    R545586   7.080  19.812  20.208
13171CHOL    C145587   7.033  19.975  20.378
13171CHOL    C245588   6.987  20.138  20.548
13172CHOL   ROH45589  10.400  17.575  -1.874
13172CHOL    R145590  10.408  17.663  -2.007
13172CHOL    R245591  10.605  17.774  -2.066
13172CHOL    R345592  10.417  17.763  -2.157
13172CHOL    R445593  10.612  17.851  -2.182
13172CHOL    R545594  10.425  17.852  -2.289
13172CHOL    C145595  10.437  17.984  -2.489
13172CHOL    C245596  10.449  18.117  -2.688
13173CHOL   ROH45597  -0.310  19.639  11.156
13173CHOL    R145598  -0.427  19.748  11.168
13173CHOL    R245599  -0.394  19.947  11.284
13173CHOL    R345600  -0.558  19.870  11.181
13173CHOL    R445601  -0.496  20.042  11.295
13173CHOL    R545602  -0.675  19.978  11.193
13173CHOL    C145603  -0.850  20.141  11.210
13173CHOL    C245604  -1.025  20.304  11.228
13174CHOL   ROH45605  16.485  22.032   7.212
13174CHOL    R145606  16.558  22.172   7.186
13174CHOL    R245607  16.753  22.183   7.057
13174CHOL    R345608  16.641  22.329   7.156
13174CHOL    R445609  16.817  22.305   7.034
13174CHOL    R545610  16.715  22.469   7.130
13174CHOL    C145611  16.825  22.678   7.091
13174CHOL    C245612  16.935  22.888   7.051
13175CHOL   ROH45613  -1.540  18.054  11.504
13175CHOL    R145614  -1.668  18.148  11.525
13175CHOL    R245615  -1.774  18.160  11.733
13175CHOL    R345616  -1.812  18.253  11.550
13175CHOL    R445617  -1.886  18.243  11.751
13175CHOL    R545618  -1.939  18.347  11.571
13175CHOL    C145619  -2.131  18.488  11.603
13175CHOL    C245620  -2.323  18.628  11.635
13176CHOL   ROH45621  -2.301  16.820  11.742
13176CHOL    R145622  -2.439  16.898  11.765
13176CHOL    R245623  -2.538  16.909  11.975
13176CHOL    R345624  -2.594  16.986  11.790
13176CHOL    R445625  -2.658  16.977  11.995
13176CHOL    R545626  -2.731  17.064  11.812
13176CHOL    C145627  -2.938  17.182  11.846
13176CHOL    C245628  -3.145  17.299  11.880
13177CHOL   ROH45629  17.958  -1.428  11.058
13177CHOL    R145630  18.049  -1.559  11.072
13177CHOL    R245631  18.114  -1.681  10.883
13177CHOL    R345632  18.151  -1.706  11.087
13177CHOL    R445633  18.193  -1.795  10.896
13177CHOL    R545634  18.242  -1.838  11.101
13177CHOL    C145635  18.378  -2.034  11.122
13177CHOL    C245636  18.515  -2.231  11.142
13178CHOL   ROH45637   5.013  -0.567  17.869
13178CHOL    R145638   4.959  -0.687  17.959
13178CHOL    R245639   5.096  -0.791  18.116
13178CHOL    R345640   4.897  -0.823  18.061
13178CHOL    R445641   5.049  -0.897  18.195
13178CHOL    R545642   4.843  -0.943  18.151
13178CHOL    C145643   4.761  -1.123  18.286
13178CHOL    C245644   4.680  -1.304  18.422
13179CHOL   ROH45645  -3.460   7.164  13.300
13179CHOL    R145646  -3.613   7.131  13.335
13179CHOL    R245647  -3.681   7.098  13.555
13179CHOL    R345648  -3.784   7.094  13.374
13179CHOL    R445649  -3.814   7.069  13.586
13179CHOL    R545650  -3.937   7.060  13.409
13179CHOL    C145651  -4.166   7.011  13.461
13179CHOL    C245652  -4.395   6.961  13.514
13180CHOL   ROH45653   6.326  21.012  17.893
13180CHOL    R145654   6.285  21.133  17.989
13180CHOL    R245655   6.400  21.335  17.985
13180CHOL    R345656   6.238  21.269  18.098
13180CHOL    R445657   6.364  21.441  18.069
13180CHOL    R545658   6.196  21.389  18.195
13180CHOL    C145659   6.134  21.571  18.339
13180CHOL    C245660   6.072  21.752  18.484
13181CHOL   ROH45661  20.839   2.198  13.955
13181CHOL    R145662  20.963   2.106  13.997
13181CHOL    R245663  21.063   1.962  13.844
13181CHOL    R345664  21.101   2.002  14.045
13181CHOL    R445665  21.171   1.881  13.881
13181CHOL    R545666  21.225   1.909  14.087
13181CHOL    C145667  21.410   1.771  14.151
13181CHOL    C245668  21.596   1.633  14.215
13182CHOL   ROH45669  14.747  19.648  18.934
13182CHOL    R145670  14.800  19.762  19.034
13182CHOL    R245671  14.957  19.919  18.964
13182CHOL    R345672  14.859  19.889  19.146
13182CHOL    R445673  15.003  20.018  19.051
13182CHOL    R545674  14.911  20.003  19.246
13182CHOL    C145675  14.990  20.173  19.395
13182CHOL    C245676  15.069  20.344  19.545
13183CHOL   ROH45677  14.727  19.084  19.534
13183CHOL    R145678  14.780  19.189  19.643
13183CHOL    R245679  14.989  19.289  19.620
13183CHOL    R345680  14.840  19.306  19.765
13183CHOL    R445681  15.036  19.381  19.716
13183CHOL    R545682  14.893  19.411  19.874
13183CHOL    C145683  14.973  19.568  20.037
13183CHOL    C245684  15.052  19.725  20.200
13184CHOL   ROH45685   1.044   1.966  17.382
13184CHOL    R145686   0.944   1.877  17.470
13184CHOL    R245687   1.017   1.682  17.574
13184CHOL    R345688   0.831   1.778  17.569
13184CHOL    R445689   0.929   1.605  17.651
13184CHOL    R545690   0.731   1.689  17.656
13184CHOL    C145691   0.581   1.556  17.788
13184CHOL    C245692   0.431   1.423  17.920
13185CHOL   ROH45693  21.816  17.342   9.966
13185CHOL    R145694  21.952  17.425   9.963
13185CHOL    R245695  22.157  17.322  10.007
13185CHOL    R345696  22.106  17.519   9.960
13185CHOL    R445697  22.276  17.395  10.005
13185CHOL    R545698  22.242  17.603   9.957
13185CHOL    C145699  22.447  17.728   9.953
13185CHOL    C245700  22.652  17.853   9.948
13186CHOL   ROH45701  -1.803  13.248  17.135
13186CHOL    R145702  -1.936  13.282  17.217
13186CHOL    R245703  -1.937  13.449  17.380
13186CHOL    R345704  -2.086  13.321  17.309
13186CHOL    R445705  -2.054  13.479  17.451
13186CHOL    R545706  -2.219  13.355  17.390
13186CHOL    C145707  -2.419  13.407  17.513
13186CHOL    C245708  -2.618  13.459  17.636
13187CHOL   ROH45709   6.568   2.431  21.361
13187CHOL    R145710   6.537   2.348  21.494
13187CHOL    R245711   6.666   2.163  21.553
13187CHOL    R345712   6.502   2.254  21.644
13187CHOL    R445713   6.639   2.090  21.669
13187CHOL    R545714   6.471   2.171  21.777
13187CHOL    C145715   6.424   2.046  21.977
13187CHOL    C245716   6.378   1.921  22.176
13188CHOL   ROH45717   9.543  -3.014   4.603
13188CHOL    R145718   9.535  -3.161   4.541
13188CHOL    R245719   9.722  -3.300   4.537
13188CHOL    R345720   9.526  -3.327   4.471
13188CHOL    R445721   9.715  -3.429   4.483
13188CHOL    R545722   9.518  -3.474   4.409
13188CHOL    C145723   9.505  -3.695   4.316
13188CHOL    C245724   9.493  -3.916   4.223
13189CHOL   ROH45725  21.904  17.176   9.649
13189CHOL    R145726  22.042  17.257   9.642
13189CHOL    R245727  22.055  17.460   9.528
13189CHOL    R345728  22.196  17.349   9.634
13189CHOL    R445729  22.176  17.532   9.522
13189CHOL    R545730  22.334  17.431   9.627
13189CHOL    C145731  22.540  17.553   9.617
13189CHOL    C245732  22.747  17.675   9.607
13190CHOL   ROH45733  -0.633   3.791   2.764
13190CHOL    R145734  -0.749   3.720   2.679
13190CHOL    R245735  -0.754   3.488   2.654
13190CHOL    R345736  -0.878   3.639   2.584
13190CHOL    R445737  -0.855   3.425   2.580
13190CHOL    R545738  -0.994   3.568   2.499
13190CHOL    C145739  -1.167   3.461   2.372
13190CHOL    C245740  -1.341   3.354   2.245
13191CHOL   ROH45741  22.615  15.706  11.394
13191CHOL    R145742  22.760  15.771  11.410
13191CHOL    R245743  22.942  15.643  11.480
13191CHOL    R345744  22.923  15.845  11.429
13191CHOL    R445745  23.069  15.700  11.494
13191CHOL    R545746  23.069  15.910  11.445
13191CHOL    C145747  23.286  16.008  11.470
13191CHOL    C245748  23.504  16.106  11.495
13192CHOL   ROH45749  18.094   6.043  -0.729
13192CHOL    R145750  18.188   5.996  -0.849
13192CHOL    R245751  18.390   6.103  -0.893
13192CHOL    R345752  18.294   5.942  -0.985
13192CHOL    R445753  18.473   6.062  -0.999
13192CHOL    R545754  18.388   5.895  -1.106
13192CHOL    C145755  18.529   5.824  -1.286
13192CHOL    C245756  18.670   5.753  -1.467
13193CHOL   ROH45757   9.835   8.170  23.880
13193CHOL    R145758   9.831   8.150  24.039
13193CHOL    R245759   9.977   8.265  24.179
13193CHOL    R345760   9.825   8.126  24.217
13193CHOL    R445761   9.973   8.247  24.317
13193CHOL    R545762   9.821   8.106  24.375
13193CHOL    C145763   9.814   8.075  24.613
13193CHOL    C245764   9.808   8.045  24.851
13194CHOL   ROH45765   5.995  -1.578  16.965
13194CHOL    R145766   5.951  -1.709  17.046
13194CHOL    R245767   6.020  -1.742  17.266
13194CHOL    R345768   5.901  -1.856  17.137
13194CHOL    R445769   5.981  -1.857  17.337
13194CHOL    R545770   5.857  -1.986  17.218
13194CHOL    C145771   5.791  -2.183  17.340
13194CHOL    C245772   5.725  -2.379  17.462
13195CHOL   ROH45773   2.281   9.310  -1.836
13195CHOL    R145774   2.191   9.307  -1.968
13195CHOL    R245775   1.964   9.361  -1.960
13195CHOL    R345776   2.090   9.304  -2.117
13195CHOL    R445777   1.886   9.359  -2.076
13195CHOL    R545778   2.000   9.302  -2.249
13195CHOL    C145779   1.865   9.297  -2.448
13195CHOL    C245780   1.730   9.293  -2.646
13196CHOL   ROH45781  15.998  21.672   5.084
13196CHOL    R145782  16.062  21.808   5.029
13196CHOL    R245783  16.287  21.858   5.067
13196CHOL    R345784  16.135  21.960   4.967
13196CHOL    R445785  16.343  21.977   5.019
13196CHOL    R545786  16.199  22.096   4.912
13196CHOL    C145787  16.295  22.300   4.829
13196CHOL    C245788  16.392  22.503   4.746
13197CHOL   ROH45789  10.891  22.093   2.858
13197CHOL    R145790  10.905  22.230   2.778
13197CHOL    R245791  11.035  22.243   2.584
13197CHOL    R345792  10.922  22.385   2.687
13197CHOL    R445793  11.047  22.363   2.514
13197CHOL    R545794  10.936  22.523   2.606
13197CHOL    C145795  10.958  22.729   2.486
13197CHOL    C245796  10.979  22.935   2.365
13198CHOL   ROH45797  20.524   9.118  19.027
13198CHOL    R145798  20.647   9.105  19.129
13198CHOL    R245799  20.856   9.193  19.076
13198CHOL    R345800  20.785   9.090  19.243
13198CHOL    R445801  20.964   9.181  19.165
13198CHOL    R545802  20.907   9.077  19.345
13198CHOL    C145803  21.092   9.057  19.498
13198CHOL    C245804  21.276   9.038  19.650
13199CHOL   ROH45805  14.034  16.214  -1.943
13199CHOL    R145806  14.079  16.285  -2.079
13199CHOL    R245807  14.163  16.160  -2.257
13199CHOL    R345808  14.130  16.364  -2.233
13199CHOL    R445809  14.203  16.222  -2.377
13199CHOL    R545810  14.174  16.435  -2.369
13199CHOL    C145811  14.242  16.541  -2.573
13199CHOL    C245812  14.309  16.647  -2.778
13200CHOL   ROH45813  19.660   0.080  11.744
13200CHOL    R145814  19.772  -0.032  11.766
13200CHOL    R245815  19.950  -0.055  11.616
13200CHOL    R345816  19.899  -0.157  11.791
13200CHOL    R445817  20.048  -0.152  11.635
13200CHOL    R545818  20.011  -0.269  11.812
13200CHOL    C145819  20.180  -0.437  11.845
13200CHOL    C245820  20.349  -0.604  11.878
13201CHOL   ROH45821  22.114   5.581  15.237
13201CHOL    R145822  22.254   5.536  15.299
13201CHOL    R245823  22.420   5.693  15.346
13201CHOL    R345824  22.413   5.486  15.369
13201CHOL    R445825  22.543   5.654  15.401
13201CHOL    R545826  22.553   5.441  15.431
13201CHOL    C145827  22.764   5.375  15.524
13201CHOL    C245828  22.974   5.308  15.617
13202CHOL   ROH45829  -3.092   4.658   9.464
13202CHOL    R145830  -3.240   4.598   9.455
13202CHOL    R245831  -3.278   4.369   9.476
13202CHOL    R345832  -3.407   4.531   9.445
13202CHOL    R445833  -3.408   4.317   9.469
13202CHOL    R545834  -3.555   4.471   9.436
13202CHOL    C145835  -3.777   4.381   9.423
13202CHOL    C245836  -3.999   4.291   9.410
13203CHOL   ROH45837   6.174  -2.549  15.191
13203CHOL    R145838   6.132  -2.691  15.251
13203CHOL    R245839   6.162  -2.887  15.127
13203CHOL    R345840   6.085  -2.852  15.318
13203CHOL    R445841   6.125  -3.012  15.179
13203CHOL    R545842   6.043  -2.994  15.378
13203CHOL    C145843   5.981  -3.208  15.468
13203CHOL    C245844   5.918  -3.421  15.558
13204CHOL   ROH45845  -3.368  11.274  14.581
13204CHOL    R145846  -3.520  11.281  14.631
13204CHOL    R245847  -3.580  11.206  14.844
13204CHOL    R345848  -3.690  11.290  14.688
13204CHOL    R445849  -3.712  11.212  14.887
13204CHOL    R545850  -3.842  11.297  14.738
13204CHOL    C145851  -4.070  11.308  14.813
13204CHOL    C245852  -4.297  11.319  14.889
13205CHOL   ROH45853  -4.089  11.410   8.897
13205CHOL    R145854  -4.246  11.429   8.875
13205CHOL    R245855  -4.343  11.641   8.878
13205CHOL    R345856  -4.424  11.450   8.851
13205CHOL    R445857  -4.481  11.658   8.859
13205CHOL    R545858  -4.581  11.469   8.829
13205CHOL    C145859  -4.817  11.497   8.797
13205CHOL    C245860  -5.053  11.526   8.765
13206CHOL   ROH45861  -3.745  13.535  10.720
13206CHOL    R145862  -3.899  13.578  10.728
13206CHOL    R245863  -4.056  13.442  10.832
13206CHOL    R345864  -4.072  13.627  10.737
13206CHOL    R445865  -4.191  13.480  10.839
13206CHOL    R545866  -4.225  13.671  10.745
13206CHOL    C145867  -4.456  13.736  10.757
13206CHOL    C245868  -4.687  13.801  10.769
13207CHOL   ROH45869   2.396   4.291  20.268
13207CHOL    R145870   2.306   4.229  20.385
13207CHOL    R245871   2.388   4.212  20.603
13207CHOL    R345872   2.205   4.160  20.517
13207CHOL    R445873   2.309   4.158  20.705
13207CHOL    R545874   2.115   4.098  20.634
13207CHOL    C145875   1.980   4.005  20.810
13207CHOL    C245876   1.845   3.913  20.985
13208CHOL   ROH45877   8.440   2.807  21.900
13208CHOL    R145878   8.424   2.729  22.039
13208CHOL    R245879   8.567   2.772  22.218
13208CHOL    R345880   8.405   2.641  22.195
13208CHOL    R445881   8.552   2.704  22.340
13208CHOL    R545882   8.389   2.563  22.334
13208CHOL    C145883   8.365   2.447  22.542
13208CHOL    C245884   8.340   2.330  22.751
13209CHOL   ROH45885   2.316  14.135  -1.139
13209CHOL    R145886   2.230  14.180  -1.266
13209CHOL    R245887   2.006  14.241  -1.244
13209CHOL    R345888   2.133  14.230  -1.409
13209CHOL    R445889   1.930  14.280  -1.355
13209CHOL    R545890   2.046  14.275  -1.536
13209CHOL    C145891   1.917  14.342  -1.727
13209CHOL    C245892   1.788  14.409  -1.918
13210CHOL   ROH45893   2.646   0.387  17.267
13210CHOL    R145894   2.564   0.277  17.350
13210CHOL    R245895   2.646   0.194  17.552
13210CHOL    R345896   2.472   0.154  17.443
13210CHOL    R445897   2.574   0.098  17.625
13210CHOL    R545898   2.390   0.044  17.527
13210CHOL    C145899   2.268  -0.121  17.651
13210CHOL    C245900   2.145  -0.285  17.776
13211CHOL   ROH45901  19.262  -0.408   8.653
13211CHOL    R145902  19.370  -0.525   8.638
13211CHOL    R245903  19.547  -0.506   8.487
13211CHOL    R345904  19.492  -0.657   8.621
13211CHOL    R445905  19.642  -0.609   8.474
13211CHOL    R545906  19.600  -0.773   8.607
13211CHOL    C145907  19.762  -0.949   8.584
13211CHOL    C245908  19.924  -1.124   8.562
13212CHOL   ROH45909   3.398  17.383  -0.199
13212CHOL    R145910   3.323  17.463  -0.315
13212CHOL    R245911   3.442  17.589  -0.471
13212CHOL    R345912   3.238  17.553  -0.447
13212CHOL    R445913   3.376  17.659  -0.573
13212CHOL    R545914   3.163  17.633  -0.563
13212CHOL    C145915   3.050  17.752  -0.738
13212CHOL    C245916   2.937  17.872  -0.912
13213CHOL   ROH45917  20.003  17.721  15.734
13213CHOL    R145918  20.114  17.817  15.797
13213CHOL    R245919  20.316  17.855  15.686
13213CHOL    R345920  20.240  17.925  15.868
13213CHOL    R445921  20.414  17.939  15.741
13213CHOL    R545922  20.351  18.021  15.931
13213CHOL    C145923  20.518  18.166  16.025
13213CHOL    C245924  20.685  18.310  16.119
13214CHOL   ROH45925   5.175  23.170  11.439
13214CHOL    R145926   5.118  23.318  11.459
13214CHOL    R245927   5.259  23.504  11.447
13214CHOL    R345928   5.054  23.485  11.481
13214CHOL    R445929   5.209  23.634  11.464
13214CHOL    R545930   4.996  23.633  11.501
13214CHOL    C145931   4.911  23.855  11.531
13214CHOL    C245932   4.825  24.077  11.561
13215CHOL   ROH45933   2.226   7.605  21.498
13215CHOL    R145934   2.135   7.571  21.625
13215CHOL    R245935   2.207   7.420  21.788
13215CHOL    R345936   2.033   7.533  21.768
13215CHOL    R445937   2.127   7.391  21.899
13215CHOL    R545938   1.942   7.500  21.896
13215CHOL    C145939   1.805   7.449  22.086
13215CHOL    C245940   1.668   7.398  22.277
13216CHOL   ROH45941   5.371  15.136  22.312
13216CHOL    R145942   5.317  15.193  22.451
13216CHOL    R245943   5.462  15.231  22.630
13216CHOL    R345944   5.256  15.257  22.608
13216CHOL    R445945   5.414  15.281  22.752
13216CHOL    R545946   5.201  15.313  22.747
13216CHOL    C145947   5.120  15.399  22.957
13216CHOL    C245948   5.039  15.484  23.166
13217CHOL   ROH45949  -0.598   1.764  14.471
13217CHOL    R145950  -0.719   1.673  14.523
13217CHOL    R245951  -0.832   1.726  14.720
13217CHOL    R345952  -0.855   1.571  14.582
13217CHOL    R445953  -0.938   1.646  14.766
13217CHOL    R545954  -0.976   1.480  14.634
13217CHOL    C145955  -1.158   1.344  14.712
13217CHOL    C245956  -1.340   1.208  14.790
13218CHOL   ROH45957   4.708  -1.737   4.034
13218CHOL    R145958   4.652  -1.872   3.968
13218CHOL    R245959   4.516  -2.017   4.090
13218CHOL    R345960   4.589  -2.023   3.895
13218CHOL    R445961   4.467  -2.135   4.033
13218CHOL    R545962   4.533  -2.158   3.829
13218CHOL    C145963   4.448  -2.360   3.731
13218CHOL    C245964   4.364  -2.562   3.632
13219CHOL   ROH45965   6.466   4.182  -2.482
13219CHOL    R145966   6.430   4.118  -2.624
13219CHOL    R245967   6.480   3.895  -2.671
13219CHOL    R345968   6.390   4.046  -2.784
13219CHOL    R445969   6.449   3.839  -2.795
13219CHOL    R545970   6.354   3.981  -2.926
13219CHOL    C145971   6.300   3.885  -3.139
13219CHOL    C245972   6.246   3.789  -3.352
13220CHOL   ROH45973  22.077   7.121  16.176
13220CHOL    R145974  22.215   7.089  16.251
13220CHOL    R245975  22.380   7.252  16.272
13220CHOL    R345976  22.370   7.053  16.334
13220CHOL    R445977  22.501   7.223  16.337
13220CHOL    R545978  22.507   7.021  16.409
13220CHOL    C145979  22.714   6.972  16.521
13220CHOL    C245980  22.921   6.924  16.633
13221CHOL   ROH45981   8.407  19.873   0.124
13221CHOL    R145982   8.390  19.988   0.014
13221CHOL    R245983   8.506  20.189   0.031
13221CHOL    R345984   8.371  20.117  -0.110
13221CHOL    R445985   8.491  20.290  -0.065
13221CHOL    R545986   8.354  20.232  -0.220
13221CHOL    C145987   8.328  20.404  -0.385
13221CHOL    C245988   8.302  20.577  -0.550
13222CHOL   ROH45989  10.733   4.005  22.637
13222CHOL    R145990  10.737   3.936  22.781
13222CHOL    R245991  10.908   3.982  22.932
13222CHOL    R345992  10.741   3.857  22.943
13222CHOL    R445993  10.911   3.922  23.059
13222CHOL    R545994  10.744   3.788  23.088
13222CHOL    C145995  10.750   3.684  23.304
13222CHOL    C245996  10.756   3.580  23.520
13223CHOL   ROH45997  -2.331  16.971  10.885
13223CHOL    R145998  -2.469  17.050  10.900
13223CHOL    R245999  -2.618  17.000  11.072
13223CHOL    R346000  -2.625  17.139  10.916
13223CHOL    R446001  -2.739  17.069  11.085
13223CHOL    R546002  -2.763  17.218  10.931
13223CHOL    C146003  -2.971  17.337  10.953
13223CHOL    C246004  -3.179  17.455  10.975
13224CHOL   ROH46005   1.018  14.010  19.998
13224CHOL    R146006   0.920  14.057  20.116
13224CHOL    R246007   1.003  14.104  20.328
13224CHOL    R346008   0.811  14.110  20.248
13224CHOL    R446009   0.918  14.145  20.432
13224CHOL    R546010   0.713  14.157  20.366
13224CHOL    C146011   0.567  14.227  20.543
13224CHOL    C246012   0.420  14.297  20.719
13225CHOL   ROH46013  10.298   1.051  -0.912
13225CHOL    R146014  10.307   0.951  -1.036
13225CHOL    R246015  10.502   0.832  -1.081
13225CHOL    R346016  10.316   0.838  -1.177
13225CHOL    R446017  10.509   0.744  -1.190
13225CHOL    R546018  10.325   0.738  -1.301
13225CHOL    C146019  10.338   0.588  -1.488
13225CHOL    C246020  10.351   0.438  -1.674
13226CHOL   ROH46021  11.994  22.048  16.802
13226CHOL    R146022  12.020  22.183  16.883
13226CHOL    R246023  12.232  22.233  16.968
13226CHOL    R346024  12.050  22.336  16.974
13226CHOL    R446025  12.254  22.352  17.039
13226CHOL    R546026  12.076  22.471  17.055
13226CHOL    C146027  12.115  22.674  17.177
13226CHOL    C246028  12.155  22.877  17.299
13227CHOL   ROH46029  15.251  22.756   7.974
13227CHOL    R146030  15.315  22.901   7.954
13227CHOL    R246031  15.514  22.928   7.834
13227CHOL    R346032  15.388  23.064   7.931
13227CHOL    R446033  15.570  23.055   7.817
13227CHOL    R546034  15.453  23.209   7.911
13227CHOL    C146035  15.549  23.426   7.880
13227CHOL    C246036  15.646  23.644   7.850
13228CHOL   ROH46037  -3.728  12.174   7.398
13228CHOL    R146038  -3.883  12.198   7.365
13228CHOL    R246039  -4.038  12.227   7.537
13228CHOL    R346040  -4.057  12.225   7.329
13228CHOL    R446041  -4.174  12.248   7.508
13228CHOL    R546042  -4.212  12.250   7.296
13228CHOL    C146043  -4.444  12.286   7.247
13228CHOL    C246044  -4.676  12.322   7.198
13229CHOL   ROH46045   3.439   3.208  -0.482
13229CHOL    R146046   3.363   3.127  -0.598
13229CHOL    R246047   3.193   2.976  -0.547
13229CHOL    R346048   3.278   3.037  -0.728
13229CHOL    R446049   3.127   2.906  -0.648
13229CHOL    R546050   3.202   2.956  -0.843
13229CHOL    C146051   3.089   2.835  -1.017
13229CHOL    C246052   2.975   2.714  -1.191
13230CHOL   ROH46053   0.525  17.653  17.116
13230CHOL    R146054   0.418  17.740  17.198
13230CHOL    R246055   0.467  17.958  17.264
13230CHOL    R346056   0.299  17.838  17.290
13230CHOL    R446057   0.374  18.034  17.336
13230CHOL    R546058   0.192  17.924  17.371
13230CHOL    C146059   0.032  18.055  17.494
13230CHOL    C246060  -0.128  18.185  17.617
13231CHOL   ROH46061  14.960  23.029   9.944
13231CHOL    R146062  15.024  23.176   9.942
13231CHOL    R246063  15.220  23.220   9.825
13231CHOL    R346064  15.095  23.341   9.941
13231CHOL    R446065  15.276  23.349   9.823
13231CHOL    R546066  15.159  23.488   9.939
13231CHOL    C146067  15.254  23.708   9.937
13231CHOL    C246068  15.349  23.929   9.934
13232CHOL   ROH46069  -3.349  14.242  12.288
13232CHOL    R146070  -3.499  14.292  12.314
13232CHOL    R246071  -3.545  14.452  12.477
13232CHOL    R346072  -3.667  14.349  12.343
13232CHOL    R446073  -3.676  14.497  12.500
13232CHOL    R546074  -3.817  14.400  12.369
13232CHOL    C146075  -4.041  14.475  12.408
13232CHOL    C246076  -4.265  14.551  12.447
13233CHOL   ROH46077  11.083  -2.457   3.473
13233CHOL    R146078  11.095  -2.597   3.397
13233CHOL    R246079  11.207  -2.777   3.494
13233CHOL    R346080  11.107  -2.755   3.311
13233CHOL    R446081  11.217  -2.900   3.427
13233CHOL    R546082  11.119  -2.896   3.235
13233CHOL    C146083  11.136  -3.106   3.121
13233CHOL    C246084  11.154  -3.316   3.007
13234CHOL   ROH46085  10.378   5.308  -3.256
13234CHOL    R146086  10.380   5.258  -3.408
13234CHOL    R246087  10.390   5.410  -3.585
13234CHOL    R346088  10.383   5.201  -3.579
13234CHOL    R446089  10.392   5.365  -3.717
13234CHOL    R546090  10.386   5.150  -3.731
13234CHOL    C146091  10.389   5.075  -3.958
13234CHOL    C246092  10.393   4.999  -4.186
13235CHOL   ROH46093   4.444  13.512  22.424
13235CHOL    R146094   4.381  13.547  22.567
13235CHOL    R246095   4.453  13.734  22.687
13235CHOL    R346096   4.311  13.586  22.728
13235CHOL    R446097   4.398  13.764  22.812
13235CHOL    R546098   4.248  13.621  22.871
13235CHOL    C146099   4.154  13.673  23.086
13235CHOL    C246100   4.060  13.726  23.300
13236CHOL   ROH46101   2.118   8.984  -1.713
13236CHOL    R146102   2.027   8.978  -1.844
13236CHOL    R246103   1.799   9.027  -1.834
13236CHOL    R346104   1.924   8.971  -1.992
13236CHOL    R446105   1.719   9.021  -1.949
13236CHOL    R546106   1.832   8.964  -2.123
13236CHOL    C146107   1.695   8.955  -2.320
13236CHOL    C246108   1.558   8.946  -2.517
13237CHOL   ROH46109   1.068  10.097  20.905
13237CHOL    R146110   0.968  10.101  21.029
13237CHOL    R246111   1.035  10.027  21.240
13237CHOL    R346112   0.854  10.105  21.170
13237CHOL    R446113   0.947  10.030  21.349
13237CHOL    R546114   0.754  10.108  21.294
13237CHOL    C146115   0.603  10.114  21.481
13237CHOL    C246116   0.453  10.120  21.667
13238CHOL   ROH46117  -2.406  14.999  14.749
13238CHOL    R146118  -2.544  15.058  14.804
13238CHOL    R246119  -2.562  15.280  14.871
13238CHOL    R346120  -2.700  15.123  14.866
13238CHOL    R446121  -2.683  15.332  14.919
13238CHOL    R546122  -2.838  15.182  14.922
13238CHOL    C146123  -3.045  15.270  15.004
13238CHOL    C246124  -3.253  15.358  15.087
13239CHOL   ROH46125   7.818   2.371  -1.769
13239CHOL    R146126   7.797   2.283  -1.901
13239CHOL    R246127   7.930   2.097  -1.945
13239CHOL    R346128   7.773   2.185  -2.050
13239CHOL    R446129   7.911   2.020  -2.060
13239CHOL    R546130   7.751   2.098  -2.183
13239CHOL    C146131   7.720   1.966  -2.381
13239CHOL    C246132   7.688   1.835  -2.579
13240CHOL   ROH46133  -3.061  12.612  14.944
13240CHOL    R146134  -3.207  12.641  15.002
13240CHOL    R246135  -3.292  12.858  15.011
13240CHOL    R346136  -3.372  12.674  15.068
13240CHOL    R446137  -3.420  12.884  15.062
13240CHOL    R546138  -3.518  12.703  15.126
13240CHOL    C146139  -3.737  12.747  15.213
13240CHOL    C246140  -3.957  12.790  15.301
13241CHOL   ROH46141   5.884  16.458  21.832
13241CHOL    R146142   5.839  16.536  21.964
13241CHOL    R246143   5.965  16.521  22.161
13241CHOL    R346144   5.789  16.624  22.113
13241CHOL    R446145   5.926  16.589  22.276
13241CHOL    R546146   5.744  16.702  22.246
13241CHOL    C146147   5.678  16.819  22.444
13241CHOL    C246148   5.611  16.936  22.642
13242CHOL   ROH46149  -3.601   9.549  13.950
13242CHOL    R146150  -3.755   9.543  13.994
13242CHOL    R246151  -3.842   9.356  14.102
13242CHOL    R346152  -3.928   9.537  14.042
13242CHOL    R446153  -3.977   9.352  14.140
13242CHOL    R546154  -4.082   9.532  14.086
13242CHOL    C146155  -4.313   9.523  14.151
13242CHOL    C246156  -4.544   9.515  14.217
13243CHOL   ROH46157   3.544   9.007  22.539
13243CHOL    R146158   3.476   8.999  22.684
13243CHOL    R246159   3.589   8.903  22.864
13243CHOL    R346160   3.401   8.991  22.847
13243CHOL    R446161   3.530   8.897  22.991
13243CHOL    R546162   3.333   8.984  22.992
13243CHOL    C146163   3.232   8.972  23.209
13243CHOL    C246164   3.130   8.961  23.426
13244CHOL   ROH46165   8.929  -3.823   7.543
13244CHOL    R146166   8.917  -3.981   7.520
13244CHOL    R246167   9.105  -4.110   7.472
13244CHOL    R346168   8.903  -4.158   7.493
13244CHOL    R446169   9.094  -4.248   7.451
13244CHOL    R546170   8.890  -4.316   7.470
13244CHOL    C146171   8.872  -4.553   7.435
13244CHOL    C246172   8.854  -4.789   7.400
13245CHOL   ROH46173   8.359  -3.779  12.294
13245CHOL    R146174   8.342  -3.937  12.316
13245CHOL    R246175   8.333  -4.028  12.530
13245CHOL    R346176   8.324  -4.114  12.340
13245CHOL    R446177   8.319  -4.166  12.549
13245CHOL    R546178   8.307  -4.272  12.362
13245CHOL    C146179   8.282  -4.508  12.395
13245CHOL    C246180   8.257  -4.744  12.427
13246CHOL   ROH46181   2.578   0.359   2.773
13246CHOL    R146182   2.500   0.253   2.682
13246CHOL    R246183   2.615   0.110   2.539
13246CHOL    R346184   2.411   0.134   2.580
13246CHOL    R446185   2.546   0.017   2.459
13246CHOL    R546186   2.333   0.028   2.489
13246CHOL    C146187   2.215  -0.131   2.353
13246CHOL    C246188   2.098  -0.290   2.217
13247CHOL   ROH46189   3.863  -2.365  12.954
13247CHOL    R146190   3.795  -2.506  12.986
13247CHOL    R246191   3.822  -2.688  12.842
13247CHOL    R346192   3.717  -2.665  13.021
13247CHOL    R446193   3.762  -2.811  12.869
13247CHOL    R546194   3.649  -2.806  13.052
13247CHOL    C146195   3.546  -3.018  13.100
13247CHOL    C246196   3.444  -3.229  13.147
13248CHOL   ROH46197   6.516   8.456  23.487
13248CHOL    R146198   6.481   8.440  23.642
13248CHOL    R246199   6.647   8.458  23.805
13248CHOL    R346200   6.442   8.422  23.817
13248CHOL    R446201   6.617   8.444  23.941
13248CHOL    R546202   6.407   8.405  23.973
13248CHOL    C146203   6.355   8.381  24.206
13248CHOL    C246204   6.302   8.357  24.439
13249CHOL   ROH46205  11.730  23.439   6.468
13249CHOL    R146206  11.756  23.591   6.426
13249CHOL    R246207  11.913  23.722   6.539
13249CHOL    R346208  11.786  23.762   6.379
13249CHOL    R446209  11.936  23.855   6.502
13249CHOL    R546210  11.812  23.915   6.336
13249CHOL    C146211  11.852  24.143   6.273
13249CHOL    C246212  11.892  24.371   6.210
13250CHOL   ROH46213   9.841  23.898  11.808
13250CHOL    R146214   9.842  24.057  11.828
13250CHOL    R246215  10.027  24.184  11.766
13250CHOL    R346216   9.844  24.235  11.851
13250CHOL    R446217  10.029  24.323  11.783
13250CHOL    R546218   9.845  24.394  11.871
13250CHOL    C146219   9.847  24.632  11.901
13250CHOL    C246220   9.849  24.870  11.931
13251CHOL   ROH46221   3.913   1.749   0.364
13251CHOL    R146222   3.843   1.654   0.256
13251CHOL    R246223   3.963   1.486   0.147
13251CHOL    R346224   3.763   1.547   0.135
13251CHOL    R446225   3.901   1.403   0.053
13251CHOL    R546226   3.693   1.452   0.027
13251CHOL    C146227   3.587   1.310  -0.135
13251CHOL    C246228   3.482   1.168  -0.297
13252CHOL   ROH46229  17.784   1.277  17.560
13252CHOL    R146230  17.873   1.178  17.648
13252CHOL    R246231  18.037   1.260  17.793
13252CHOL    R346232  17.973   1.066  17.748
13252CHOL    R446233  18.115   1.173  17.870
13252CHOL    R546234  18.062   0.967  17.836
13252CHOL    C146235  18.196   0.818  17.969
13252CHOL    C246236  18.330   0.669  18.102
13253CHOL   ROH46237   5.697   7.987  -3.358
13253CHOL    R146238   5.652   7.966  -3.510
13253CHOL    R246239   5.592   7.755  -3.590
13253CHOL    R346240   5.601   7.942  -3.681
13253CHOL    R446241   5.552   7.737  -3.723
13253CHOL    R546242   5.557   7.921  -3.833
13253CHOL    C146243   5.489   7.890  -4.062
13253CHOL    C246244   5.422   7.859  -4.290
13254CHOL   ROH46245  17.552  14.906  20.455
13254CHOL    R146246  17.643  14.959  20.575
13254CHOL    R246247  17.861  15.034  20.537
13254CHOL    R346248  17.746  15.018  20.711
13254CHOL    R446249  17.940  15.080  20.642
13254CHOL    R546250  17.837  15.070  20.831
13254CHOL    C146251  17.974  15.149  21.011
13254CHOL    C246252  18.111  15.228  21.192
13255CHOL   ROH46253   1.348   7.208  -0.912
13255CHOL    R146254   1.250   7.180  -1.035
13255CHOL    R246255   1.028   7.117  -1.000
13255CHOL    R346256   1.139   7.149  -1.174
13255CHOL    R446257   0.942   7.093  -1.108
13255CHOL    R546258   1.041   7.121  -1.297
13255CHOL    C146259   0.894   7.080  -1.482
13255CHOL    C246260   0.746   7.038  -1.667
13256CHOL   ROH46261  20.183   8.689   0.491
13256CHOL    R146262  20.303   8.680   0.386
13256CHOL    R246263  20.348   8.857   0.240
13256CHOL    R346264  20.438   8.670   0.267
13256CHOL    R446265  20.453   8.849   0.148
13256CHOL    R546266  20.558   8.662   0.161
13256CHOL    C146267  20.738   8.648   0.003
13256CHOL    C246268  20.918   8.635  -0.155
13257CHOL   ROH46269  16.051   0.540   1.551
13257CHOL    R146270  16.120   0.431   1.456
13257CHOL    R246271  16.252   0.497   1.275
13257CHOL    R346272  16.198   0.309   1.349
13257CHOL    R446273  16.313   0.402   1.192
13257CHOL    R546274  16.267   0.200   1.254
13257CHOL    C146275  16.371   0.038   1.112
13257CHOL    C246276  16.475  -0.125   0.970
13258CHOL   ROH46277  20.964  15.768   3.485
13258CHOL    R146278  21.089  15.834   3.410
13258CHOL    R246279  21.059  16.008   3.258
13258CHOL    R346280  21.230  15.907   3.325
13258CHOL    R446281  21.169  16.066   3.192
13258CHOL    R546282  21.355  15.973   3.250
13258CHOL    C146283  21.542  16.071   3.136
13258CHOL    C246284  21.729  16.170   3.023
13259CHOL   ROH46285   6.359  -1.638   2.844
13259CHOL    R146286   6.324  -1.772   2.764
13259CHOL    R246287   6.490  -1.926   2.708
13259CHOL    R346288   6.284  -1.923   2.674
13259CHOL    R446289   6.459  -2.043   2.638
13259CHOL    R546290   6.248  -2.057   2.594
13259CHOL    C146291   6.195  -2.258   2.475
13259CHOL    C246292   6.142  -2.459   2.355
13260CHOL   ROH46293   7.914  11.016  -3.946
13260CHOL    R146294   7.893  11.025  -4.104
13260CHOL    R246295   7.790  11.212  -4.201
13260CHOL    R346296   7.868  11.036  -4.282
13260CHOL    R446297   7.771  11.220  -4.339
13260CHOL    R546298   7.847  11.045  -4.440
13260CHOL    C146299   7.815  11.060  -4.678
13260CHOL    C246300   7.783  11.074  -4.915
13261CHOL   ROH46301  11.005  23.968   9.414
13261CHOL    R146302  11.016  24.128   9.409
13261CHOL    R246303  11.209  24.232   9.330
13261CHOL    R346304  11.028  24.307   9.404
13261CHOL    R446305  11.219  24.372   9.326
13261CHOL    R546306  11.040  24.467   9.399
13261CHOL    C146307  11.056  24.706   9.392
13261CHOL    C246308  11.073  24.945   9.385
13262CHOL   ROH46309  -2.102   4.477   4.917
13262CHOL    R146310  -2.239   4.411   4.867
13262CHOL    R246311  -2.445   4.496   4.936
13262CHOL    R346312  -2.393   4.336   4.812
13262CHOL    R446313  -2.565   4.438   4.892
13262CHOL    R546314  -2.530   4.270   4.762
13262CHOL    C146315  -2.735   4.170   4.688
13262CHOL    C246316  -2.941   4.070   4.613
13263CHOL   ROH46317  13.754  -1.728   3.193
13263CHOL    R146318  13.801  -1.860   3.116
13263CHOL    R246319  14.002  -1.867   2.999
13263CHOL    R346320  13.853  -2.010   3.030
13263CHOL    R446321  14.043  -1.983   2.932
13263CHOL    R546322  13.900  -2.142   2.954
13263CHOL    C146323  13.969  -2.341   2.839
13263CHOL    C246324  14.039  -2.539   2.724
13264CHOL   ROH46325  12.977  12.559  -3.531
13264CHOL    R146326  13.012  12.591  -3.684
13264CHOL    R246327  12.883  12.502  -3.857
13264CHOL    R346328  13.051  12.626  -3.856
13264CHOL    R446329  12.914  12.530  -3.991
13264CHOL    R546330  13.086  12.658  -4.009
13264CHOL    C146331  13.138  12.706  -4.238
13264CHOL    C246332  13.191  12.753  -4.468
13265CHOL   ROH46333   0.186  12.390   0.055
13265CHOL    R146334   0.080  12.412  -0.063
13265CHOL    R246335  -0.086  12.575  -0.046
13265CHOL    R346336  -0.039  12.438  -0.196
13265CHOL    R446337  -0.179  12.595  -0.149
13265CHOL    R546338  -0.145  12.460  -0.313
13265CHOL    C146339  -0.304  12.494  -0.490
13265CHOL    C246340  -0.463  12.527  -0.667
13266CHOL   ROH46341  -3.316  10.661   5.266
13266CHOL    R146342  -3.468  10.669   5.216
13266CHOL    R246343  -3.639  10.732   5.361
13266CHOL    R346344  -3.639  10.678   5.160
13266CHOL    R446345  -3.772  10.740   5.318
13266CHOL    R546346  -3.790  10.687   5.110
13266CHOL    C146347  -4.018  10.699   5.035
13266CHOL    C246348  -4.246  10.711   4.960
13267CHOL   ROH46349  14.637   2.678  20.978
13267CHOL    R146350  14.691   2.592  21.102
13267CHOL    R246351  14.830   2.408  21.068
13267CHOL    R346352  14.752   2.495  21.240
13267CHOL    R446353  14.877   2.332  21.176
13267CHOL    R546354  14.806   2.409  21.364
13267CHOL    C146355  14.887   2.280  21.549
13267CHOL    C246356  14.968   2.151  21.735
13268CHOL   ROH46357   3.935   6.339  22.162
13268CHOL    R146358   3.865   6.296  22.299
13268CHOL    R246359   3.864   6.073  22.369
13268CHOL    R346360   3.786   6.247  22.453
13268CHOL    R446361   3.803   6.035  22.489
13268CHOL    R546362   3.716   6.204  22.590
13268CHOL    C146363   3.610   6.138  22.796
13268CHOL    C246364   3.505   6.073  23.002
13269CHOL   ROH46365   6.148   7.118  -3.336
13269CHOL    R146366   6.111   7.088  -3.489
13269CHOL    R246367   6.074   6.870  -3.563
13269CHOL    R346368   6.069   7.054  -3.661
13269CHOL    R446369   6.041   6.844  -3.696
13269CHOL    R546370   6.032   7.025  -3.813
13269CHOL    C146371   5.977   6.980  -4.043
13269CHOL    C246372   5.922   6.935  -4.272
13270CHOL   ROH46373  15.222  22.658  12.851
13270CHOL    R146374  15.279  22.806  12.875
13270CHOL    R246375  15.506  22.853  12.848
13270CHOL    R346376  15.343  22.972  12.901
13270CHOL    R446377  15.555  22.982  12.869
13270CHOL    R546378  15.400  23.120  12.925
13270CHOL    C146379  15.485  23.341  12.961
13270CHOL    C246380  15.570  23.563  12.996
13271CHOL   ROH46381  -0.529  19.145   7.310
13271CHOL    R146382  -0.641  19.255   7.280
13271CHOL    R246383  -0.748  19.368   7.454
13271CHOL    R346384  -0.767  19.379   7.246
13271CHOL    R446385  -0.847  19.464   7.428
13271CHOL    R546386  -0.880  19.490   7.216
13271CHOL    C146387  -1.048  19.655   7.172
13271CHOL    C246388  -1.216  19.820   7.127
13272CHOL   ROH46389  12.840  22.143  16.303
13272CHOL    R146390  12.875  22.280  16.377
13272CHOL    R246391  13.045  22.291  16.537
13272CHOL    R346392  12.914  22.435  16.461
13272CHOL    R446393  13.075  22.412  16.601
13272CHOL    R546394  12.948  22.573  16.535
13272CHOL    C146395  13.001  22.779  16.646
13272CHOL    C246396  13.053  22.985  16.758
13273CHOL   ROH46397   5.031   2.311  20.761
13273CHOL    R146398   4.975   2.225  20.884
13273CHOL    R246399   4.992   2.303  21.103
13273CHOL    R346400   4.912   2.128  21.022
13273CHOL    R446401   4.943   2.228  21.210
13273CHOL    R546402   4.857   2.042  21.144
13273CHOL    C146403   4.773   1.912  21.329
13273CHOL    C246404   4.689   1.783  21.513
13274CHOL   ROH46405  16.746   6.610  -1.791
13274CHOL    R146406  16.822   6.575  -1.928
13274CHOL    R246407  16.899   6.745  -2.068
13274CHOL    R346408  16.907   6.537  -2.081
13274CHOL    R446409  16.965   6.714  -2.188
13274CHOL    R546410  16.982   6.502  -2.218
13274CHOL    C146411  17.096   6.450  -2.423
13274CHOL    C246412  17.210   6.398  -2.628
13275CHOL   ROH46413   0.616  -0.015  13.506
13275CHOL    R146414   0.510  -0.129  13.544
13275CHOL    R246415   0.563  -0.293  13.702
13275CHOL    R346416   0.392  -0.257  13.587
13275CHOL    R446417   0.470  -0.393  13.735
13275CHOL    R546418   0.286  -0.371  13.625
13275CHOL    C146419   0.128  -0.542  13.683
13275CHOL    C246420  -0.031  -0.713  13.740
13276CHOL   ROH46421  20.335  11.189  19.205
13276CHOL    R146422  20.450  11.206  19.315
13276CHOL    R246423  20.637  11.340  19.274
13276CHOL    R346424  20.579  11.225  19.439
13276CHOL    R446425  20.737  11.355  19.370
13276CHOL    R546426  20.694  11.243  19.549
13276CHOL    C146427  20.866  11.268  19.714
13276CHOL    C246428  21.039  11.294  19.879
13277CHOL   ROH46429  -0.063  13.440   0.538
13277CHOL    R146430  -0.171  13.476   0.426
13277CHOL    R246431  -0.399  13.440   0.461
13277CHOL    R346432  -0.292  13.517   0.299
13277CHOL    R446433  -0.493  13.472   0.363
13277CHOL    R546434  -0.400  13.554   0.186
13277CHOL    C146435  -0.562  13.608   0.018
13277CHOL    C246436  -0.724  13.662  -0.151
13278CHOL   ROH46437  21.450   3.334  14.376
13278CHOL    R146438  21.582   3.257  14.423
13278CHOL    R246439  21.773   3.254  14.289
13278CHOL    R346440  21.731   3.170  14.476
13278CHOL    R446441  21.889   3.187  14.330
13278CHOL    R546442  21.863   3.092  14.523
13278CHOL    C146443  22.061   2.977  14.593
13278CHOL    C246444  22.259   2.861  14.663
13279CHOL   ROH46445   1.230   1.263   3.014
13279CHOL    R146446   1.137   1.164   2.929
13279CHOL    R246447   1.177   0.935   2.925
13279CHOL    R346448   1.032   1.054   2.833
13279CHOL    R446449   1.096   0.848   2.851
13279CHOL    R546450   0.939   0.955   2.749
13279CHOL    C146451   0.799   0.807   2.621
13279CHOL    C246452   0.660   0.659   2.494
13280CHOL   ROH46453  21.466   3.316   5.560
13280CHOL    R146454  21.598   3.238   5.514
13280CHOL    R246455  21.802   3.349   5.494
13280CHOL    R346456  21.746   3.151   5.462
13280CHOL    R446457  21.918   3.281   5.454
13280CHOL    R546458  21.878   3.073   5.415
13280CHOL    C146459  22.076   2.956   5.346
13280CHOL    C246460  22.274   2.840   5.277
13281CHOL   ROH46461  -3.889   9.417   7.246
13281CHOL    R146462  -4.045   9.417   7.209
13281CHOL    R246463  -4.203   9.326   7.355
13281CHOL    R346464  -4.220   9.417   7.167
13281CHOL    R446465  -4.339   9.326   7.322
13281CHOL    R546466  -4.375   9.417   7.130
13281CHOL    C146467  -4.609   9.417   7.075
13281CHOL    C246468  -4.843   9.417   7.020
13282CHOL   ROH46469  -2.316  16.872  11.458
13282CHOL    R146470  -2.454  16.951  11.478
13282CHOL    R246471  -2.562  16.952  11.684
13282CHOL    R346472  -2.609  17.040  11.501
13282CHOL    R446473  -2.683  17.021  11.702
13282CHOL    R546474  -2.746  17.118  11.521
13282CHOL    C146475  -2.953  17.237  11.551
13282CHOL    C246476  -3.160  17.355  11.581
13283CHOL   ROH46477  15.743   2.576  -0.529
13283CHOL    R146478  15.811   2.490  -0.645
13283CHOL    R246479  15.784   2.547  -0.869
13283CHOL    R346480  15.889   2.393  -0.776
13283CHOL    R446481  15.844   2.472  -0.971
13283CHOL    R546482  15.957   2.307  -0.892
13283CHOL    C146483  16.060   2.177  -1.066
13283CHOL    C246484  16.162   2.048  -1.240
13284CHOL   ROH46485  -4.227   9.302   9.827
13284CHOL    R146486  -4.387   9.294   9.828
13284CHOL    R246487  -4.514   9.446   9.951
13284CHOL    R346488  -4.567   9.284   9.830
13284CHOL    R446489  -4.654   9.438   9.952
13284CHOL    R546490  -4.727   9.276   9.831
13284CHOL    C146491  -4.966   9.263   9.833
13284CHOL    C246492  -5.206   9.250   9.835
13285CHOL   ROH46493   4.590  21.683   4.241
13285CHOL    R146494   4.524  21.813   4.176
13285CHOL    R246495   4.562  22.025   4.265
13285CHOL    R346496   4.449  21.960   4.102
13285CHOL    R446497   4.504  22.139   4.208
13285CHOL    R546498   4.382  22.090   4.037
13285CHOL    C146499   4.283  22.285   3.939
13285CHOL    C246500   4.183  22.481   3.841
13286CHOL   ROH46501  -1.050   1.359  12.106
13286CHOL    R146502  -1.174   1.262  12.132
13286CHOL    R246503  -1.190   1.135  12.327
13286CHOL    R346504  -1.315   1.153  12.160
13286CHOL    R446505  -1.299   1.050  12.349
13286CHOL    R546506  -1.439   1.055  12.186
13286CHOL    C146507  -1.626   0.910  12.224
13286CHOL    C246508  -1.812   0.764  12.263
13287CHOL   ROH46509  17.492   3.464   0.136
13287CHOL    R146510  17.585   3.392   0.028
13287CHOL    R246511  17.812   3.446   0.010
13287CHOL    R346512  17.691   3.312  -0.095
13287CHOL    R446513  17.893   3.384  -0.085
13287CHOL    R546514  17.784   3.241  -0.203
13287CHOL    C146515  17.924   3.133  -0.366
13287CHOL    C246516  18.064   3.026  -0.528
13288CHOL   ROH46517   8.876  10.895  -4.054
13288CHOL    R146518   8.864  10.904  -4.213
13288CHOL    R246519   8.697  11.034  -4.313
13288CHOL    R346520   8.850  10.915  -4.392
13288CHOL    R446521   8.687  11.042  -4.453
13288CHOL    R546522   8.838  10.924  -4.551
13288CHOL    C146523   8.819  10.938  -4.790
13288CHOL    C246524   8.801  10.952  -5.029
13289CHOL   ROH46525  17.510  18.892   2.349
13289CHOL    R146526  17.599  18.995   2.265
13289CHOL    R246527  17.656  18.952   2.043
13289CHOL    R346528  17.699  19.112   2.171
13289CHOL    R446529  17.733  19.043   1.970
13289CHOL    R546530  17.787  19.215   2.087
13289CHOL    C146531  17.921  19.370   1.961
13289CHOL    C246532  18.054  19.525   1.835
13290CHOL   ROH46533  16.256  19.431  18.168
13290CHOL    R146534  16.331  19.543  18.254
13290CHOL    R246535  16.559  19.526  18.301
13290CHOL    R346536  16.415  19.669  18.351
13290CHOL    R446537  16.624  19.624  18.377
13290CHOL    R546538  16.490  19.781  18.438
13290CHOL    C146539  16.602  19.949  18.567
13290CHOL    C246540  16.715  20.117  18.696
13291CHOL   ROH46541  16.426  -0.787  16.212
13291CHOL    R146542  16.502  -0.909  16.282
13291CHOL    R246543  16.714  -0.975  16.211
13291CHOL    R346544  16.589  -1.045  16.362
13291CHOL    R446545  16.781  -1.081  16.273
13291CHOL    R546546  16.665  -1.167  16.432
13291CHOL    C146547  16.780  -1.349  16.538
13291CHOL    C246548  16.894  -1.532  16.643
13292CHOL   ROH46549  16.159  12.266  22.334
13292CHOL    R146550  16.237  12.293  22.471
13292CHOL    R246551  16.391  12.139  22.554
13292CHOL    R346552  16.325  12.324  22.625
13292CHOL    R446553  16.459  12.163  22.674
13292CHOL    R546554  16.403  12.351  22.762
13292CHOL    C146555  16.520  12.392  22.967
13292CHOL    C246556  16.637  12.433  23.173
13293CHOL   ROH46557  13.668  19.187  -0.076
13293CHOL    R146558  13.709  19.290  -0.192
13293CHOL    R246559  13.853  19.225  -0.364
13293CHOL    R346560  13.756  19.405  -0.322
13293CHOL    R446561  13.889  19.315  -0.465
13293CHOL    R546562  13.797  19.508  -0.438
13293CHOL    C146563  13.859  19.661  -0.611
13293CHOL    C246564  13.921  19.815  -0.785
13294CHOL   ROH46565  15.958  14.263  21.845
13294CHOL    R146566  16.035  14.313  21.976
13294CHOL    R246567  16.122  14.529  21.988
13294CHOL    R346568  16.123  14.369  22.123
13294CHOL    R446569  16.190  14.573  22.103
13294CHOL    R546570  16.200  14.419  22.254
13294CHOL    C146571  16.316  14.495  22.450
13294CHOL    C246572  16.432  14.570  22.646
13295CHOL   ROH46573   3.268  12.284  -2.210
13295CHOL    R146574   3.189  12.308  -2.347
13295CHOL    R246575   3.069  12.505  -2.383
13295CHOL    R346576   3.099  12.335  -2.501
13295CHOL    R446577   2.999  12.526  -2.503
13295CHOL    R546578   3.020  12.360  -2.637
13295CHOL    C146579   2.901  12.396  -2.843
13295CHOL    C246580   2.782  12.432  -3.048
13296CHOL   ROH46581   7.986  13.267  23.409
13296CHOL    R146582   7.960  13.299  23.564
13296CHOL    R246583   8.104  13.219  23.729
13296CHOL    R346584   7.931  13.336  23.737
13296CHOL    R446585   8.081  13.247  23.864
13296CHOL    R546586   7.905  13.368  23.892
13296CHOL    C146587   7.866  13.416  24.124
13296CHOL    C246588   7.827  13.465  24.356
13297CHOL   ROH46589   7.746  -3.876   9.982
13297CHOL    R146590   7.724  -4.035   9.982
13297CHOL    R246591   7.906  -4.180   9.974
13297CHOL    R346592   7.700  -4.213   9.981
13297CHOL    R446593   7.887  -4.319   9.974
13297CHOL    R546594   7.678  -4.372   9.981
13297CHOL    C146595   7.646  -4.609   9.981
13297CHOL    C246596   7.614  -4.847   9.980
13298CHOL   ROH46597   8.743  23.807   7.641
13298CHOL    R146598   8.733  23.965   7.618
13298CHOL    R246599   8.905  24.107   7.683
13298CHOL    R346600   8.721  24.143   7.592
13298CHOL    R446601   8.896  24.246   7.663
13298CHOL    R546602   8.710  24.300   7.569
13298CHOL    C146603   8.695  24.537   7.534
13298CHOL    C246604   8.679  24.774   7.499
13299CHOL   ROH46605   1.352   5.004  -0.043
13299CHOL    R146606   1.258   4.942  -0.157
13299CHOL    R246607   1.029   4.914  -0.122
13299CHOL    R346608   1.153   4.873  -0.285
13299CHOL    R446609   0.947   4.860  -0.222
13299CHOL    R546610   1.059   4.811  -0.399
13299CHOL    C146611   0.918   4.718  -0.571
13299CHOL    C246612   0.778   4.626  -0.742
13300CHOL   ROH46613   2.173   3.932  -0.061
13300CHOL    R146614   2.086   3.859  -0.174
13300CHOL    R246615   1.873   3.777  -0.126
13300CHOL    R346616   1.987   3.777  -0.300
13300CHOL    R446617   1.796   3.713  -0.224
13300CHOL    R546618   1.900   3.704  -0.413
13300CHOL    C146619   1.769   3.595  -0.582
13300CHOL    C246620   1.638   3.486  -0.751
13301CHOL   ROH46621  19.590  19.729   7.007
13301CHOL    R146622  19.704  19.835   6.971
13301CHOL    R246623  19.695  19.957   6.772
13301CHOL    R346624  19.833  19.954   6.929
13301CHOL    R446625  19.795  20.050   6.740
13301CHOL    R546626  19.947  20.060   6.893
13301CHOL    C146627  20.118  20.218   6.838
13301CHOL    C246628  20.290  20.377   6.784
13302CHOL   ROH46629  -0.091  16.581  17.362
13302CHOL    R146630  -0.203  16.658  17.447
13302CHOL    R246631  -0.165  16.873  17.528
13302CHOL    R346632  -0.328  16.744  17.543
13302CHOL    R446633  -0.263  16.940  17.602
13302CHOL    R546634  -0.440  16.820  17.628
13302CHOL    C146635  -0.608  16.935  17.756
13302CHOL    C246636  -0.775  17.050  17.883
13303CHOL   ROH46637  -0.387  16.024  17.451
13303CHOL    R146638  -0.501  16.095  17.538
13303CHOL    R246639  -0.470  16.309  17.626
13303CHOL    R346640  -0.629  16.175  17.636
13303CHOL    R446641  -0.569  16.371  17.702
13303CHOL    R546642  -0.743  16.246  17.722
13303CHOL    C146643  -0.915  16.352  17.853
13303CHOL    C246644  -1.086  16.458  17.983
13304CHOL   ROH46645  18.378  -0.909  12.378
13304CHOL    R146646  18.474  -1.034  12.406
13304CHOL    R246647  18.595  -1.134  12.234
13304CHOL    R346648  18.582  -1.175  12.438
13304CHOL    R446649  18.679  -1.243  12.259
13304CHOL    R546650  18.678  -1.299  12.467
13304CHOL    C146651  18.821  -1.487  12.509
13304CHOL    C246652  18.965  -1.674  12.551
13305CHOL   ROH46653  19.142  20.528  10.901
13305CHOL    R146654  19.246  20.648  10.915
13305CHOL    R246655  19.465  20.627  10.837
13305CHOL    R346656  19.364  20.784  10.930
13305CHOL    R446657  19.556  20.733  10.849
13305CHOL    R546658  19.468  20.904  10.944
13305CHOL    C146659  19.624  21.085  10.965
13305CHOL    C246660  19.781  21.266  10.985
13306CHOL   ROH46661  22.763  13.717  13.949
13306CHOL    R146662  22.911  13.756  13.995
13306CHOL    R246663  23.001  13.965  13.947
13306CHOL    R346664  23.078  13.799  14.048
13306CHOL    R446665  23.131  13.999  13.988
13306CHOL    R546666  23.226  13.838  14.094
13306CHOL    C146667  23.448  13.895  14.164
13306CHOL    C246668  23.670  13.953  14.233
13307CHOL   ROH46669   4.315  -0.172  17.935
13307CHOL    R146670   4.253  -0.288  18.026
13307CHOL    R246671   4.264  -0.511  17.960
13307CHOL    R346672   4.182  -0.418  18.128
13307CHOL    R446673   4.209  -0.613  18.039
13307CHOL    R546674   4.120  -0.534  18.219
13307CHOL    C146675   4.026  -0.708  18.355
13307CHOL    C246676   3.933  -0.882  18.492
13308CHOL   ROH46677  -2.621   5.770  14.915
13308CHOL    R146678  -2.765   5.718  14.962
13308CHOL    R246679  -2.870   5.808  15.150
13308CHOL    R346680  -2.926   5.659  15.015
13308CHOL    R446681  -2.995   5.762  15.191
13308CHOL    R546682  -3.070   5.607  15.063
13308CHOL    C146683  -3.286   5.528  15.133
13308CHOL    C246684  -3.501   5.450  15.204
13309CHOL   ROH46685  -0.838   3.128  15.978
13309CHOL    R146686  -0.960   3.048  16.045
13309CHOL    R246687  -0.960   2.815  16.054
13309CHOL    R346688  -1.096   2.959  16.120
13309CHOL    R446689  -1.066   2.745  16.113
13309CHOL    R546690  -1.218   2.879  16.187
13309CHOL    C146691  -1.400   2.759  16.287
13309CHOL    C246692  -1.583   2.640  16.388
13310CHOL   ROH46693   9.214   6.661  23.547
13310CHOL    R146694   9.203   6.617  23.701
13310CHOL    R246695   9.377   6.502  23.805
13310CHOL    R346696   9.191   6.569  23.873
13310CHOL    R446697   9.367   6.464  23.940
13310CHOL    R546698   9.180   6.525  24.027
13310CHOL    C146699   9.164   6.460  24.257
13310CHOL    C246700   9.147   6.394  24.488
13311CHOL   ROH46701  -2.675  16.434   9.596
13311CHOL    R146702  -2.819  16.504   9.593
13311CHOL    R246703  -2.995  16.421   9.721
13311CHOL    R346704  -2.980  16.583   9.591
13311CHOL    R446705  -3.121  16.483   9.719
13311CHOL    R546706  -3.124  16.653   9.588
13311CHOL    C146707  -3.340  16.759   9.584
13311CHOL    C246708  -3.555  16.864   9.580
13312CHOL   ROH46709  19.155  -0.474   8.423
13312CHOL    R146710  19.261  -0.592   8.405
13312CHOL    R246711  19.433  -0.576   8.248
13312CHOL    R346712  19.381  -0.725   8.385
13312CHOL    R446713  19.526  -0.680   8.232
13312CHOL    R546714  19.488  -0.843   8.367
13312CHOL    C146715  19.647  -1.020   8.340
13312CHOL    C246716  19.807  -1.197   8.313
13313CHOL   ROH46717   2.093  21.339   7.668
13313CHOL    R146718   2.004  21.470   7.643
13313CHOL    R246719   2.104  21.677   7.603
13313CHOL    R346720   1.904  21.617   7.614
13313CHOL    R446721   2.026  21.791   7.581
13313CHOL    R546722   1.815  21.748   7.589
13313CHOL    C146723   1.682  21.944   7.551
13313CHOL    C246724   1.549  22.140   7.513
13314CHOL   ROH46725  11.580   4.058  -2.695
13314CHOL    R146726  11.598   3.992  -2.839
13314CHOL    R246727  11.799   4.010  -2.956
13314CHOL    R346728  11.618   3.917  -3.002
13314CHOL    R446729  11.814   3.952  -3.082
13314CHOL    R546730  11.635   3.850  -3.146
13314CHOL    C146731  11.662   3.751  -3.363
13314CHOL    C246732  11.689   3.651  -3.580
13315CHOL   ROH46733  -0.684  14.904   1.948
13315CHOL    R146734  -0.805  14.964   1.862
13315CHOL    R246735  -0.818  15.192   1.816
13315CHOL    R346736  -0.941  15.031   1.766
13315CHOL    R446737  -0.924  15.244   1.741
13315CHOL    R546738  -1.062  15.091   1.680
13315CHOL    C146739  -1.243  15.181   1.551
13315CHOL    C246740  -1.425  15.271   1.423
13316CHOL   ROH46741  22.291  16.501  10.159
13316CHOL    R146742  22.434  16.574  10.158
13316CHOL    R246743  22.469  16.767  10.031
13316CHOL    R346744  22.594  16.656  10.156
13316CHOL    R446745  22.593  16.830  10.030
13316CHOL    R546746  22.737  16.728  10.155
13316CHOL    C146747  22.950  16.838  10.153
13316CHOL    C246748  23.164  16.947  10.151
13317CHOL   ROH46749   8.840  15.980  22.649
13317CHOL    R146750   8.831  16.044  22.795
13317CHOL    R246751   8.966  16.225  22.856
13317CHOL    R346752   8.821  16.116  22.960
13317CHOL    R446753   8.958  16.281  22.983
13317CHOL    R546754   8.812  16.181  23.106
13317CHOL    C146755   8.799  16.277  23.325
13317CHOL    C246756   8.785  16.373  23.545
13318CHOL   ROH46757  19.163  20.563  10.089
13318CHOL    R146758  19.265  20.686  10.091
13318CHOL    R246759  19.444  20.697   9.942
13318CHOL    R346760  19.380  20.825  10.094
13318CHOL    R446761  19.533  20.804   9.944
13318CHOL    R546762  19.482  20.948  10.096
13318CHOL    C146763  19.635  21.133  10.099
13318CHOL    C246764  19.788  21.318  10.103
13319CHOL   ROH46765   8.553   2.171  -1.725
13319CHOL    R146766   8.542   2.083  -1.858
13319CHOL    R246767   8.684   1.900  -1.893
13319CHOL    R346768   8.531   1.984  -2.008
13319CHOL    R446769   8.674   1.823  -2.010
13319CHOL    R546770   8.520   1.896  -2.142
13319CHOL    C146771   8.504   1.764  -2.341
13319CHOL    C246772   8.488   1.632  -2.541
13320CHOL   ROH46773  -1.911  16.387  14.231
13320CHOL    R146774  -2.042  16.465  14.280
13320CHOL    R246775  -2.128  16.432  14.494
13320CHOL    R346776  -2.189  16.553  14.336
13320CHOL    R446777  -2.242  16.500  14.538
13320CHOL    R546778  -2.319  16.630  14.385
13320CHOL    C146779  -2.516  16.747  14.459
13320CHOL    C246780  -2.712  16.864  14.533
13321CHOL   ROH46781  -0.877   2.333   5.030
13321CHOL    R146782  -1.001   2.245   4.982
13321CHOL    R246783  -1.025   2.023   5.051
13321CHOL    R346784  -1.142   2.145   4.928
13321CHOL    R446785  -1.134   1.946   5.009
13321CHOL    R546786  -1.266   2.056   4.881
13321CHOL    C146787  -1.453   1.924   4.809
13321CHOL    C246788  -1.639   1.791   4.737
13322CHOL   ROH46789  23.559   7.415   8.482
13322CHOL    R146790  23.716   7.391   8.466
13322CHOL    R246791  23.833   7.475   8.282
13322CHOL    R346792  23.894   7.364   8.448
13322CHOL    R446793  23.970   7.454   8.269
13322CHOL    R546794  24.051   7.340   8.432
13322CHOL    C146795  24.287   7.304   8.409
13322CHOL    C246796  24.523   7.268   8.385
13323CHOL   ROH46797  12.503   1.295  20.568
13323CHOL    R146798  12.529   1.190  20.686
13323CHOL    R246799  12.667   1.005  20.653
13323CHOL    R346800  12.558   1.072  20.819
13323CHOL    R446801  12.689   0.913  20.757
13323CHOL    R546802  12.584   0.967  20.937
13323CHOL    C146803  12.623   0.810  21.113
13323CHOL    C246804  12.662   0.652  21.290
13324CHOL   ROH46805   5.383   1.262  -0.109
13324CHOL    R146806   5.326   1.163  -0.221
13324CHOL    R246807   5.265   0.945  -0.168
13324CHOL    R346808   5.262   1.052  -0.347
13324CHOL    R446809   5.215   0.858  -0.266
13324CHOL    R546810   5.204   0.953  -0.459
13324CHOL    C146811   5.119   0.805  -0.627
13324CHOL    C246812   5.033   0.656  -0.795
13325CHOL   ROH46813  19.392   0.273  13.449
13325CHOL    R146814  19.501   0.163  13.489
13325CHOL    R246815  19.594   0.023  13.328
13325CHOL    R346816  19.624   0.039  13.534
13325CHOL    R446817  19.690  -0.074  13.363
13325CHOL    R546818  19.734  -0.070  13.573
13325CHOL    C146819  19.897  -0.235  13.633
13325CHOL    C246820  20.061  -0.400  13.693
13326CHOL   ROH46821   8.781   9.145  23.906
13326CHOL    R146822   8.765   9.135  24.065
13326CHOL    R246823   8.943   9.186  24.207
13326CHOL    R346824   8.747   9.124  24.244
13326CHOL    R446825   8.929   9.177  24.346
13326CHOL    R546826   8.731   9.114  24.403
13326CHOL    C146827   8.707   9.099  24.641
13326CHOL    C246828   8.683   9.084  24.879
13327CHOL   ROH46829  21.903  14.728  15.487
13327CHOL    R146830  22.043  14.778  15.547
13327CHOL    R246831  22.207  14.868  15.408
13327CHOL    R346832  22.200  14.835  15.614
13327CHOL    R446833  22.329  14.912  15.460
13327CHOL    R546834  22.340  14.886  15.674
13327CHOL    C146835  22.549  14.961  15.763
13327CHOL    C246836  22.759  15.037  15.853
13328CHOL   ROH46837   1.980   7.997  -1.527
13328CHOL    R146838   1.887   7.980  -1.656
13328CHOL    R246839   1.655   7.976  -1.638
13328CHOL    R346840   1.783   7.960  -1.802
13328CHOL    R446841   1.573   7.961  -1.751
13328CHOL    R546842   1.690   7.943  -1.931
13328CHOL    C146843   1.551   7.917  -2.125
13328CHOL    C246844   1.412   7.891  -2.319
13329CHOL   ROH46845   3.002   3.711  -0.528
13329CHOL    R146846   2.922   3.635  -0.644
13329CHOL    R246847   2.767   3.468  -0.594
13329CHOL    R346848   2.831   3.551  -0.774
13329CHOL    R446849   2.697   3.402  -0.695
13329CHOL    R546850   2.751   3.475  -0.890
13329CHOL    C146851   2.631   3.362  -1.064
13329CHOL    C246852   2.510   3.248  -1.238
13330CHOL   ROH46853   7.217   1.450  -0.934
13330CHOL    R146854   7.184   1.349  -1.054
13330CHOL    R246855   7.271   1.384  -1.267
13330CHOL    R346856   7.147   1.236  -1.189
13330CHOL    R446857   7.242   1.296  -1.372
13330CHOL    R546858   7.114   1.135  -1.309
13330CHOL    C146859   7.065   0.984  -1.488
13330CHOL    C246860   7.015   0.833  -1.668
13331CHOL   ROH46861  20.590  12.329   1.233
13331CHOL    R146862  20.713  12.350   1.133
13331CHOL    R246863  20.688  12.320   0.903
13331CHOL    R346864  20.852  12.374   1.021
13331CHOL    R446865  20.796  12.339   0.816
13331CHOL    R546866  20.975  12.395   0.921
13331CHOL    C146867  21.160  12.427   0.771
13331CHOL    C246868  21.345  12.458   0.621
13332CHOL   ROH46869  -2.873  15.009  13.227
13332CHOL    R146870  -3.018  15.067  13.263
13332CHOL    R246871  -3.043  15.281  13.351
13332CHOL    R346872  -3.181  15.131  13.302
13332CHOL    R446873  -3.170  15.331  13.382
13332CHOL    R546874  -3.326  15.189  13.338
13332CHOL    C146875  -3.543  15.275  13.391
13332CHOL    C246876  -3.761  15.362  13.445
13333CHOL   ROH46877  -3.154  15.028   8.258
13333CHOL    R146878  -3.302  15.082   8.232
13333CHOL    R246879  -3.339  15.303   8.167
13333CHOL    R346880  -3.469  15.143   8.203
13333CHOL    R446881  -3.469  15.351   8.144
13333CHOL    R546882  -3.617  15.197   8.176
13333CHOL    C146883  -3.839  15.279   8.137
13333CHOL    C246884  -4.061  15.360   8.098
13334CHOL   ROH46885   5.693  11.269  -3.442
13334CHOL    R146886   5.645  11.282  -3.594
13334CHOL    R246887   5.676  11.480  -3.713
13334CHOL    R346888   5.591  11.297  -3.765
13334CHOL    R446889   5.634  11.492  -3.846
13334CHOL    R546890   5.543  11.310  -3.917
13334CHOL    C146891   5.472  11.330  -4.146
13334CHOL    C246892   5.400  11.349  -4.374
13335CHOL   ROH46893  10.253  15.952  -2.768
13335CHOL    R146894  10.261  16.019  -2.913
13335CHOL    R246895  10.391  15.925  -3.082
13335CHOL    R346896  10.269  16.094  -3.076
13335CHOL    R446897  10.397  15.984  -3.209
13335CHOL    R546898  10.277  16.162  -3.222
13335CHOL    C146899  10.288  16.262  -3.439
13335CHOL    C246900  10.299  16.363  -3.657
13336CHOL   ROH46901  -2.146   7.850  16.994
13336CHOL    R146902  -2.283   7.833  17.075
13336CHOL    R246903  -2.363   8.003  17.213
13336CHOL    R346904  -2.436   7.813  17.167
13336CHOL    R446905  -2.482   7.988  17.284
13336CHOL    R546906  -2.573   7.796  17.248
13336CHOL    C146907  -2.778   7.770  17.371
13336CHOL    C246908  -2.983   7.744  17.493
13337CHOL   ROH46909  -3.501   6.481  12.259
13337CHOL    R146910  -3.653   6.440  12.285
13337CHOL    R246911  -3.740   6.432  12.502
13337CHOL    R346912  -3.825   6.394  12.315
13337CHOL    R446913  -3.873   6.396  12.525
13337CHOL    R546914  -3.977   6.354  12.341
13337CHOL    C146915  -4.206   6.292  12.381
13337CHOL    C246916  -4.435   6.231  12.421
13338CHOL   ROH46917  10.432  21.168  18.441
13338CHOL    R146918  10.442  21.293  18.540
13338CHOL    R246919  10.488  21.264  18.767
13338CHOL    R346920  10.454  21.434  18.651
13338CHOL    R446921  10.496  21.373  18.854
13338CHOL    R546922  10.464  21.559  18.750
13338CHOL    C146923  10.479  21.747  18.899
13338CHOL    C246924  10.495  21.935  19.048
13339CHOL   ROH46925   9.236  20.384   0.578
13339CHOL    R146926   9.226  20.504   0.472
13339CHOL    R246927   9.407  20.646   0.435
13339CHOL    R346928   9.215  20.639   0.354
13339CHOL    R446929   9.399  20.751   0.343
13339CHOL    R546930   9.206  20.759   0.248
13339CHOL    C146931   9.191  20.938   0.090
13339CHOL    C246932   9.176  21.118  -0.069
13340CHOL   ROH46933  23.468  10.408  13.380
13340CHOL    R146934  23.624  10.417  13.417
13340CHOL    R246935  23.758  10.587  13.331
13340CHOL    R346936  23.798  10.426  13.459
13340CHOL    R446937  23.894  10.594  13.363
13340CHOL    R546938  23.954  10.435  13.495
13340CHOL    C146939  24.187  10.448  13.551
13340CHOL    C246940  24.421  10.461  13.606
13341CHOL   ROH46941  -2.640  16.207   8.104
13341CHOL    R146942  -2.784  16.272   8.078
13341CHOL    R246943  -2.805  16.497   8.022
13341CHOL    R346944  -2.946  16.345   8.049
13341CHOL    R446945  -2.931  16.554   8.000
13341CHOL    R546946  -3.089  16.410   8.023
13341CHOL    C146947  -3.305  16.507   7.984
13341CHOL    C246948  -3.521  16.605   7.945
13342CHOL   ROH46949  19.161  -0.569   9.504
13342CHOL    R146950  19.268  -0.688   9.500
13342CHOL    R246951  19.294  -0.819   9.309
13342CHOL    R346952  19.388  -0.822   9.495
13342CHOL    R446953  19.387  -0.923   9.305
13342CHOL    R546954  19.495  -0.941   9.491
13342CHOL    C146955  19.656  -1.119   9.485
13342CHOL    C246956  19.817  -1.297   9.479
13343CHOL   ROH46957  17.445  20.028   3.786
13343CHOL    R146958  17.535  20.136   3.710
13343CHOL    R246959  17.648  20.081   3.514
13343CHOL    R346960  17.636  20.258   3.624
13343CHOL    R446961  17.727  20.176   3.447
13343CHOL    R546962  17.726  20.366   3.547
13343CHOL    C146963  17.860  20.528   3.433
13343CHOL    C246964  17.995  20.690   3.319
13344CHOL   ROH46965   1.267  15.122  19.697
13344CHOL    R146966   1.172  15.180  19.811
13344CHOL    R246967   1.259  15.303  19.990
13344CHOL    R346968   1.064  15.246  19.940
13344CHOL    R446969   1.176  15.354  20.090
13344CHOL    R546970   0.969  15.304  20.055
13344CHOL    C146971   0.826  15.392  20.226
13344CHOL    C246972   0.683  15.480  20.398
13345CHOL   ROH46973  11.148  20.572   0.795
13345CHOL    R146974  11.157  20.692   0.689
13345CHOL    R246975  11.364  20.782   0.629
13345CHOL    R346976  11.168  20.826   0.570
13345CHOL    R446977  11.372  20.887   0.536
13345CHOL    R546978  11.177  20.945   0.464
13345CHOL    C146979  11.192  21.125   0.305
13345CHOL    C246980  11.206  21.304   0.146
13346CHOL   ROH46981  -2.353   9.409   3.007
13346CHOL    R146982  -2.493   9.401   2.931
13346CHOL    R246983  -2.612   9.201   2.919
13346CHOL    R346984  -2.651   9.392   2.844
13346CHOL    R446985  -2.735   9.194   2.852
13346CHOL    R546986  -2.792   9.384   2.768
13346CHOL    C146987  -3.002   9.371   2.653
13346CHOL    C246988  -3.212   9.359   2.539
13347CHOL   ROH46989  -1.619   3.826   4.512
13347CHOL    R146990  -1.751   3.753   4.459
13347CHOL    R246991  -1.963   3.823   4.529
13347CHOL    R346992  -1.900   3.671   4.400
13347CHOL    R446993  -2.079   3.760   4.482
13347CHOL    R546994  -2.033   3.599   4.347
13347CHOL    C146995  -2.231   3.489   4.268
13347CHOL    C246996  -2.429   3.380   4.189
13348CHOL   ROH46997   5.571  18.855  -0.158
13348CHOL    R146998   5.527  18.961  -0.270
13348CHOL    R246999   5.666  19.008  -0.452
13348CHOL    R347000   5.478  19.080  -0.396
13348CHOL    R447001   5.627  19.101  -0.549
13348CHOL    R547002   5.434  19.186  -0.508
13348CHOL    C147003   5.368  19.344  -0.675
13348CHOL    C247004   5.302  19.503  -0.843
13349CHOL   ROH47005   6.735  -3.319  13.304
13349CHOL    R147006   6.698  -3.471  13.340
13349CHOL    R247007   6.780  -3.647  13.212
13349CHOL    R347008   6.656  -3.641  13.379
13349CHOL    R447009   6.748  -3.780  13.243
13349CHOL    R547010   6.619  -3.793  13.415
13349CHOL    C147011   6.563  -4.020  13.468
13349CHOL    C247012   6.508  -4.247  13.522
13350CHOL   ROH47013  13.120  -2.258  16.062
13350CHOL    R147014  13.162  -2.398  16.128
13350CHOL    R247015  13.380  -2.435  16.201
13350CHOL    R347016  13.209  -2.554  16.202
13350CHOL    R447017  13.417  -2.557  16.258
13350CHOL    R547018  13.251  -2.694  16.268
13350CHOL    C147019  13.315  -2.903  16.367
13350CHOL    C247020  13.378  -3.113  16.466
13351CHOL   ROH47021   6.949  13.035  23.255
13351CHOL    R147022   6.916  13.063  23.409
13351CHOL    R247023   7.048  12.972  23.578
13351CHOL    R347024   6.878  13.093  23.582
13351CHOL    R447025   7.019  12.996  23.713
13351CHOL    R547026   6.845  13.121  23.736
13351CHOL    C147027   6.795  13.162  23.968
13351CHOL    C247028   6.745  13.204  24.199
13352CHOL   ROH47029  20.090   9.720   0.345
13352CHOL    R147030  20.210   9.720   0.239
13352CHOL    R247031  20.274   9.916   0.131
13352CHOL    R347032  20.345   9.720   0.120
13352CHOL    R447033  20.379   9.917   0.038
13352CHOL    R547034  20.465   9.720   0.015
13352CHOL    C147035  20.645   9.721  -0.144
13352CHOL    C247036  20.825   9.721  -0.303
13353CHOL   ROH47037  16.515   6.048  -1.761
13353CHOL    R147038  16.589   6.007  -1.897
13353CHOL    R247039  16.797   6.097  -1.952
13353CHOL    R347040  16.673   5.960  -2.049
13353CHOL    R447041  16.862   6.061  -2.071
13353CHOL    R547042  16.747   5.919  -2.184
13353CHOL    C147043  16.858   5.856  -2.388
13353CHOL    C247044  16.970   5.794  -2.591
13354CHOL   ROH47045   5.873   3.659  21.862
13354CHOL    R147046   5.837   3.592  22.003
13354CHOL    R247047   5.877   3.365  22.042
13354CHOL    R347048   5.798   3.517  22.162
13354CHOL    R447049   5.846   3.307  22.165
13354CHOL    R547050   5.762   3.450  22.303
13354CHOL    C147051   5.709   3.349  22.514
13354CHOL    C247052   5.655   3.248  22.725
13355CHOL   ROH47053  13.242  12.425  -3.494
13355CHOL    R147054  13.280  12.455  -3.647
13355CHOL    R247055  13.147  12.375  -3.821
13355CHOL    R347056  13.323  12.488  -3.818
13355CHOL    R447057  13.180  12.401  -3.954
13355CHOL    R547058  13.360  12.518  -3.971
13355CHOL    C147059  13.417  12.562  -4.200
13355CHOL    C247060  13.474  12.606  -4.429
13356CHOL   ROH47061   6.543  19.059  -0.283
13356CHOL    R147062   6.512  19.169  -0.395
13356CHOL    R247063   6.551  19.395  -0.356
13356CHOL    R347064   6.477  19.292  -0.522
13356CHOL    R447065   6.524  19.491  -0.454
13356CHOL    R547066   6.447  19.401  -0.634
13356CHOL    C147067   6.400  19.566  -0.802
13356CHOL    C247068   6.354  19.730  -0.971
13357CHOL   ROH47069  12.598  -2.819   4.695
13357CHOL    R147070  12.633  -2.963   4.635
13357CHOL    R247071  12.780  -2.985   4.455
13357CHOL    R347072  12.673  -3.125   4.568
13357CHOL    R447073  12.811  -3.111   4.402
13357CHOL    R547074  12.709  -3.269   4.508
13357CHOL    C147075  12.762  -3.485   4.418
13357CHOL    C247076  12.815  -3.701   4.328
13358CHOL   ROH47077  22.998  13.820  13.036
13358CHOL    R147078  23.148  13.860  13.075
13358CHOL    R247079  23.311  13.697  13.107
13358CHOL    R347080  23.317  13.905  13.118
13358CHOL    R447081  23.443  13.732  13.141
13358CHOL    R547082  23.467  13.945  13.156
13358CHOL    C147083  23.692  14.005  13.214
13358CHOL    C247084  23.917  14.065  13.272
13359CHOL   ROH47085   4.418   6.084  -2.483
13359CHOL    R147086   4.356   6.040  -2.624
13359CHOL    R247087   4.468   5.889  -2.762
13359CHOL    R347088   4.287   5.992  -2.783
13359CHOL    R447089   4.414   5.851  -2.886
13359CHOL    R547090   4.226   5.948  -2.924
13359CHOL    C147091   4.133   5.883  -3.136
13359CHOL    C247092   4.041   5.817  -3.347
13360CHOL   ROH47093  12.627  11.825  -3.739
13360CHOL    R147094  12.659  11.849  -3.894
13360CHOL    R247095  12.552  11.725  -4.060
13360CHOL    R347096  12.696  11.876  -4.068
13360CHOL    R447097  12.580  11.746  -4.195
13360CHOL    R547098  12.728  11.900  -4.223
13360CHOL    C147099  12.776  11.936  -4.455
13360CHOL    C247100  12.825  11.972  -4.688
13361CHOL   ROH47101  13.850  -0.980   2.121
13361CHOL    R147102  13.895  -1.103   2.029
13361CHOL    R247103  14.092  -1.093   1.904
13361CHOL    R347104  13.946  -1.241   1.925
13361CHOL    R447105  14.131  -1.201   1.824
13361CHOL    R547106  13.991  -1.363   1.832
13361CHOL    C147107  14.058  -1.548   1.694
13361CHOL    C247108  14.125  -1.732   1.556
13362CHOL   ROH47109  17.152  18.098   1.083
13362CHOL    R147110  17.237  18.193   0.987
13362CHOL    R247111  17.460  18.146   0.938
13362CHOL    R347112  17.333  18.300   0.878
13362CHOL    R447113  17.535  18.229   0.854
13362CHOL    R547114  17.419  18.395   0.782
13362CHOL    C147115  17.546  18.538   0.638
13362CHOL    C247116  17.674  18.680   0.493
13363CHOL   ROH47117  10.423   3.990  22.634
13363CHOL    R147118  10.423   3.921  22.778
13363CHOL    R247119  10.604   3.948  22.924
13363CHOL    R347120  10.423   3.844  22.941
13363CHOL    R447121  10.604   3.888  23.050
13363CHOL    R547122  10.423   3.775  23.085
13363CHOL    C147123  10.424   3.672  23.302
13363CHOL    C247124  10.424   3.569  23.519
13364CHOL   ROH47125   1.818  20.531  14.550
13364CHOL    R147126   1.730  20.654  14.602
13364CHOL    R247127   1.695  20.690  14.829
13364CHOL    R347128   1.630  20.793  14.659
13364CHOL    R447129   1.618  20.798  14.874
13364CHOL    R547130   1.542  20.916  14.711
13364CHOL    C147131   1.410  21.101  14.788
13364CHOL    C247132   1.277  21.286  14.866
13365CHOL   ROH47133   6.799   2.831  -1.848
13365CHOL    R147134   6.763   2.747  -1.980
13365CHOL    R247135   6.884   2.557  -2.037
13365CHOL    R347136   6.723   2.654  -2.128
13365CHOL    R447137   6.853   2.484  -2.152
13365CHOL    R547138   6.687   2.570  -2.259
13365CHOL    C147139   6.633   2.445  -2.457
13365CHOL    C247140   6.579   2.319  -2.655
13366CHOL   ROH47141  21.110  17.774   7.058
13366CHOL    R147142  21.239  17.862   7.024
13366CHOL    R247143  21.407  17.779   6.885
13366CHOL    R347144  21.384  17.961   6.985
13366CHOL    R447145  21.520  17.856   6.855
13366CHOL    R547146  21.514  18.049   6.951
13366CHOL    C147147  21.707  18.181   6.899
13366CHOL    C247148  21.901  18.313   6.847
13367CHOL   ROH47149   6.155  17.896  20.921
13367CHOL    R147150   6.115  17.992  21.042
13367CHOL    R247151   6.238  17.994  21.240
13367CHOL    R347152   6.069  18.100  21.179
13367CHOL    R447153   6.203  18.078  21.346
13367CHOL    R547154   6.029  18.196  21.300
13367CHOL    C147155   5.968  18.340  21.483
13367CHOL    C247156   5.907  18.484  21.665
13368CHOL   ROH47157  22.711  15.526   9.306
13368CHOL    R147158  22.858  15.590   9.296
13368CHOL    R247159  23.036  15.467   9.208
13368CHOL    R347160  23.022  15.661   9.284
13368CHOL    R447161  23.164  15.522   9.200
13368CHOL    R547162  23.169  15.724   9.274
13368CHOL    C147163  23.389  15.820   9.259
13368CHOL    C247164  23.609  15.915   9.243
13369CHOL   ROH47165  17.175   5.440  -1.145
13369CHOL    R147166  17.259   5.388  -1.271
13369CHOL    R247167  17.426   5.520  -1.367
13369CHOL    R347168  17.353   5.330  -1.413
13369CHOL    R447169  17.499   5.475  -1.477
13369CHOL    R547170  17.436   5.278  -1.540
13369CHOL    C147171  17.562   5.200  -1.729
13369CHOL    C247172  17.688   5.122  -1.918
13370CHOL   ROH47173  10.315  21.769  17.641
13370CHOL    R147174  10.324  21.901  17.731
13370CHOL    R247175  10.431  22.093  17.653
13370CHOL    R347176  10.334  22.049  17.833
13370CHOL    R447177  10.439  22.208  17.732
13370CHOL    R547178  10.343  22.181  17.923
13370CHOL    C147179  10.357  22.379  18.058
13370CHOL    C247180  10.371  22.577  18.194
13371CHOL   ROH47181  22.682   9.598  15.749
13371CHOL    R147182  22.826   9.592  15.819
13371CHOL    R247183  23.004   9.480  15.719
13371CHOL    R347184  22.987   9.585  15.898
13371CHOL    R447185  23.130   9.474  15.780
13371CHOL    R547186  23.131   9.578  15.969
13371CHOL    C147187  23.347   9.569  16.074
13371CHOL    C247188  23.562   9.560  16.179
13372CHOL   ROH47189  -2.100  13.304   3.346
13372CHOL    R147190  -2.239  13.346   3.280
13372CHOL    R247191  -2.417  13.421   3.411
13372CHOL    R347192  -2.396  13.394   3.205
13372CHOL    R447193  -2.539  13.458   3.353
13372CHOL    R547194  -2.536  13.436   3.139
13372CHOL    C147195  -2.745  13.499   3.040
13372CHOL    C247196  -2.954  13.563   2.940
13373CHOL   ROH47197  21.719  17.382  11.379
13373CHOL    R147198  21.854  17.467  11.396
13373CHOL    R247199  22.044  17.372  11.491
13373CHOL    R347200  22.005  17.563  11.414
13373CHOL    R447201  22.162  17.447  11.506
13373CHOL    R547202  22.139  17.648  11.431
13373CHOL    C147203  22.341  17.775  11.456
13373CHOL    C247204  22.543  17.902  11.481
13374CHOL   ROH47205   2.377  21.828  10.083
13374CHOL    R147206   2.291  21.963  10.076
13374CHOL    R247207   2.358  22.140   9.940
13374CHOL    R347208   2.195  22.115  10.069
13374CHOL    R447209   2.283  22.258   9.934
13374CHOL    R547210   2.110  22.250  10.062
13374CHOL    C147211   1.981  22.453  10.052
13374CHOL    C247212   1.853  22.655  10.042
13375CHOL   ROH47213  12.909   0.820  -0.253
13375CHOL    R147214  12.945   0.715  -0.368
13375CHOL    R247215  13.101   0.767  -0.533
13375CHOL    R347216  12.985   0.597  -0.498
13375CHOL    R447217  13.133   0.675  -0.634
13375CHOL    R547218  13.021   0.491  -0.613
13375CHOL    C147219  13.075   0.334  -0.786
13375CHOL    C247220  13.129   0.176  -0.959
13376CHOL   ROH47221   8.155   6.919  23.505
13376CHOL    R147222   8.133   6.878  23.658
13376CHOL    R247223   8.312   6.802  23.788
13376CHOL    R347224   8.109   6.831  23.830
13376CHOL    R447225   8.293   6.766  23.922
13376CHOL    R547226   8.088   6.789  23.983
13376CHOL    C147227   8.055   6.727  24.212
13376CHOL    C247228   8.023   6.665  24.442
13377CHOL   ROH47229  10.644  17.214  -2.084
13377CHOL    R147230  10.656  17.295  -2.221
13377CHOL    R247231  10.854  17.404  -2.280
13377CHOL    R347232  10.669  17.386  -2.376
13377CHOL    R447233  10.864  17.475  -2.400
13377CHOL    R547234  10.681  17.468  -2.513
13377CHOL    C147235  10.699  17.589  -2.720
13377CHOL    C247236  10.717  17.711  -2.926
13378CHOL   ROH47237  -2.523  16.713  10.240
13378CHOL    R147238  -2.664  16.788  10.247
13378CHOL    R247239  -2.828  16.721  10.398
13378CHOL    R347240  -2.823  16.872  10.254
13378CHOL    R447241  -2.952  16.787  10.404
13378CHOL    R547242  -2.964  16.947  10.261
13378CHOL    C147243  -3.176  17.059  10.270
13378CHOL    C247244  -3.387  17.172  10.280
13379CHOL   ROH47245   9.604  -1.456   1.788
13379CHOL    R147246   9.600  -1.587   1.696
13379CHOL    R247247   9.754  -1.759   1.725
13379CHOL    R347248   9.595  -1.734   1.592
13379CHOL    R447249   9.750  -1.873   1.644
13379CHOL    R547250   9.590  -1.865   1.500
13379CHOL    C147251   9.584  -2.061   1.362
13379CHOL    C247252   9.578  -2.257   1.224
13380CHOL   ROH47253  21.863   2.962  12.108
13380CHOL    R147254  21.999   2.882  12.134
13380CHOL    R247255  22.045   2.684  12.019
13380CHOL    R347256  22.152   2.791  12.162
13380CHOL    R447257  22.164   2.614  12.041
13380CHOL    R547258  22.288   2.711  12.188
13380CHOL    C147259  22.492   2.591  12.226
13380CHOL    C247260  22.696   2.470  12.265
13381CHOL   ROH47261  12.685  19.218  -0.324
13381CHOL    R147262  12.709  19.320  -0.444
13381CHOL    R247263  12.763  19.244  -0.658
13381CHOL    R347264  12.737  19.436  -0.580
13381CHOL    R447265  12.784  19.333  -0.763
13381CHOL    R547266  12.761  19.538  -0.701
13381CHOL    C147267  12.797  19.692  -0.881
13381CHOL    C247268  12.834  19.845  -1.062
13382CHOL   ROH47269  12.389  12.248  -3.714
13382CHOL    R147270  12.418  12.277  -3.869
13382CHOL    R247271  12.298  12.167  -4.036
13382CHOL    R347272  12.451  12.310  -4.043
13382CHOL    R447273  12.324  12.192  -4.171
13382CHOL    R547274  12.480  12.338  -4.198
13382CHOL    C147275  12.523  12.382  -4.430
13382CHOL    C247276  12.566  12.425  -4.662
13383CHOL   ROH47277   4.404  -2.244  14.258
13383CHOL    R147278   4.343  -2.384  14.307
13383CHOL    R247279   4.480  -2.568  14.345
13383CHOL    R347280   4.273  -2.540  14.361
13383CHOL    R447281   4.426  -2.690  14.387
13383CHOL    R547282   4.212  -2.680  14.410
13383CHOL    C147283   4.120  -2.889  14.483
13383CHOL    C247284   4.028  -3.099  14.556
13384CHOL   ROH47285  14.561  16.230  21.598
13384CHOL    R147286  14.612  16.301  21.732
13384CHOL    R247287  14.688  16.175  21.913
13384CHOL    R347288  14.669  16.381  21.883
13384CHOL    R447289  14.732  16.237  22.030
13384CHOL    R547290  14.721  16.452  22.017
13384CHOL    C147291  14.797  16.558  22.218
13384CHOL    C247292  14.874  16.664  22.419
13385CHOL   ROH47293   9.872   3.505  22.384
13385CHOL    R147294   9.868   3.431  22.526
13385CHOL    R247295  10.013   3.493  22.698
13385CHOL    R347296   9.863   3.348  22.686
13385CHOL    R447297  10.009   3.428  22.822
13385CHOL    R547298   9.858   3.274  22.827
13385CHOL    C147299   9.852   3.163  23.040
13385CHOL    C247300   9.846   3.052  23.253
13386CHOL   ROH47301  23.505   9.049   6.919
13386CHOL    R147302  23.661   9.038   6.887
13386CHOL    R247303  23.742   9.063   6.670
13386CHOL    R347304  23.838   9.026   6.852
13386CHOL    R447305  23.879   9.054   6.642
13386CHOL    R547306  23.994   9.016   6.821
13386CHOL    C147307  24.229   8.999   6.773
13386CHOL    C247308  24.463   8.983   6.726
13387CHOL   ROH47309   8.002   4.776  22.749
13387CHOL    R147310   7.978   4.717  22.896
13387CHOL    R247311   8.075   4.817  23.083
13387CHOL    R347312   7.952   4.650  23.061
13387CHOL    R447313   8.054   4.766  23.211
13387CHOL    R547314   7.928   4.591  23.208
13387CHOL    C147315   7.892   4.502  23.428
13387CHOL    C247316   7.857   4.413  23.648
13388CHOL   ROH47317  -3.971   8.549  11.855
13388CHOL    R147318  -4.128   8.530  11.879
13388CHOL    R247319  -4.213   8.499  12.094
13388CHOL    R347320  -4.305   8.508  11.907
13388CHOL    R447321  -4.350   8.482  12.116
13388CHOL    R547322  -4.461   8.489  11.931
13388CHOL    C147323  -4.697   8.460  11.968
13388CHOL    C247324  -4.932   8.431  12.005
13389CHOL   ROH47325  -2.694  16.397   9.883
13389CHOL    R147326  -2.838  16.467   9.884
13389CHOL    R247327  -3.009  16.387  10.020
13389CHOL    R347328  -2.999  16.546   9.886
13389CHOL    R447329  -3.135  16.448  10.022
13389CHOL    R547330  -3.143  16.617   9.887
13389CHOL    C147331  -3.359  16.722   9.890
13389CHOL    C247332  -3.574  16.827   9.892
13390CHOL   ROH47333  20.708  12.778   1.487
13390CHOL    R147334  20.832  12.804   1.390
13390CHOL    R247335  20.802  12.904   1.181
13390CHOL    R347336  20.972  12.833   1.280
13390CHOL    R447337  20.911  12.927   1.096
13390CHOL    R547338  21.096  12.859   1.183
13390CHOL    C147339  21.282  12.898   1.036
13390CHOL    C247340  21.468  12.937   0.890
13391CHOL   ROH47341  16.032  -0.512   2.904
13391CHOL    R147342  16.103  -0.633   2.827
13391CHOL    R247343  16.328  -0.622   2.768
13391CHOL    R347344  16.183  -0.769   2.740
13391CHOL    R447345  16.390  -0.728   2.701
13391CHOL    R547346  16.254  -0.890   2.664
13391CHOL    C147347  16.360  -1.071   2.548
13391CHOL    C247348  16.466  -1.253   2.433
13392CHOL   ROH47349  20.021   0.270   9.491
13392CHOL    R147350  20.137   0.159   9.484
13392CHOL    R247351  20.153   0.014   9.303
13392CHOL    R347352  20.266   0.035   9.477
13392CHOL    R447353  20.254  -0.083   9.297
13392CHOL    R547354  20.382  -0.075   9.470
13392CHOL    C147355  20.555  -0.241   9.461
13392CHOL    C247356  20.729  -0.407   9.451
13393CHOL   ROH47357   5.739  -2.093  15.883
13393CHOL    R147358   5.691  -2.230  15.951
13393CHOL    R247359   5.723  -2.434  15.843
13393CHOL    R347360   5.637  -2.384  16.027
13393CHOL    R447361   5.682  -2.554  15.903
13393CHOL    R547362   5.590  -2.520  16.094
13393CHOL    C147363   5.518  -2.726  16.196
13393CHOL    C247364   5.446  -2.931  16.298
13394CHOL   ROH47365  14.250  -1.821  16.187
13394CHOL    R147366  14.299  -1.956  16.257
13394CHOL    R247367  14.526  -1.994  16.298
13394CHOL    R347368  14.355  -2.108  16.335
13394CHOL    R447369  14.569  -2.112  16.359
13394CHOL    R547370  14.405  -2.244  16.404
13394CHOL    C147371  14.479  -2.446  16.509
13394CHOL    C247372  14.553  -2.649  16.613
13395CHOL   ROH47373   4.862  22.468  13.979
13395CHOL    R147374   4.803  22.609  14.025
13395CHOL    R247375   4.746  22.649  14.247
13395CHOL    R347376   4.737  22.769  14.076
13395CHOL    R447377   4.695  22.773  14.288
13395CHOL    R547378   4.678  22.910  14.122
13395CHOL    C147379   4.589  23.122  14.191
13395CHOL    C247380   4.500  23.334  14.259
13396CHOL   ROH47381  19.507  15.656   1.361
13396CHOL    R147382  19.616  15.721   1.263
13396CHOL    R247383  19.836  15.643   1.259
13396CHOL    R347384  19.738  15.794   1.153
13396CHOL    R447385  19.931  15.700   1.174
13396CHOL    R547386  19.846  15.859   1.056
13396CHOL    C147387  20.009  15.957   0.909
13396CHOL    C247388  20.172  16.055   0.762
13397CHOL   ROH47389   6.344  23.543  11.526
13397CHOL    R147390   6.302  23.696  11.545
13397CHOL    R247391   6.391  23.824  11.719
13397CHOL    R347392   6.256  23.869  11.567
13397CHOL    R447393   6.355  23.958  11.736
13397CHOL    R547394   6.214  24.022  11.587
13397CHOL    C147395   6.152  24.252  11.616
13397CHOL    C247396   6.089  24.482  11.645
13398CHOL   ROH47397   6.477  18.165  -1.043
13398CHOL    R147398   6.442  18.261  -1.166
13398CHOL    R247399   6.572  18.260  -1.360
13398CHOL    R347400   6.402  18.368  -1.305
13398CHOL    R447401   6.541  18.344  -1.468
13398CHOL    R547402   6.367  18.463  -1.428
13398CHOL    C147403   6.313  18.607  -1.614
13398CHOL    C247404   6.260  18.750  -1.799
13399CHOL   ROH47405  -0.627   7.139  18.861
13399CHOL    R147406  -0.744   7.107  18.965
13399CHOL    R247407  -0.753   7.211  19.173
13399CHOL    R347408  -0.877   7.070  19.081
13399CHOL    R447409  -0.855   7.182  19.264
13399CHOL    R547410  -0.994   7.037  19.185
13399CHOL    C147411  -1.170   6.989  19.341
13399CHOL    C247412  -1.346   6.940  19.496
13400CHOL   ROH47413  23.174   8.261  14.204
13400CHOL    R147414  23.325   8.239  14.252
13400CHOL    R247415  23.438   8.040  14.208
13400CHOL    R347416  23.495   8.215  14.306
13400CHOL    R447417  23.570   8.021  14.250
13400CHOL    R547418  23.646   8.193  14.354
13400CHOL    C147419  23.873   8.161  14.426
13400CHOL    C247420  24.099   8.129  14.498
13401CHOL   ROH47421  13.491   0.363   0.400
13401CHOL    R147422  13.534   0.253   0.292
13401CHOL    R247423  13.751   0.248   0.206
13401CHOL    R347424  13.582   0.128   0.172
13401CHOL    R447425  13.788   0.151   0.112
13401CHOL    R547426  13.626   0.018   0.064
13401CHOL    C147427  13.690  -0.148  -0.097
13401CHOL    C247428  13.755  -0.313  -0.259
13402CHOL   ROH47429  13.165   0.973  -0.309
13402CHOL    R147430  13.203   0.869  -0.424
13402CHOL    R247431  13.377   0.914  -0.573
13402CHOL    R347432  13.247   0.752  -0.554
13402CHOL    R447433  13.411   0.823  -0.674
13402CHOL    R547434  13.285   0.648  -0.670
13402CHOL    C147435  13.343   0.492  -0.843
13402CHOL    C247436  13.400   0.336  -1.016
13403CHOL   ROH47437  -1.984   5.805   3.464
13403CHOL    R147438  -2.120   5.763   3.391
13403CHOL    R247439  -2.327   5.808   3.488
13403CHOL    R347440  -2.273   5.715   3.309
13403CHOL    R447441  -2.446   5.771   3.424
13403CHOL    R547442  -2.409   5.672   3.236
13403CHOL    C147443  -2.613   5.609   3.127
13403CHOL    C247444  -2.817   5.545   3.018
13404CHOL   ROH47445  19.205   7.029  -0.148
13404CHOL    R147446  19.309   6.992  -0.264
13404CHOL    R247447  19.241   6.875  -0.454
13404CHOL    R347448  19.426   6.950  -0.394
13404CHOL    R447449  19.332   6.842  -0.555
13404CHOL    R547450  19.530   6.913  -0.510
13404CHOL    C147451  19.686   6.857  -0.684
13404CHOL    C247452  19.842   6.802  -0.858
13405CHOL   ROH47453   8.780  22.424  16.440
13405CHOL    R147454   8.767  22.566  16.513
13405CHOL    R247455   8.892  22.616  16.703
13405CHOL    R347456   8.751  22.726  16.595
13405CHOL    R447457   8.880  22.740  16.767
13405CHOL    R547458   8.738  22.868  16.667
13405CHOL    C147459   8.718  23.080  16.777
13405CHOL    C247460   8.698  23.293  16.886
13406CHOL   ROH47461  -3.558  14.196   9.396
13406CHOL    R147462  -3.711  14.244   9.389
13406CHOL    R247463  -3.766  14.462   9.327
13406CHOL    R347464  -3.882  14.297   9.380
13406CHOL    R447465  -3.899  14.503   9.321
13406CHOL    R547466  -4.035  14.344   9.373
13406CHOL    C147467  -4.264  14.416   9.362
13406CHOL    C247468  -4.493  14.487   9.351
13407CHOL   ROH47469  -0.565  19.013  12.607
13407CHOL    R147470  -0.686  19.112  12.639
13407CHOL    R247471  -0.688  19.330  12.555
13407CHOL    R347472  -0.823  19.224  12.675
13407CHOL    R447473  -0.794  19.417  12.583
13407CHOL    R547474  -0.944  19.323  12.706
13407CHOL    C147475  -1.126  19.473  12.754
13407CHOL    C247476  -1.308  19.622  12.802
13408CHOL   ROH47477   8.814  -3.533  13.790
13408CHOL    R147478   8.802  -3.687  13.833
13408CHOL    R247479   8.991  -3.813  13.883
13408CHOL    R347480   8.788  -3.859  13.881
13408CHOL    R447481   8.980  -3.947  13.921
13408CHOL    R547482   8.775  -4.013  13.925
13408CHOL    C147483   8.757  -4.243  13.989
13408CHOL    C247484   8.739  -4.474  14.054
13409CHOL   ROH47485   9.407  -0.638   0.738
13409CHOL    R147486   9.401  -0.760   0.635
13409CHOL    R247487   9.491  -0.740   0.420
13409CHOL    R347488   9.394  -0.897   0.519
13409CHOL    R447489   9.485  -0.847   0.330
13409CHOL    R547490   9.389  -1.020   0.416
13409CHOL    C147491   9.380  -1.203   0.261
13409CHOL    C247492   9.371  -1.386   0.106
13410CHOL   ROH47493  17.668  19.269   2.999
13410CHOL    R147494  17.758  19.374   2.919
13410CHOL    R247495  17.829  19.330   2.701
13410CHOL    R347496  17.860  19.492   2.829
13410CHOL    R447497  17.908  19.422   2.631
13410CHOL    R547498  17.950  19.598   2.749
13410CHOL    C147499  18.085  19.755   2.629
13410CHOL    C247500  18.221  19.913   2.509
13411CHOL   ROH47501  10.175  22.508  16.369
13411CHOL    R147502  10.179  22.651  16.441
13411CHOL    R247503  10.229  22.844  16.321
13411CHOL    R347504  10.185  22.812  16.522
13411CHOL    R447505  10.233  22.969  16.384
13411CHOL    R547506  10.189  22.955  16.594
13411CHOL    C147507  10.196  23.169  16.702
13411CHOL    C247508  10.202  23.383  16.810
13412CHOL   ROH47509  19.964   3.772   2.465
13412CHOL    R147510  20.076   3.701   2.375
13412CHOL    R247511  20.272   3.814   2.318
13412CHOL    R347512  20.202   3.622   2.274
13412CHOL    R447513  20.370   3.752   2.239
13412CHOL    R547514  20.315   3.552   2.184
13412CHOL    C147515  20.483   3.446   2.050
13412CHOL    C247516  20.651   3.340   1.915
13413CHOL   ROH47517   5.225  22.664  13.808
13413CHOL    R147518   5.172  22.808  13.852
13413CHOL    R247519   5.131  22.858  14.077
13413CHOL    R347520   5.112  22.971  13.902
13413CHOL    R447521   5.085  22.984  14.115
13413CHOL    R547522   5.060  23.115  13.947
13413CHOL    C147523   4.980  23.331  14.013
13413CHOL    C247524   4.901  23.548  14.079
13414CHOL   ROH47525  23.407   6.400   8.832
13414CHOL    R147526  23.563   6.365   8.819
13414CHOL    R247527  23.663   6.340   8.610
13414CHOL    R347528  23.738   6.327   8.804
13414CHOL    R447529  23.799   6.310   8.599
13414CHOL    R547530  23.894   6.292   8.792
13414CHOL    C147531  24.127   6.240   8.772
13414CHOL    C247532  24.361   6.188   8.753
13415CHOL   ROH47533  22.872   5.072   7.921
13415CHOL    R147534  23.018   5.013   7.896
13415CHOL    R247535  23.114   5.017   7.683
13415CHOL    R347536  23.183   4.946   7.867
13415CHOL    R447537  23.242   4.966   7.661
13415CHOL    R547538  23.329   4.887   7.841
13415CHOL    C147539  23.549   4.798   7.803
13415CHOL    C247540  23.769   4.709   7.765
13416CHOL   ROH47541  15.908  10.967  -2.682
13416CHOL    R147542  15.980  10.975  -2.825
13416CHOL    R247543  15.928  11.145  -2.976
13416CHOL    R347544  16.060  10.984  -2.986
13416CHOL    R447545  15.991  11.152  -3.101
13416CHOL    R547546  16.132  10.992  -3.128
13416CHOL    C147547  16.240  11.003  -3.343
13416CHOL    C247548  16.347  11.015  -3.557
13417CHOL   ROH47549  21.580  15.207   4.114
13417CHOL    R147550  21.713  15.267   4.048
13417CHOL    R247551  21.702  15.437   3.889
13417CHOL    R347552  21.863  15.333   3.973
13417CHOL    R447553  21.818  15.489   3.831
13417CHOL    R547554  21.995  15.393   3.907
13417CHOL    C147555  22.195  15.482   3.808
13417CHOL    C247556  22.394  15.572   3.708
13418CHOL   ROH47557   7.759  18.714  -0.866
13418CHOL    R147558   7.740  18.818  -0.986
13418CHOL    R247559   7.762  19.048  -0.950
13418CHOL    R347560   7.719  18.936  -1.121
13418CHOL    R447561   7.745  19.139  -1.055
13418CHOL    R547562   7.700  19.040  -1.241
13418CHOL    C147563   7.672  19.196  -1.420
13418CHOL    C247564   7.643  19.353  -1.600
13419CHOL   ROH47565   7.420  23.664   7.635
13419CHOL    R147566   7.398  23.821   7.611
13419CHOL    R247567   7.565  23.951   7.512
13419CHOL    R347568   7.374  23.997   7.583
13419CHOL    R447569   7.546  24.088   7.491
13419CHOL    R547570   7.353  24.153   7.559
13419CHOL    C147571   7.320  24.388   7.523
13419CHOL    C247572   7.288  24.623   7.486
13420CHOL   ROH47573   6.584  21.148   2.141
13420CHOL    R147574   6.548  21.274   2.050
13420CHOL    R247575   6.607  21.490   2.115
13420CHOL    R347576   6.508  21.416   1.947
13420CHOL    R447577   6.576  21.601   2.035
13420CHOL    R547578   6.472  21.543   1.856
13420CHOL    C147579   6.418  21.732   1.718
13420CHOL    C247580   6.364  21.921   1.581
13421CHOL   ROH47581  16.782  -1.837  12.985
13421CHOL    R147582  16.861  -1.972  13.019
13421CHOL    R247583  17.043  -2.039  12.890
13421CHOL    R347584  16.950  -2.124  13.056
13421CHOL    R447585  17.113  -2.157  12.919
13421CHOL    R547586  17.030  -2.258  13.090
13421CHOL    C147587  17.148  -2.461  13.140
13421CHOL    C247588  17.267  -2.663  13.191
13422CHOL   ROH47589  10.525  14.942  -3.176
13422CHOL    R147590  10.535  14.999  -3.325
13422CHOL    R247591  10.633  14.872  -3.495
13422CHOL    R347592  10.546  15.062  -3.493
13422CHOL    R447593  10.642  14.922  -3.626
13422CHOL    R547594  10.556  15.119  -3.643
13422CHOL    C147595  10.572  15.204  -3.866
13422CHOL    C247596  10.587  15.289  -4.090
13423CHOL   ROH47597  17.849  20.841   5.712
13423CHOL    R147598  17.939  20.963   5.662
13423CHOL    R247599  18.155  20.994   5.744
13423CHOL    R347600  18.041  21.101   5.606
13423CHOL    R447601  18.235  21.101   5.701
13423CHOL    R547602  18.132  21.223   5.556
13423CHOL    C147603  18.267  21.406   5.481
13423CHOL    C247604  18.403  21.590   5.406
13424CHOL   ROH47605   1.002   3.388  18.544
13424CHOL    R147606   0.903   3.316  18.647
13424CHOL    R247607   0.981   3.155  18.797
13424CHOL    R347608   0.791   3.234  18.762
13424CHOL    R447609   0.895   3.092  18.886
13424CHOL    R547610   0.692   3.161  18.865
13424CHOL    C147611   0.543   3.053  19.018
13424CHOL    C247612   0.394   2.944  19.172
13425CHOL   ROH47613   6.062  20.362   1.318
13425CHOL    R147614   6.022  20.483   1.221
13425CHOL    R247615   6.062  20.704   1.284
13425CHOL    R347616   5.978  20.619   1.113
13425CHOL    R447617   6.027  20.810   1.199
13425CHOL    R547618   5.938  20.740   1.016
13425CHOL    C147619   5.878  20.922   0.871
13425CHOL    C247620   5.819  21.104   0.726
13426CHOL   ROH47621  22.324  16.405  10.887
13426CHOL    R147622  22.466  16.478  10.896
13426CHOL    R247623  22.659  16.359  10.951
13426CHOL    R347624  22.626  16.560  10.906
13426CHOL    R447625  22.783  16.423  10.959
13426CHOL    R547626  22.768  16.633  10.916
13426CHOL    C147627  22.981  16.742  10.929
13426CHOL    C247628  23.194  16.852  10.943
13427CHOL   ROH47629  21.709   6.871   2.964
13427CHOL    R147630  21.844   6.838   2.884
13427CHOL    R247631  21.845   6.820   2.652
13427CHOL    R347632  21.996   6.802   2.795
13427CHOL    R447633  21.963   6.792   2.582
13427CHOL    R547634  22.131   6.769   2.715
13427CHOL    C147635  22.333   6.720   2.596
13427CHOL    C247636  22.535   6.671   2.477
13428CHOL   ROH47637  -1.888   3.279  13.647
13428CHOL    R147638  -2.022   3.203  13.690
13428CHOL    R247639  -2.137   3.263  13.884
13428CHOL    R347640  -2.174   3.119  13.738
13428CHOL    R447641  -2.254   3.197  13.922
13428CHOL    R547642  -2.308   3.043  13.780
13428CHOL    C147643  -2.510   2.930  13.845
13428CHOL    C247644  -2.711   2.816  13.909
13429CHOL   ROH47645  17.689  19.298  16.838
13429CHOL    R147646  17.780  19.408  16.910
13429CHOL    R247647  17.797  19.624  16.824
13429CHOL    R347648  17.882  19.532  16.991
13429CHOL    R447649  17.877  19.721  16.887
13429CHOL    R547650  17.973  19.643  17.063
13429CHOL    C147651  18.109  19.808  17.172
13429CHOL    C247652  18.246  19.973  17.280
13430CHOL   ROH47653  23.475  13.504  10.231
13430CHOL    R147654  23.630  13.542  10.237
13430CHOL    R247655  23.769  13.512  10.052
13430CHOL    R347656  23.805  13.585  10.244
13430CHOL    R447657  23.905  13.546  10.057
13430CHOL    R547658  23.961  13.623  10.250
13430CHOL    C147659  24.194  13.680  10.260
13430CHOL    C247660  24.427  13.737  10.269
13431CHOL   ROH47661  11.338  22.935   4.768
13431CHOL    R147662  11.363  23.082   4.711
13431CHOL    R247663  11.560  23.136   4.598
13431CHOL    R347664  11.390  23.248   4.646
13431CHOL    R447665  11.581  23.264   4.548
13431CHOL    R547666  11.415  23.395   4.589
13431CHOL    C147667  11.452  23.616   4.502
13431CHOL    C247668  11.489  23.837   4.416
13432CHOL   ROH47669   0.430  20.397  10.238
13432CHOL    R147670   0.324  20.517  10.237
13432CHOL    R247671   0.339  20.692  10.390
13432CHOL    R347672   0.205  20.652  10.235
13432CHOL    R447673   0.246  20.797  10.389
13432CHOL    R547674   0.099  20.772  10.234
13432CHOL    C147675  -0.061  20.951  10.232
13432CHOL    C247676  -0.220  21.131  10.230
13433CHOL   ROH47677   8.545   1.480  -1.225
13433CHOL    R147678   8.530   1.382  -1.350
13433CHOL    R247679   8.648   1.180  -1.359
13433CHOL    R347680   8.514   1.271  -1.491
13433CHOL    R447681   8.635   1.094  -1.469
13433CHOL    R547682   8.500   1.173  -1.617
13433CHOL    C147683   8.478   1.025  -1.804
13433CHOL    C247684   8.456   0.877  -1.992
13434CHOL   ROH47685  23.118  10.649   5.347
13434CHOL    R147686  23.270  10.654   5.296
13434CHOL    R247687  23.366  10.472   5.186
13434CHOL    R347688  23.440  10.660   5.239
13434CHOL    R447689  23.498  10.477   5.142
13434CHOL    R547690  23.591  10.666   5.188
13434CHOL    C147691  23.819  10.673   5.111
13434CHOL    C247692  24.046  10.681   5.034
13435CHOL   ROH47693  11.724  18.020  21.316
13435CHOL    R147694  11.745  18.109  21.447
13435CHOL    R247695  11.940  18.234  21.477
13435CHOL    R347696  11.770  18.209  21.594
13435CHOL    R447697  11.959  18.312  21.591
13435CHOL    R547698  11.791  18.299  21.725
13435CHOL    C147699  11.823  18.432  21.922
13435CHOL    C247700  11.855  18.566  22.119
13436CHOL   ROH47701   4.883  13.268  -2.810
13436CHOL    R147702   4.823  13.306  -2.954
13436CHOL    R247703   4.661  13.472  -2.976
13436CHOL    R347704   4.756  13.348  -3.115
13436CHOL    R447705   4.609  13.505  -3.102
13436CHOL    R547706   4.696  13.386  -3.259
13436CHOL    C147707   4.606  13.442  -3.474
13436CHOL    C247708   4.516  13.498  -3.689
13437CHOL   ROH47709  13.638  23.305  12.363
13437CHOL    R147710  13.679  23.457  12.394
13437CHOL    R247711  13.817  23.510  12.574
13437CHOL    R347712  13.725  23.627  12.428
13437CHOL    R447713  13.853  23.642  12.600
13437CHOL    R547714  13.766  23.779  12.459
13437CHOL    C147715  13.827  24.007  12.504
13437CHOL    C247716  13.889  24.234  12.550
13438CHOL   ROH47717  13.466  14.761  -2.759
13438CHOL    R147718  13.504  14.817  -2.904
13438CHOL    R247719  13.473  14.686  -3.095
13438CHOL    R347720  13.547  14.880  -3.067
13438CHOL    R447721  13.506  14.735  -3.222
13438CHOL    R547722  13.584  14.935  -3.212
13438CHOL    C147723  13.641  15.019  -3.429
13438CHOL    C247724  13.698  15.103  -3.647
13439CHOL   ROH47725  15.420  13.322  -2.581
13439CHOL    R147726  15.482  13.359  -2.724
13439CHOL    R247727  15.415  13.247  -2.917
13439CHOL    R347728  15.552  13.401  -2.884
13439CHOL    R447729  15.469  13.279  -3.042
13439CHOL    R547730  15.614  13.438  -3.027
13439CHOL    C147731  15.707  13.494  -3.241
13439CHOL    C247732  15.800  13.549  -3.455
13440CHOL   ROH47733  19.175  19.428  14.225
13440CHOL    R147734  19.280  19.537  14.277
13440CHOL    R247735  19.490  19.474  14.355
13440CHOL    R347736  19.398  19.660  14.335
13440CHOL    R447737  19.582  19.569  14.400
13440CHOL    R547738  19.503  19.769  14.387
13440CHOL    C147739  19.661  19.933  14.464
13440CHOL    C247740  19.819  20.096  14.542
13441CHOL   ROH47741  17.484  14.486  -0.967
13441CHOL    R147742  17.571  14.538  -1.091
13441CHOL    R247743  17.479  14.554  -1.304
13441CHOL    R347744  17.669  14.598  -1.229
13441CHOL    R447745  17.555  14.600  -1.412
13441CHOL    R547746  17.756  14.650  -1.353
13441CHOL    C147747  17.887  14.729  -1.538
13441CHOL    C247748  18.018  14.807  -1.724
13442CHOL   ROH47749  19.145   5.726   0.322
13442CHOL    R147750  19.249   5.672   0.213
13442CHOL    R247751  19.177   5.602   0.003
13442CHOL    R347752  19.366   5.612   0.090
13442CHOL    R447753  19.268   5.555  -0.093
13442CHOL    R547754  19.470   5.558  -0.019
13442CHOL    C147755  19.626   5.478  -0.183
13442CHOL    C247756  19.782   5.398  -0.346
13443CHOL   ROH47757  14.470  20.676  17.783
13443CHOL    R147758  14.521  20.799  17.872
13443CHOL    R247759  14.654  20.764  18.060
13443CHOL    R347760  14.577  20.937  17.972
13443CHOL    R447761  14.699  20.872  18.137
13443CHOL    R547762  14.628  21.061  18.060
13443CHOL    C147763  14.704  21.245  18.194
13443CHOL    C247764  14.780  21.430  18.327
13444CHOL   ROH47765  13.602  14.488  22.679
13444CHOL    R147766  13.638  14.544  22.825
13444CHOL    R247767  13.798  14.438  22.958
13444CHOL    R347768  13.678  14.607  22.988
13444CHOL    R447769  13.829  14.487  23.085
13444CHOL    R547770  13.714  14.662  23.134
13444CHOL    C147771  13.768  14.746  23.352
13444CHOL    C247772  13.822  14.830  23.571
13445CHOL   ROH47773  14.212  18.057  20.616
13445CHOL    R147774  14.261  18.146  20.739
13445CHOL    R247775  14.430  18.072  20.882
13445CHOL    R347776  14.316  18.247  20.878
13445CHOL    R447777  14.473  18.150  20.990
13445CHOL    R547778  14.365  18.336  21.001
13445CHOL    C147779  14.438  18.470  21.187
13445CHOL    C247780  14.512  18.604  21.372
13446CHOL   ROH47781   0.917   7.542  20.456
13446CHOL    R147782   0.816   7.509  20.576
13446CHOL    R247783   0.888   7.513  20.797
13446CHOL    R347784   0.703   7.472  20.710
13446CHOL    R447785   0.800   7.484  20.902
13446CHOL    R547786   0.602   7.439  20.830
13446CHOL    C147787   0.451   7.390  21.010
13446CHOL    C247788   0.300   7.340  21.189
13447CHOL   ROH47789   1.545  19.454  16.205
13447CHOL    R147790   1.449  19.561  16.275
13447CHOL    R247791   1.478  19.621  16.498
13447CHOL    R347792   1.340  19.681  16.354
13447CHOL    R447793   1.394  19.715  16.559
13447CHOL    R547794   1.244  19.788  16.423
13447CHOL    C147795   1.100  19.948  16.528
13447CHOL    C247796   0.955  20.109  16.633
13448CHOL   ROH47797  12.165  -2.767   4.360
13448CHOL    R147798  12.193  -2.910   4.294
13448CHOL    R247799  12.313  -2.930   4.095
13448CHOL    R347800  12.224  -3.071   4.220
13448CHOL    R447801  12.337  -3.055   4.038
13448CHOL    R547802  12.252  -3.214   4.155
13448CHOL    C147803  12.294  -3.429   4.056
13448CHOL    C247804  12.336  -3.644   3.957
13449CHOL   ROH47805  12.531  -3.820  10.673
13449CHOL    R147806  12.558  -3.977  10.684
13449CHOL    R247807  12.591  -4.107  10.493
13449CHOL    R347808  12.589  -4.154  10.697
13449CHOL    R447809  12.614  -4.245  10.503
13449CHOL    R547810  12.616  -4.312  10.708
13449CHOL    C147811  12.657  -4.547  10.725
13449CHOL    C247812  12.698  -4.783  10.742
13450CHOL   ROH47813   6.243  11.508  -3.580
13450CHOL    R147814   6.202  11.523  -3.734
13450CHOL    R247815   6.230  11.725  -3.846
13450CHOL    R347816   6.156  11.540  -3.907
13450CHOL    R447817   6.194  11.738  -3.981
13450CHOL    R547818   6.115  11.555  -4.061
13450CHOL    C147819   6.054  11.578  -4.292
13450CHOL    C247820   5.992  11.600  -4.523
13451CHOL   ROH47821  15.001  14.695  -2.292
13451CHOL    R147822  15.057  14.752  -2.431
13451CHOL    R247823  15.135  14.608  -2.596
13451CHOL    R347824  15.119  14.816  -2.587
13451CHOL    R447825  15.184  14.657  -2.718
13451CHOL    R547826  15.175  14.872  -2.726
13451CHOL    C147827  15.258  14.958  -2.934
13451CHOL    C247828  15.341  15.043  -3.143
13452CHOL   ROH47829  21.461   5.585  16.496
13452CHOL    R147830  21.592   5.541  16.576
13452CHOL    R247831  21.730   5.699  16.677
13452CHOL    R347832  21.740   5.491  16.666
13452CHOL    R447833  21.845   5.661  16.747
13452CHOL    R547834  21.872   5.447  16.745
13452CHOL    C147835  22.069   5.381  16.865
13452CHOL    C247836  22.266   5.315  16.985
13453CHOL   ROH47837  18.990   6.463  -0.141
13453CHOL    R147838  19.092   6.419  -0.256
13453CHOL    R247839  19.022   6.289  -0.436
13453CHOL    R347840  19.208   6.370  -0.385
13453CHOL    R447841  19.111   6.251  -0.537
13453CHOL    R547842  19.310   6.326  -0.500
13453CHOL    C147843  19.464   6.260  -0.672
13453CHOL    C247844  19.617   6.194  -0.845
13454CHOL   ROH47845  14.647  19.808   1.021
13454CHOL    R147846  14.707  19.920   0.924
13454CHOL    R247847  14.869  19.868   0.765
13454CHOL    R347848  14.774  20.047   0.815
13454CHOL    R447849  14.921  19.966   0.680
13454CHOL    R547850  14.834  20.159   0.718
13454CHOL    C147851  14.924  20.328   0.573
13454CHOL    C247852  15.014  20.497   0.428
13455CHOL   ROH47853  12.163  -2.912  15.081
13455CHOL    R147854  12.197  -3.060  15.133
13455CHOL    R247855  12.414  -3.144  15.121
13455CHOL    R347856  12.235  -3.225  15.191
13455CHOL    R447857  12.444  -3.273  15.166
13455CHOL    R547858  12.269  -3.373  15.243
13455CHOL    C147859  12.320  -3.594  15.321
13455CHOL    C247860  12.371  -3.816  15.399
13456CHOL   ROH47861   4.708  20.761   2.583
13456CHOL    R147862   4.650  20.884   2.499
13456CHOL    R247863   4.681  21.104   2.570
13456CHOL    R347864   4.584  21.022   2.404
13456CHOL    R447865   4.631  21.212   2.496
13456CHOL    R547866   4.526  21.145   2.320
13456CHOL    C147867   4.439  21.330   2.194
13456CHOL    C247868   4.351  21.515   2.068
13457CHOL   ROH47869   6.372  -2.870   5.499
13457CHOL    R147870   6.334  -3.017   5.448
13457CHOL    R247871   6.499  -3.168   5.383
13457CHOL    R347872   6.291  -3.182   5.392
13457CHOL    R447873   6.465  -3.296   5.338
13457CHOL    R547874   6.252  -3.329   5.341
13457CHOL    C147875   6.195  -3.549   5.265
13457CHOL    C247876   6.138  -3.770   5.189
13458CHOL   ROH47877  23.358   6.447  11.602
13458CHOL    R147878  23.512   6.407  11.621
13458CHOL    R247879  23.626   6.287  11.457
13458CHOL    R347880  23.685   6.363  11.643
13458CHOL    R447881  23.761   6.252  11.474
13458CHOL    R547882  23.838   6.323  11.662
13458CHOL    C147883  24.069   6.263  11.692
13458CHOL    C247884  24.300   6.204  11.721
13459CHOL   ROH47885   7.096  23.799  10.224
13459CHOL    R147886   7.068  23.956  10.226
13459CHOL    R247887   7.100  24.082  10.420
13459CHOL    R347888   7.036  24.134  10.228
13459CHOL    R447889   7.075  24.219  10.422
13459CHOL    R547890   7.008  24.291  10.231
13459CHOL    C147891   6.966  24.527  10.234
13459CHOL    C247892   6.924  24.763  10.237
13460CHOL   ROH47893   4.352   7.091  22.575
13460CHOL    R147894   4.290   7.055  22.718
13460CHOL    R247895   4.290   6.836  22.797
13460CHOL    R347896   4.219   7.014  22.879
13460CHOL    R447897   4.236   6.804  22.922
13460CHOL    R547898   4.157   6.978  23.021
13460CHOL    C147899   4.063   6.924  23.236
13460CHOL    C247900   3.970   6.870  23.450
13461CHOL   ROH47901   1.671  21.191  12.444
13461CHOL    R147902   1.583  21.321  12.475
13461CHOL    R247903   1.665  21.535  12.435
13461CHOL    R347904   1.483  21.466  12.510
13461CHOL    R447905   1.588  21.648  12.462
13461CHOL    R547906   1.395  21.596  12.541
13461CHOL    C147907   1.262  21.790  12.588
13461CHOL    C247908   1.129  21.985  12.634
13462CHOL   ROH47909  20.407   3.333   3.439
13462CHOL    R147910  20.524   3.257   3.360
13462CHOL    R247911  20.726   3.365   3.313
13462CHOL    R347912  20.656   3.173   3.272
13462CHOL    R447913  20.828   3.299   3.245
13462CHOL    R547914  20.773   3.097   3.193
13462CHOL    C147915  20.949   2.984   3.076
13462CHOL    C247916  21.124   2.870   2.958
13463CHOL   ROH47917  16.469   1.173   1.166
13463CHOL    R147918  16.544   1.071   1.068
13463CHOL    R247919  16.503   1.075   0.838
13463CHOL    R347920  16.628   0.957   0.957
13463CHOL    R447921  16.568   0.986   0.752
13463CHOL    R547922  16.702   0.855   0.859
13463CHOL    C147923  16.815   0.702   0.711
13463CHOL    C247924  16.927   0.550   0.563
13464CHOL   ROH47925  -3.538  10.712   6.003
13464CHOL    R147926  -3.692  10.721   5.959
13464CHOL    R247927  -3.862  10.685   6.114
13464CHOL    R347928  -3.865  10.730   5.911
13464CHOL    R447929  -3.997  10.692   6.076
13464CHOL    R547930  -4.018  10.739   5.867
13464CHOL    C147931  -4.249  10.752   5.802
13464CHOL    C247932  -4.480  10.765   5.736
13465CHOL   ROH47933   5.803   2.640  -1.367
13465CHOL    R147934   5.752   2.553  -1.491
13465CHOL    R247935   5.600   2.379  -1.460
13465CHOL    R347936   5.695   2.454  -1.630
13465CHOL    R447937   5.555   2.302  -1.568
13465CHOL    R547938   5.643   2.367  -1.754
13465CHOL    C147939   5.567   2.236  -1.940
13465CHOL    C247940   5.490   2.105  -2.126
13466CHOL   ROH47941   6.257  -2.160  16.079
13466CHOL    R147942   6.218  -2.298  16.150
13466CHOL    R247943   6.214  -2.317  16.382
13466CHOL    R347944   6.173  -2.453  16.229
13466CHOL    R447945   6.179  -2.438  16.444
13466CHOL    R547946   6.134  -2.591  16.299
13466CHOL    C147947   6.075  -2.799  16.405
13466CHOL    C247948   6.016  -3.006  16.511
13467CHOL   ROH47949   9.987  -3.052   4.650
13467CHOL    R147950   9.983  -3.199   4.588
13467CHOL    R247951  10.119  -3.369   4.671
13467CHOL    R347952   9.978  -3.365   4.517
13467CHOL    R447953  10.115  -3.498   4.617
13467CHOL    R547954   9.974  -3.512   4.455
13467CHOL    C147955   9.968  -3.733   4.361
13467CHOL    C247956   9.962  -3.954   4.268
13468CHOL   ROH47957  14.271  18.708  20.084
13468CHOL    R147958  14.320  18.807  20.200
13468CHOL    R247959  14.536  18.896  20.198
13468CHOL    R347960  14.375  18.918  20.330
13468CHOL    R447961  14.579  18.982  20.300
13468CHOL    R547962  14.424  19.017  20.446
13468CHOL    C147963  14.498  19.165  20.620
13468CHOL    C247964  14.572  19.314  20.794
13469CHOL   ROH47965   0.860  13.936  -0.118
13469CHOL    R147966   0.762  13.978  -0.237
13469CHOL    R247967   0.531  13.992  -0.203
13469CHOL    R347968   0.651  14.024  -0.371
13469CHOL    R447969   0.445  14.029  -0.308
13469CHOL    R547970   0.553  14.066  -0.491
13469CHOL    C147971   0.405  14.128  -0.669
13469CHOL    C247972   0.257  14.191  -0.848
13470CHOL   ROH47973  -2.366  10.905   3.019
13470CHOL    R147974  -2.507  10.913   2.944
13470CHOL    R247975  -2.597  11.118   2.879
13470CHOL    R347976  -2.666  10.921   2.861
13470CHOL    R447977  -2.721  11.124   2.814
13470CHOL    R547978  -2.808  10.929   2.786
13470CHOL    C147979  -3.019  10.941   2.674
13470CHOL    C247980  -3.231  10.952   2.562
13471CHOL   ROH47981  16.387  -2.117  12.745
13471CHOL    R147982  16.462  -2.255  12.776
13471CHOL    R247983  16.457  -2.431  12.624
13471CHOL    R347984  16.547  -2.410  12.811
13471CHOL    R447985  16.523  -2.552  12.651
13471CHOL    R547986  16.622  -2.547  12.842
13471CHOL    C147987  16.735  -2.754  12.889
13471CHOL    C247988  16.848  -2.961  12.935
13472CHOL   ROH47989  21.766  15.142  15.438
13472CHOL    R147990  21.904  15.198  15.497
13472CHOL    R247991  22.046  15.328  15.367
13472CHOL    R347992  22.059  15.260  15.564
13472CHOL    R447993  22.167  15.377  15.419
13472CHOL    R547994  22.197  15.316  15.623
13472CHOL    C147995  22.403  15.400  15.713
13472CHOL    C247996  22.610  15.483  15.802
13473CHOL   ROH47997  19.476  19.430   5.993
13473CHOL    R147998  19.590  19.531   5.945
13473CHOL    R247999  19.730  19.478   5.766
13473CHOL    R348000  19.718  19.645   5.890
13473CHOL    R448001  19.830  19.567   5.724
13473CHOL    R548002  19.833  19.746   5.842
13473CHOL    C148003  20.004  19.898   5.770
13473CHOL    C248004  20.175  20.050   5.697
13474CHOL   ROH48005  11.319  20.244   0.452
13474CHOL    R148006  11.329  20.360   0.342
13474CHOL    R248007  11.536  20.451   0.282
13474CHOL    R348008  11.341  20.490   0.218
13474CHOL    R448009  11.545  20.552   0.186
13474CHOL    R548010  11.352  20.606   0.108
13474CHOL    C148011  11.367  20.780  -0.056
13474CHOL    C248012  11.383  20.954  -0.221
13475CHOL   ROH48013   9.344  -2.102  17.111
13475CHOL    R148014   9.337  -2.238  17.194
13475CHOL    R248015   9.458  -2.426  17.127
13475CHOL    R348016   9.329  -2.392  17.288
13475CHOL    R448017   9.452  -2.546  17.200
13475CHOL    R548018   9.322  -2.528  17.371
13475CHOL    C148019   9.311  -2.733  17.496
13475CHOL    C248020   9.301  -2.938  17.621
13476CHOL   ROH48021   7.815  22.595  15.824
13476CHOL    R148022   7.790  22.739  15.890
13476CHOL    R248023   7.830  22.934  15.770
13476CHOL    R348024   7.763  22.900  15.964
13476CHOL    R448025   7.809  23.060  15.827
13476CHOL    R548026   7.738  23.044  16.030
13476CHOL    C148027   7.701  23.260  16.129
13476CHOL    C248028   7.664  23.475  16.228
13477CHOL   ROH48029   0.918   6.186  19.977
13477CHOL    R148030   0.819   6.137  20.092
13477CHOL    R248031   0.885   6.136  20.316
13477CHOL    R348032   0.707   6.082  20.222
13477CHOL    R448033   0.798   6.093  20.417
13477CHOL    R548034   0.608   6.033  20.337
13477CHOL    C148035   0.458   5.959  20.511
13477CHOL    C248036   0.309   5.885  20.684
13478CHOL   ROH48037  22.063   3.566   7.320
13478CHOL    R148038  22.202   3.492   7.294
13478CHOL    R248039  22.268   3.434   7.078
13478CHOL    R348040  22.359   3.409   7.264
13478CHOL    R448041  22.390   3.369   7.055
13478CHOL    R548042  22.498   3.335   7.238
13478CHOL    C148043  22.708   3.223   7.198
13478CHOL    C248044  22.917   3.112   7.158
13479CHOL   ROH48045   8.362  -3.377   5.858
13479CHOL    R148046   8.343  -3.528   5.810
13479CHOL    R248047   8.517  -3.643   5.703
13479CHOL    R348048   8.322  -3.699   5.755
13479CHOL    R448049   8.500  -3.775   5.661
13479CHOL    R548050   8.304  -3.850   5.707
13479CHOL    C148051   8.275  -4.077   5.635
13479CHOL    C248052   8.247  -4.304   5.562
13480CHOL   ROH48053  17.259  10.965  -1.937
13480CHOL    R148054  17.341  10.974  -2.074
13480CHOL    R248055  17.267  11.107  -2.250
13480CHOL    R348056  17.434  10.984  -2.228
13480CHOL    R448057  17.339  11.115  -2.370
13480CHOL    R548058  17.516  10.993  -2.365
13480CHOL    C148059  17.640  11.006  -2.570
13480CHOL    C248060  17.764  11.019  -2.776
13481CHOL   ROH48061  23.524  13.323  10.043
13481CHOL    R148062  23.680  13.358  10.047
13481CHOL    R248063  23.806  13.366   9.851
13481CHOL    R348064  23.855  13.397  10.052
13481CHOL    R448065  23.943  13.397   9.855
13481CHOL    R548066  24.011  13.432  10.056
13481CHOL    C148067  24.245  13.485  10.062
13481CHOL    C248068  24.479  13.538  10.068
13482CHOL   ROH48069  16.937  20.957  14.945
13482CHOL    R148070  17.024  21.077  15.006
13482CHOL    R248071  17.123  21.236  14.867
13482CHOL    R348072  17.122  21.212  15.074
13482CHOL    R448073  17.199  21.340  14.920
13482CHOL    R548074  17.209  21.331  15.135
13482CHOL    C148075  17.340  21.511  15.225
13482CHOL    C248076  17.470  21.691  15.316
13483CHOL   ROH48077   2.170   5.613  -0.978
13483CHOL    R148078   2.081   5.559  -1.099
13483CHOL    R248079   1.852   5.524  -1.073
13483CHOL    R348080   1.980   5.499  -1.236
13483CHOL    R448081   1.774   5.476  -1.180
13483CHOL    R548082   1.891   5.445  -1.358
13483CHOL    C148083   1.757   5.364  -1.540
13483CHOL    C248084   1.623   5.284  -1.722
13484CHOL   ROH48085   0.751   3.626  18.464
13484CHOL    R148086   0.650   3.556  18.566
13484CHOL    R248087   0.721   3.384  18.706
13484CHOL    R348088   0.536   3.477  18.681
13484CHOL    R448089   0.632   3.322  18.796
13484CHOL    R548090   0.435   3.406  18.783
13484CHOL    C148091   0.283   3.301  18.936
13484CHOL    C248092   0.131   3.196  19.089
13485CHOL   ROH48093   5.039  -2.159   4.703
13485CHOL    R148094   4.989  -2.300   4.646
13485CHOL    R248095   5.034  -2.498   4.761
13485CHOL    R348096   4.934  -2.459   4.582
13485CHOL    R448097   4.991  -2.622   4.711
13485CHOL    R548098   4.884  -2.600   4.525
13485CHOL    C148099   4.810  -2.812   4.440
13485CHOL    C248100   4.735  -3.023   4.354
13486CHOL   ROH48101   6.297  22.495  15.224
13486CHOL    R148102   6.255  22.638  15.282
13486CHOL    R248103   6.191  22.662  15.505
13486CHOL    R348104   6.207  22.799  15.348
13486CHOL    R448105   6.154  22.787  15.557
13486CHOL    R548106   6.165  22.942  15.407
13486CHOL    C148107   6.102  23.156  15.494
13486CHOL    C248108   6.038  23.370  15.582
13487CHOL   ROH48109   5.701   8.918  -3.459
13487CHOL    R148110   5.656   8.907  -3.612
13487CHOL    R248111   5.597   8.701  -3.705
13487CHOL    R348112   5.605   8.894  -3.784
13487CHOL    R448113   5.558   8.691  -3.839
13487CHOL    R548114   5.560   8.882  -3.937
13487CHOL    C148115   5.492   8.865  -4.167
13487CHOL    C248116   5.425   8.848  -4.397
13488CHOL   ROH48117   4.943  18.082  -0.548
13488CHOL    R148118   4.889  18.174  -0.667
13488CHOL    R248119   5.025  18.227  -0.849
13488CHOL    R348120   4.828  18.277  -0.802
13488CHOL    R448121   4.977  18.307  -0.954
13488CHOL    R548122   4.773  18.369  -0.921
13488CHOL    C148123   4.692  18.507  -1.100
13488CHOL    C248124   4.611  18.645  -1.279
13489CHOL   ROH48125  10.982  22.994   4.775
13489CHOL    R148126  11.004  23.142   4.718
13489CHOL    R248127  11.208  23.251   4.741
13489CHOL    R348128  11.028  23.308   4.653
13489CHOL    R448129  11.227  23.380   4.691
13489CHOL    R548130  11.049  23.456   4.595
13489CHOL    C148131  11.082  23.677   4.509
13489CHOL    C248132  11.114  23.899   4.423
13490CHOL   ROH48133  12.118   2.048  -1.408
13490CHOL    R148134  12.142   1.957  -1.537
13490CHOL    R248135  12.270   2.035  -1.717
13490CHOL    R348136  12.170   1.855  -1.683
13490CHOL    R448137  12.291   1.956  -1.830
13490CHOL    R548138  12.194   1.765  -1.813
13490CHOL    C148139  12.230   1.628  -2.007
13490CHOL    C248140  12.267   1.492  -2.201
13491CHOL   ROH48141  15.822   1.905   0.051
13491CHOL    R148142  15.890   1.811  -0.060
13491CHOL    R248143  15.866   1.858  -0.287
13491CHOL    R348144  15.965   1.706  -0.185
13491CHOL    R448145  15.925   1.776  -0.384
13491CHOL    R548146  16.033   1.612  -0.296
13491CHOL    C148147  16.134   1.472  -0.462
13491CHOL    C248148  16.236   1.332  -0.628
13492CHOL   ROH48149  12.712   1.096  20.340
13492CHOL    R148150  12.740   0.989  20.456
13492CHOL    R248151  12.797   0.769  20.405
13492CHOL    R348152  12.772   0.870  20.586
13492CHOL    R448153  12.822   0.676  20.507
13492CHOL    R548154  12.800   0.763  20.702
13492CHOL    C148155  12.842   0.603  20.876
13492CHOL    C248156  12.884   0.443  21.050
13493CHOL   ROH48157   5.220  13.251  -2.949
13493CHOL    R148158   5.164  13.289  -3.094
13493CHOL    R248159   4.990  13.442  -3.120
13493CHOL    R348160   5.102  13.331  -3.258
13493CHOL    R448161   4.942  13.475  -3.247
13493CHOL    R548162   5.046  13.369  -3.403
13493CHOL    C148163   4.963  13.426  -3.621
13493CHOL    C248164   4.880  13.482  -3.839
13494CHOL   ROH48165  21.324  17.770   7.973
13494CHOL    R148166  21.456  17.857   7.947
13494CHOL    R248167  21.650  17.759   7.864
13494CHOL    R348168  21.604  17.955   7.918
13494CHOL    R448169  21.765  17.836   7.841
13494CHOL    R548170  21.736  18.043   7.893
13494CHOL    C148171  21.933  18.173   7.854
13494CHOL    C248172  22.131  18.304   7.815
13495CHOL   ROH48173  15.701   0.958   0.863
13495CHOL    R148174  15.764   0.852   0.761
13495CHOL    R248175  15.832   0.918   0.547
13495CHOL    R348176  15.835   0.734   0.646
13495CHOL    R448177  15.887   0.825   0.458
13495CHOL    R548178  15.898   0.628   0.544
13495CHOL    C148179  15.993   0.470   0.390
13495CHOL    C248180  16.087   0.311   0.237
13496CHOL   ROH48181   9.253   3.492  22.342
13496CHOL    R148182   9.242   3.420  22.485
13496CHOL    R248183   9.404   3.454  22.649
13496CHOL    R348184   9.230   3.339  22.645
13496CHOL    R448185   9.395   3.391  22.773
13496CHOL    R548186   9.219   3.268  22.787
13496CHOL    C148187   9.202   3.160  23.001
13496CHOL    C248188   9.185   3.052  23.215
13497CHOL   ROH48189  10.914   9.847  -4.117
13497CHOL    R148190  10.921   9.843  -4.277
13497CHOL    R248191  10.856  10.027  -4.405
13497CHOL    R348192  10.928   9.838  -4.457
13497CHOL    R448193  10.862  10.023  -4.545
13497CHOL    R548194  10.935   9.833  -4.617
13497CHOL    C148195  10.945   9.827  -4.856
13497CHOL    C248196  10.955   9.821  -5.096
13498CHOL   ROH48197  15.061  22.715   7.248
13498CHOL    R148198  15.122  22.860   7.219
13498CHOL    R248199  15.301  22.888   7.073
13498CHOL    R348200  15.190  23.023   7.186
13498CHOL    R448201  15.354  23.015   7.047
13498CHOL    R548202  15.251  23.169   7.157
13498CHOL    C148203  15.341  23.386   7.113
13498CHOL    C248204  15.432  23.604   7.069
13499CHOL   ROH48205   5.403  -2.532   5.354
13499CHOL    R148206   5.355  -2.676   5.302
13499CHOL    R248207   5.419  -2.871   5.413
13499CHOL    R348208   5.301  -2.837   5.245
13499CHOL    R448209   5.377  -2.996   5.368
13499CHOL    R548210   5.253  -2.981   5.193
13499CHOL    C148211   5.181  -3.197   5.116
13499CHOL    C248212   5.109  -3.412   5.038
13500CHOL   ROH48213  19.428  19.799   6.717
13500CHOL    R148214  19.540  19.906   6.677
13500CHOL    R248215  19.522  20.032   6.482
13500CHOL    R348216  19.667  20.025   6.632
13500CHOL    R448217  19.621  20.125   6.447
13500CHOL    R548218  19.779  20.132   6.592
13500CHOL    C148219  19.948  20.292   6.533
13500CHOL    C248220  20.117  20.452   6.473
13501CHOL   ROH48221  21.008  17.667   6.450
13501CHOL    R148222  21.136  17.755   6.411
13501CHOL    R248223  21.264  17.703   6.223
13501CHOL    R348224  21.280  17.854   6.366
13501CHOL    R448225  21.376  17.780   6.188
13501CHOL    R548226  21.407  17.941   6.327
13501CHOL    C148227  21.599  18.073   6.268
13501CHOL    C248228  21.791  18.205   6.209
13502CHOL   ROH48229   3.823  13.792  22.043
13502CHOL    R148230   3.748  13.835  22.178
13502CHOL    R248231   3.797  14.038  22.282
13502CHOL    R348232   3.664  13.884  22.329
13502CHOL    R448233   3.732  14.076  22.400
13502CHOL    R548234   3.589  13.927  22.464
13502CHOL    C148235   3.477  13.993  22.665
13502CHOL    C248236   3.364  14.058  22.867
13503CHOL   ROH48237  16.042  -2.550   8.671
13503CHOL    R148238  16.111  -2.694   8.655
13503CHOL    R248239  16.329  -2.714   8.575
13503CHOL    R348240  16.188  -2.855   8.636
13503CHOL    R448241  16.389  -2.839   8.561
13503CHOL    R548242  16.257  -2.998   8.620
13503CHOL    C148243  16.360  -3.214   8.596
13503CHOL    C248244  16.463  -3.429   8.571
13504CHOL   ROH48245   7.279  18.373  -1.075
13504CHOL    R148246   7.255  18.474  -1.197
13504CHOL    R248247   7.389  18.467  -1.387
13504CHOL    R348248   7.227  18.588  -1.333
13504CHOL    R448249   7.368  18.556  -1.494
13504CHOL    R548250   7.203  18.689  -1.455
13504CHOL    C148251   7.167  18.841  -1.637
13504CHOL    C248252   7.130  18.992  -1.820
13505CHOL   ROH48253   0.810   5.932  19.772
13505CHOL    R148254   0.710   5.881  19.886
13505CHOL    R248255   0.779   5.866  20.108
13505CHOL    R348256   0.598   5.823  20.014
13505CHOL    R448257   0.692   5.822  20.208
13505CHOL    R548258   0.498   5.772  20.128
13505CHOL    C148259   0.348   5.695  20.300
13505CHOL    C248260   0.198   5.618  20.471
13506CHOL   ROH48261   7.517  18.575  20.762
13506CHOL    R148262   7.487  18.677  20.882
13506CHOL    R248263   7.487  18.908  20.845
13506CHOL    R348264   7.454  18.792  21.016
13506CHOL    R448265   7.462  18.997  20.950
13506CHOL    R548266   7.425  18.895  21.136
13506CHOL    C148267   7.380  19.048  21.315
13506CHOL    C248268   7.336  19.201  21.494
13507CHOL   ROH48269  18.281  13.201  -0.856
13507CHOL    R148270  18.376  13.239  -0.979
13507CHOL    R248271  18.299  13.226  -1.199
13507CHOL    R348272  18.483  13.281  -1.117
13507CHOL    R448273  18.382  13.259  -1.306
13507CHOL    R548274  18.578  13.319  -1.241
13507CHOL    C148275  18.721  13.375  -1.425
13507CHOL    C248276  18.863  13.431  -1.610
13508CHOL   ROH48277  23.250   6.085   8.120
13508CHOL    R148278  23.403   6.043   8.099
13508CHOL    R248279  23.505   6.062   7.890
13508CHOL    R348280  23.575   5.996   8.075
13508CHOL    R448281  23.639   6.025   7.872
13508CHOL    R548282  23.728   5.954   8.054
13508CHOL    C148283  23.957   5.892   8.023
13508CHOL    C248284  24.187   5.829   7.992
13509CHOL   ROH48285  19.733  17.934  15.884
13509CHOL    R148286  19.843  18.032  15.947
13509CHOL    R248287  20.031  18.096  15.824
13509CHOL    R348288  19.967  18.142  16.018
13509CHOL    R448289  20.127  18.181  15.879
13509CHOL    R548290  20.076  18.239  16.080
13509CHOL    C148291  20.241  18.386  16.175
13509CHOL    C248292  20.406  18.533  16.269
13510CHOL   ROH48293   9.295  19.577  20.164
13510CHOL    R148294   9.283  19.686  20.280
13510CHOL    R248295   9.286  19.624  20.505
13510CHOL    R348296   9.271  19.810  20.411
13510CHOL    R448297   9.276  19.719  20.607
13510CHOL    R548298   9.259  19.919  20.527
13510CHOL    C148299   9.242  20.083  20.701
13510CHOL    C248300   9.224  20.247  20.875
13511CHOL   ROH48301  17.257  15.492  20.407
13511CHOL    R148302  17.346  15.550  20.527
13511CHOL    R248303  17.552  15.651  20.486
13511CHOL    R348304  17.446  15.615  20.662
13511CHOL    R448305  17.630  15.701  20.590
13511CHOL    R548306  17.535  15.673  20.782
13511CHOL    C148307  17.668  15.759  20.961
13511CHOL    C248308  17.802  15.846  21.141
13512CHOL   ROH48309  -0.114   1.273  14.685
13512CHOL    R148310  -0.229   1.176  14.739
13512CHOL    R248311  -0.223   1.093  14.957
13512CHOL    R348312  -0.359   1.068  14.801
13512CHOL    R448313  -0.324   1.009  15.005
13512CHOL    R548314  -0.475   0.971  14.855
13512CHOL    C148315  -0.648   0.826  14.937
13512CHOL    C248316  -0.821   0.681  15.018
13513CHOL   ROH48317  11.237   7.561  -3.855
13513CHOL    R148318  11.246   7.528  -4.011
13513CHOL    R248319  11.371   7.347  -4.088
13513CHOL    R348320  11.256   7.491  -4.187
13513CHOL    R448321  11.379   7.318  -4.225
13513CHOL    R548322  11.266   7.458  -4.344
13513CHOL    C148323  11.279   7.408  -4.578
13513CHOL    C248324  11.293   7.358  -4.812
13514CHOL   ROH48325  11.520  19.279  20.328
13514CHOL    R148326  11.539  19.387  20.444
13514CHOL    R248327  11.745  19.417  20.548
13514CHOL    R348328  11.560  19.508  20.576
13514CHOL    R448329  11.762  19.511  20.650
13514CHOL    R548330  11.578  19.616  20.692
13514CHOL    C148331  11.607  19.778  20.867
13514CHOL    C248332  11.635  19.940  21.041
13515CHOL   ROH48333  19.140  15.539   0.902
13515CHOL    R148334  19.244  15.602   0.798
13515CHOL    R248335  19.199  15.604   0.569
13515CHOL    R348336  19.361  15.674   0.681
13515CHOL    R448337  19.290  15.659   0.478
13515CHOL    R548338  19.465  15.737   0.578
13515CHOL    C148339  19.620  15.832   0.422
13515CHOL    C248340  19.776  15.927   0.266
13516CHOL   ROH48341  -2.235  13.041  16.472
13516CHOL    R148342  -2.373  13.074  16.546
13516CHOL    R248343  -2.376  13.196  16.745
13516CHOL    R348344  -2.528  13.111  16.630
13516CHOL    R448345  -2.497  13.224  16.810
13516CHOL    R548346  -2.666  13.143  16.704
13516CHOL    C148347  -2.873  13.193  16.815
13516CHOL    C248348  -3.080  13.242  16.927
13517CHOL   ROH48349   8.718  16.386  -2.549
13517CHOL    R148350   8.707  16.457  -2.692
13517CHOL    R248351   8.828  16.376  -2.875
13517CHOL    R348352   8.695  16.536  -2.853
13517CHOL    R448353   8.818  16.438  -3.000
13517CHOL    R548354   8.684  16.607  -2.997
13517CHOL    C148355   8.668  16.713  -3.211
13517CHOL    C248356   8.652  16.819  -3.426
13518CHOL   ROH48357  12.556  14.583  -3.037
13518CHOL    R148358  12.586  14.637  -3.185
13518CHOL    R248359  12.788  14.592  -3.291
13518CHOL    R348360  12.619  14.698  -3.350
13518CHOL    R448361  12.815  14.639  -3.420
13518CHOL    R548362  12.649  14.752  -3.498
13518CHOL    C148363  12.694  14.834  -3.719
13518CHOL    C248364  12.738  14.915  -3.941
13519CHOL   ROH48365  23.690   8.271  11.409
13519CHOL    R148366  23.849   8.256  11.421
13519CHOL    R248367  23.979   8.200  11.236
13519CHOL    R348368  24.028   8.240  11.435
13519CHOL    R448369  24.118   8.188  11.246
13519CHOL    R548370  24.186   8.225  11.447
13519CHOL    C148371  24.425   8.203  11.465
13519CHOL    C248372  24.663   8.181  11.483
13520CHOL   ROH48373  -2.342  15.507   5.902
13520CHOL    R148374  -2.482  15.567   5.853
13520CHOL    R248375  -2.557  15.774   5.930
13520CHOL    R348376  -2.639  15.635   5.799
13520CHOL    R448377  -2.679  15.827   5.888
13520CHOL    R548378  -2.779  15.696   5.750
13520CHOL    C148379  -2.989  15.786   5.677
13520CHOL    C248380  -3.199  15.876   5.604
13521CHOL   ROH48381  10.982  -3.987  10.580
13521CHOL    R148382  10.991  -4.147  10.589
13521CHOL    R248383  11.185  -4.260  10.527
13521CHOL    R348384  11.001  -4.326  10.599
13521CHOL    R448385  11.193  -4.399  10.535
13521CHOL    R548386  11.010  -4.486  10.608
13521CHOL    C148387  11.023  -4.725  10.621
13521CHOL    C248388  11.037  -4.964  10.635
13522CHOL   ROH48389  -1.820  13.137   2.681
13522CHOL    R148390  -1.956  13.177   2.608
13522CHOL    R248391  -2.140  13.034   2.610
13522CHOL    R348392  -2.110  13.222   2.526
13522CHOL    R448393  -2.260  13.069   2.546
13522CHOL    R548394  -2.246  13.262   2.453
13522CHOL    C148395  -2.451  13.323   2.343
13522CHOL    C248396  -2.656  13.383   2.233
13523CHOL   ROH48397  20.402  13.437   1.303
13523CHOL    R148398  20.524  13.471   1.205
13523CHOL    R248399  20.487  13.576   1.000
13523CHOL    R348400  20.660  13.508   1.094
13523CHOL    R448401  20.593  13.606   0.914
13523CHOL    R548402  20.782  13.542   0.996
13523CHOL    C148403  20.964  13.592   0.848
13523CHOL    C248404  21.147  13.643   0.700
13524CHOL   ROH48405  23.688  10.983  11.855
13524CHOL    R148406  23.847  10.992  11.873
13524CHOL    R248407  23.981  11.086  11.707
13524CHOL    R348408  24.025  11.003  11.893
13524CHOL    R448409  24.120  11.094  11.723
13524CHOL    R548410  24.184  11.013  11.911
13524CHOL    C148411  24.422  11.027  11.939
13524CHOL    C248412  24.660  11.041  11.966
13525CHOL   ROH48413  14.361  18.154  -0.632
13525CHOL    R148414  14.411  18.242  -0.756
13525CHOL    R248415  14.468  18.142  -0.959
13525CHOL    R348416  14.467  18.341  -0.896
13525CHOL    R448417  14.511  18.218  -1.068
13525CHOL    R548418  14.517  18.428  -1.020
13525CHOL    C148419  14.592  18.560  -1.206
13525CHOL    C248420  14.667  18.692  -1.392
13526CHOL   ROH48421   8.542   8.967  23.869
13526CHOL    R148422   8.524   8.955  24.028
13526CHOL    R248423   8.691   9.030  24.173
13526CHOL    R348424   8.504   8.943  24.206
13526CHOL    R448425   8.675   9.020  24.311
13526CHOL    R548426   8.487   8.931  24.364
13526CHOL    C148427   8.460   8.914  24.602
13526CHOL    C248428   8.433   8.896  24.840
13527CHOL   ROH48429   4.825  22.338  14.318
13527CHOL    R148430   4.765  22.478  14.367
13527CHOL    R248431   4.701  22.509  14.589
13527CHOL    R348432   4.699  22.636  14.423
13527CHOL    R448433   4.649  22.632  14.633
13527CHOL    R548434   4.639  22.776  14.473
13527CHOL    C148435   4.550  22.986  14.547
13527CHOL    C248436   4.460  23.196  14.621
13528CHOL   ROH48437   3.864  12.723  22.340
13528CHOL    R148438   3.799  12.752  22.483
13528CHOL    R248439   3.879  12.924  22.619
13528CHOL    R348440   3.725  12.786  22.644
13528CHOL    R448441   3.822  12.950  22.744
13528CHOL    R548442   3.660  12.815  22.787
13528CHOL    C148443   3.561  12.859  23.002
13528CHOL    C248444   3.463  12.903  23.216
13529CHOL   ROH48445  21.608   3.091   6.479
13529CHOL    R148446  21.742   3.011   6.444
13529CHOL    R248447  21.856   3.049   6.244
13529CHOL    R348448  21.893   2.921   6.405
13529CHOL    R448449  21.973   2.979   6.213
13529CHOL    R548450  22.027   2.841   6.369
13529CHOL    C148451  22.228   2.721   6.317
13529CHOL    C248452  22.429   2.601   6.264
13530CHOL   ROH48453  20.629   5.956   1.811
13530CHOL    R148454  20.748   5.906   1.717
13530CHOL    R248455  20.756   5.966   1.491
13530CHOL    R348456  20.882   5.850   1.610
13530CHOL    R448457  20.860   5.922   1.409
13530CHOL    R548458  21.002   5.799   1.516
13530CHOL    C148459  21.180   5.724   1.374
13530CHOL    C248460  21.359   5.649   1.233
13531CHOL   ROH48461   5.316  11.127  23.073
13531CHOL    R148462   5.271  11.140  23.226
13531CHOL    R248463   5.250  10.952  23.362
13531CHOL    R348464   5.220  11.155  23.398
13531CHOL    R448465   5.211  10.963  23.496
13531CHOL    R548466   5.175  11.168  23.551
13531CHOL    C148467   5.108  11.188  23.780
13531CHOL    C248468   5.041  11.208  24.010
13532CHOL   ROH48469   1.820  11.118  21.393
13532CHOL    R148470   1.725  11.136  21.520
13532CHOL    R248471   1.795  11.071  21.733
13532CHOL    R348472   1.618  11.157  21.664
13532CHOL    R448473   1.712  11.087  21.845
13532CHOL    R548474   1.523  11.175  21.791
13532CHOL    C148475   1.380  11.202  21.982
13532CHOL    C248476   1.237  11.230  22.173
13533CHOL   ROH48477  19.261   0.080  13.259
13533CHOL    R148478  19.368  -0.033  13.297
13533CHOL    R248479  19.445  -0.184  13.137
13533CHOL    R348480  19.487  -0.160  13.340
13533CHOL    R448481  19.538  -0.283  13.170
13533CHOL    R548482  19.594  -0.273  13.377
13533CHOL    C148483  19.754  -0.443  13.434
13533CHOL    C248484  19.914  -0.613  13.491
13534CHOL   ROH48485  17.698  18.455  17.970
13534CHOL    R148486  17.789  18.553  18.057
13534CHOL    R248487  18.022  18.550  18.037
13534CHOL    R348488  17.892  18.664  18.155
13534CHOL    R448489  18.102  18.636  18.114
13534CHOL    R548490  17.984  18.762  18.243
13534CHOL    C148491  18.121  18.909  18.373
13534CHOL    C248492  18.258  19.057  18.504
13535CHOL   ROH48493  -2.079  17.104  12.052
13535CHOL    R148494  -2.214  17.186  12.078
13535CHOL    R248495  -2.330  17.167  12.279
13535CHOL    R348496  -2.366  17.278  12.106
13535CHOL    R448497  -2.448  17.239  12.302
13535CHOL    R548498  -2.500  17.361  12.132
13535CHOL    C148499  -2.703  17.484  12.170
13535CHOL    C248500  -2.905  17.607  12.209
13536CHOL   ROH48501   0.698  20.627  10.832
13536CHOL    R148502   0.594  20.748  10.835
13536CHOL    R248503   0.605  20.913  11.000
13536CHOL    R348504   0.476  20.885  10.838
13536CHOL    R448505   0.514  21.019  11.002
13536CHOL    R548506   0.372  21.006  10.841
13536CHOL    C148507   0.216  21.188  10.845
13536CHOL    C248508   0.059  21.370  10.849
13537CHOL   ROH48509  10.843  16.030  -2.688
13537CHOL    R148510  10.857  16.098  -2.832
13537CHOL    R248511  10.990  16.002  -2.998
13537CHOL    R348512  10.872  16.174  -2.994
13537CHOL    R448513  11.002  16.061  -3.124
13537CHOL    R548514  10.886  16.242  -3.139
13537CHOL    C148515  10.907  16.344  -3.355
13537CHOL    C248516  10.927  16.446  -3.571
13538CHOL   ROH48517   1.873   3.918   0.185
13538CHOL    R148518   1.784   3.845   0.074
13538CHOL    R248519   1.574   3.758   0.126
13538CHOL    R348520   1.684   3.764  -0.051
13538CHOL    R448521   1.496   3.695   0.029
13538CHOL    R548522   1.594   3.691  -0.163
13538CHOL    C148523   1.461   3.582  -0.329
13538CHOL    C248524   1.327   3.473  -0.496
13539CHOL   ROH48525  -1.041   3.626   3.547
13539CHOL    R148526  -1.164   3.552   3.477
13539CHOL    R248527  -1.150   3.327   3.417
13539CHOL    R348528  -1.302   3.468   3.398
13539CHOL    R448529  -1.258   3.262   3.356
13539CHOL    R548530  -1.425   3.394   3.327
13539CHOL    C148531  -1.610   3.283   3.222
13539CHOL    C248532  -1.795   3.171   3.117
13540CHOL   ROH48533   5.978  -1.832  16.529
13540CHOL    R148534   5.934  -1.966  16.605
13540CHOL    R248535   5.928  -1.975  16.838
13540CHOL    R348536   5.886  -2.117  16.690
13540CHOL    R448537   5.890  -2.092  16.904
13540CHOL    R548538   5.842  -2.251  16.766
13540CHOL    C148539   5.777  -2.451  16.880
13540CHOL    C248540   5.711  -2.652  16.994
13541CHOL   ROH48541   6.601  23.602  11.595
13541CHOL    R148542   6.563  23.756  11.615
13541CHOL    R248543   6.619  23.869  11.811
13541CHOL    R348544   6.520  23.929  11.637
13541CHOL    R448545   6.586  24.004  11.828
13541CHOL    R548546   6.482  24.084  11.657
13541CHOL    C148547   6.425  24.315  11.686
13541CHOL    C248548   6.368  24.546  11.716
13542CHOL   ROH48549  17.169  21.844   8.662
13542CHOL    R148550  17.250  21.982   8.651
13542CHOL    R248551  17.475  21.984   8.590
13542CHOL    R348552  17.340  22.137   8.639
13542CHOL    R448553  17.545  22.105   8.580
13542CHOL    R548554  17.421  22.275   8.627
13542CHOL    C148555  17.542  22.481   8.611
13542CHOL    C248556  17.663  22.688   8.594
13543CHOL   ROH48557  18.453   1.878   2.355
13543CHOL    R148558  18.552   1.788   2.267
13543CHOL    R248559  18.486   1.706   2.059
13543CHOL    R348560  18.663   1.688   2.168
13543CHOL    R448561  18.573   1.628   1.982
13543CHOL    R548562  18.762   1.598   2.079
13543CHOL    C148563  18.911   1.464   1.947
13543CHOL    C248564  19.060   1.329   1.815
13544CHOL   ROH48565  -0.694  14.244   1.553
13544CHOL    R148566  -0.813  14.295   1.459
13544CHOL    R248567  -0.820  14.516   1.383
13544CHOL    R348568  -0.947  14.353   1.353
13544CHOL    R448569  -0.924  14.561   1.301
13544CHOL    R548570  -1.065  14.404   1.259
13544CHOL    C148571  -1.244  14.481   1.118
13544CHOL    C248572  -1.422  14.558   0.977
13545CHOL   ROH48573   1.072  10.699  -0.914
13545CHOL    R148574   0.973  10.708  -1.039
13545CHOL    R248575   0.794  10.857  -1.040
13545CHOL    R348576   0.861  10.718  -1.180
13545CHOL    R448577   0.707  10.865  -1.149
13545CHOL    R548578   0.762  10.727  -1.305
13545CHOL    C148579   0.613  10.740  -1.493
13545CHOL    C248580   0.464  10.753  -1.680
13546CHOL   ROH48581  -0.582   2.255  15.300
13546CHOL    R148582  -0.702   2.167  15.358
13546CHOL    R248583  -0.824   2.238  15.544
13546CHOL    R348584  -0.838   2.068  15.423
13546CHOL    R448585  -0.929   2.161  15.595
13546CHOL    R548586  -0.958   1.981  15.481
13546CHOL    C148587  -1.139   1.849  15.568
13546CHOL    C248588  -1.320   1.717  15.655
13547CHOL   ROH48589   7.262  17.597  21.472
13547CHOL    R148590   7.232  17.688  21.600
13547CHOL    R248591   7.389  17.842  21.677
13547CHOL    R348592   7.198  17.791  21.744
13547CHOL    R448593   7.362  17.922  21.789
13547CHOL    R548594   7.167  17.882  21.872
13547CHOL    C148595   7.122  18.019  22.063
13547CHOL    C248596   7.077  18.156  22.255
13548CHOL   ROH48597  -3.914  11.489  12.456
13548CHOL    R148598  -4.070  11.503  12.488
13548CHOL    R248599  -4.147  11.650  12.651
13548CHOL    R348600  -4.246  11.518  12.524
13548CHOL    R448601  -4.283  11.662  12.679
13548CHOL    R548602  -4.402  11.531  12.556
13548CHOL    C148603  -4.636  11.552  12.604
13548CHOL    C248604  -4.870  11.572  12.652
13549CHOL   ROH48605  19.640   9.380  -0.129
13549CHOL    R148606  19.753   9.376  -0.242
13549CHOL    R248607  19.783   9.554  -0.389
13549CHOL    R348608  19.881   9.371  -0.368
13549CHOL    R448609  19.882   9.550  -0.488
13549CHOL    R548610  19.995   9.367  -0.481
13549CHOL    C148611  20.165   9.361  -0.650
13549CHOL    C248612  20.335   9.355  -0.819
13550CHOL   ROH48613   4.804  -0.503   2.069
13550CHOL    R148614   4.743  -0.617   1.974
13550CHOL    R248615   4.632  -0.801   2.065
13550CHOL    R348616   4.675  -0.745   1.868
13550CHOL    R448617   4.579  -0.901   1.982
13550CHOL    R548618   4.614  -0.860   1.774
13550CHOL    C148619   4.524  -1.031   1.632
13550CHOL    C248620   4.433  -1.202   1.490
13551CHOL   ROH48621  11.526  11.434  23.834
13551CHOL    R148622  11.546  11.454  23.991
13551CHOL    R248623  11.756  11.503  24.081
13551CHOL    R348624  11.568  11.476  24.169
13551CHOL    R448625  11.773  11.520  24.218
13551CHOL    R548626  11.588  11.496  24.326
13551CHOL    C148627  11.618  11.526  24.562
13551CHOL    C248628  11.648  11.556  24.798
13552CHOL   ROH48629   5.187  16.960  21.244
13552CHOL    R148630   5.133  17.044  21.369
13552CHOL    R248631   5.215  17.006  21.584
13552CHOL    R348632   5.072  17.138  21.510
13552CHOL    R448633   5.168  17.079  21.693
13552CHOL    R548634   5.018  17.222  21.635
13552CHOL    C148635   4.938  17.348  21.823
13552CHOL    C248636   4.857  17.474  22.010
13553CHOL   ROH48637  23.439  11.839   6.724
13553CHOL    R148638  23.594  11.852   6.688
13553CHOL    R248639  23.672  11.809   6.473
13553CHOL    R348640  23.769  11.868   6.648
13553CHOL    R448641  23.808  11.820   6.441
13553CHOL    R548642  23.924  11.881   6.612
13553CHOL    C148643  24.158  11.901   6.558
13553CHOL    C248644  24.391  11.921   6.504
13554CHOL   ROH48645   2.077  20.905  14.070
13554CHOL    R148646   1.992  21.031  14.119
13554CHOL    R248647   1.986  21.092  14.344
13554CHOL    R348648   1.896  21.174  14.174
13554CHOL    R448649   1.911  21.202  14.387
13554CHOL    R548650   1.811  21.300  14.223
13554CHOL    C148651   1.684  21.490  14.296
13554CHOL    C248652   1.557  21.679  14.370
13555CHOL   ROH48653  13.529  -3.477   8.136
13555CHOL    R148654  13.578  -3.627   8.113
13555CHOL    R248655  13.695  -3.742   8.280
13555CHOL    R348656  13.634  -3.797   8.088
13555CHOL    R448657  13.738  -3.873   8.260
13555CHOL    R548658  13.684  -3.947   8.065
13555CHOL    C148659  13.758  -4.173   8.032
13555CHOL    C248660  13.832  -4.398   7.998
13556CHOL   ROH48661   6.416  16.484  -2.069
13556CHOL    R148662   6.375  16.552  -2.208
13556CHOL    R248663   6.354  16.784  -2.226
13556CHOL    R348664   6.329  16.630  -2.364
13556CHOL    R448665   6.318  16.844  -2.347
13556CHOL    R548666   6.288  16.698  -2.502
13556CHOL    C148667   6.227  16.801  -2.711
13556CHOL    C248668   6.165  16.903  -2.919
13557CHOL   ROH48669   8.440   4.362  22.644
13557CHOL    R148670   8.420   4.300  22.790
13557CHOL    R248671   8.434   4.435  22.980
13557CHOL    R348672   8.396   4.231  22.955
13557CHOL    R448673   8.416   4.381  23.108
13557CHOL    R548674   8.376   4.169  23.101
13557CHOL    C148675   8.345   4.077  23.320
13557CHOL    C248676   8.315   3.985  23.540
13558CHOL   ROH48677   3.603  17.555  19.983
13558CHOL    R148678   3.529  17.639  20.097
13558CHOL    R248679   3.583  17.609  20.322
13558CHOL    R348680   3.446  17.734  20.226
13558CHOL    R448681   3.519  17.683  20.422
13558CHOL    R548682   3.373  17.818  20.340
13558CHOL    C148683   3.262  17.944  20.511
13558CHOL    C248684   3.151  18.070  20.683
13559CHOL   ROH48685  22.841   7.866   4.951
13559CHOL    R148686  22.989   7.843   4.896
13559CHOL    R248687  23.125   8.025   4.839
13559CHOL    R348688  23.157   7.818   4.834
13559CHOL    R448689  23.255   8.005   4.791
13559CHOL    R548690  23.305   7.796   4.778
13559CHOL    C148691  23.528   7.762   4.696
13559CHOL    C248692  23.750   7.728   4.613
13560CHOL   ROH48693  22.199  10.402  16.680
13560CHOL    R148694  22.340  10.404  16.756
13560CHOL    R248695  22.525  10.293  16.668
13560CHOL    R348696  22.498  10.406  16.842
13560CHOL    R448697  22.648  10.294  16.735
13560CHOL    R548698  22.639  10.408  16.918
13560CHOL    C148699  22.850  10.411  17.032
13560CHOL    C248700  23.061  10.414  17.146
13561CHOL   ROH48701   8.532  22.137  16.924
13561CHOL    R148702   8.515  22.275  17.003
13561CHOL    R248703   8.685  22.356  17.141
13561CHOL    R348704   8.497  22.431  17.091
13561CHOL    R448705   8.671  22.477  17.210
13561CHOL    R548706   8.480  22.569  17.170
13561CHOL    C148707   8.455  22.777  17.288
13561CHOL    C248708   8.430  22.985  17.406
13562CHOL   ROH48709  14.882  22.459   6.013
13562CHOL    R148710  14.935  22.603   5.966
13562CHOL    R248711  15.108  22.622   5.811
13562CHOL    R348712  14.995  22.764   5.914
13562CHOL    R448713  15.154  22.748   5.770
13562CHOL    R548714  15.047  22.907   5.867
13562CHOL    C148715  15.127  23.123   5.797
13562CHOL    C248716  15.206  23.338   5.727
13563CHOL   ROH48717  17.364   2.530   0.694
13563CHOL    R148718  17.456   2.449   0.591
13563CHOL    R248719  17.375   2.385   0.382
13563CHOL    R348720  17.560   2.358   0.475
13563CHOL    R448721  17.455   2.314   0.292
13563CHOL    R548722  17.652   2.277   0.373
13563CHOL    C148723  17.790   2.156   0.218
13563CHOL    C248724  17.928   2.034   0.064
13564CHOL   ROH48725  20.816   1.170  10.715
13564CHOL    R148726  20.941   1.070  10.723
13564CHOL    R248727  21.157   1.151  10.759
13564CHOL    R348728  21.081   0.958  10.733
13564CHOL    R448729  21.266   1.064  10.767
13564CHOL    R548730  21.206   0.858  10.741
13564CHOL    C148731  21.393   0.709  10.754
13564CHOL    C248732  21.580   0.559  10.767
13565CHOL   ROH48733  13.945  15.071  -2.503
13565CHOL    R148734  13.987  15.130  -2.646
13565CHOL    R248735  14.187  15.066  -2.747
13565CHOL    R348736  14.035  15.196  -2.806
13565CHOL    R448737  14.225  15.118  -2.872
13565CHOL    R548738  14.078  15.255  -2.949
13565CHOL    C148739  14.141  15.343  -3.162
13565CHOL    C248740  14.205  15.432  -3.376
13566CHOL   ROH48741  11.645  -3.968   9.923
13566CHOL    R148742  11.659  -4.127   9.926
13566CHOL    R248743  11.676  -4.250   9.729
13566CHOL    R348744  11.674  -4.307   9.930
13566CHOL    R448745  11.688  -4.390   9.732
13566CHOL    R548746  11.688  -4.466   9.933
13566CHOL    C148747  11.709  -4.705   9.939
13566CHOL    C248748  11.729  -4.944   9.944
13567CHOL   ROH48749   7.320  20.108   0.611
13567CHOL    R148750   7.292  20.226   0.506
13567CHOL    R248751   7.457  20.384   0.457
13567CHOL    R348752   7.261  20.358   0.388
13567CHOL    R448753   7.432  20.487   0.366
13567CHOL    R548754   7.234  20.476   0.284
13567CHOL    C148755   7.192  20.653   0.126
13567CHOL    C248756   7.150  20.829  -0.031
13568CHOL   ROH48757   2.884  14.354  -1.429
13568CHOL    R148758   2.803  14.402  -1.559
13568CHOL    R248759   2.585  14.482  -1.541
13568CHOL    R348760   2.713  14.455  -1.704
13568CHOL    R448761   2.515  14.524  -1.655
13568CHOL    R548762   2.632  14.503  -1.834
13568CHOL    C148763   2.511  14.575  -2.028
13568CHOL    C248764   2.390  14.646  -2.223
13569CHOL   ROH48765   6.792   5.931  -3.188
13569CHOL    R148766   6.764   5.888  -3.340
13569CHOL    R248767   6.764   5.664  -3.403
13569CHOL    R348768   6.733   5.840  -3.510
13569CHOL    R448769   6.740   5.626  -3.535
13569CHOL    R548770   6.705   5.797  -3.662
13569CHOL    C148771   6.663   5.733  -3.889
13569CHOL    C248772   6.621   5.668  -4.116
13570CHOL   ROH48773  10.708   0.768  -0.642
13570CHOL    R148774  10.720   0.664  -0.763
13570CHOL    R248775  10.921   0.554  -0.806
13570CHOL    R348776  10.734   0.548  -0.899
13570CHOL    R448777  10.932   0.463  -0.912
13570CHOL    R548778  10.747   0.444  -1.021
13570CHOL    C148779  10.765   0.288  -1.202
13570CHOL    C248780  10.783   0.133  -1.384
13571CHOL   ROH48781   2.959  14.107  -1.564
13571CHOL    R148782   2.879  14.152  -1.695
13571CHOL    R248783   2.664  14.243  -1.679
13571CHOL    R348784   2.788  14.203  -1.842
13571CHOL    R448785   2.594  14.282  -1.794
13571CHOL    R548786   2.708  14.248  -1.973
13571CHOL    C148787   2.588  14.315  -2.169
13571CHOL    C248788   2.467  14.382  -2.366
13572CHOL   ROH48789  19.596  20.126   8.803
13572CHOL    R148790  19.706  20.242   8.789
13572CHOL    R248791  19.731  20.359   8.589
13572CHOL    R348792  19.829  20.372   8.773
13572CHOL    R448793  19.828  20.460   8.577
13572CHOL    R548794  19.939  20.487   8.759
13572CHOL    C148795  20.104  20.661   8.738
13572CHOL    C248796  20.268  20.835   8.717
13573CHOL   ROH48797  22.352   6.810  15.482
13573CHOL    R148798  22.493   6.774  15.549
13573CHOL    R248799  22.668   6.928  15.547
13573CHOL    R348800  22.652   6.735  15.624
13573CHOL    R448801  22.792   6.897  15.606
13573CHOL    R548802  22.793   6.699  15.690
13573CHOL    C148803  23.004   6.646  15.791
13573CHOL    C248804  23.215   6.592  15.891
13574CHOL   ROH48805  20.832   5.530   2.319
13574CHOL    R148806  20.953   5.475   2.230
13574CHOL    R248807  20.979   5.543   2.008
13574CHOL    R348808  21.089   5.413   2.129
13574CHOL    R448809  21.085   5.495   1.930
13574CHOL    R548810  21.210   5.358   2.040
13574CHOL    C148811  21.391   5.276   1.906
13574CHOL    C248812  21.573   5.194   1.772
13575CHOL   ROH48813  -2.138  10.314   2.588
13575CHOL    R148814  -2.275  10.315   2.505
13575CHOL    R248815  -2.388  10.116   2.458
13575CHOL    R348816  -2.428  10.316   2.412
13575CHOL    R448817  -2.507  10.117   2.386
13575CHOL    R548818  -2.565  10.317   2.328
13575CHOL    C148819  -2.770  10.318   2.204
13575CHOL    C248820  -2.975  10.319   2.079
13576CHOL   ROH48821  12.098  -2.328  16.421
13576CHOL    R148822  12.127  -2.466  16.496
13576CHOL    R248823  12.341  -2.517  16.574
13576CHOL    R348824  12.161  -2.622  16.580
13576CHOL    R448825  12.367  -2.638  16.640
13576CHOL    R548826  12.190  -2.760  16.655
13576CHOL    C148827  12.234  -2.967  16.768
13576CHOL    C248828  12.278  -3.175  16.881
13577CHOL   ROH48829  15.495  14.801  21.884
13577CHOL    R148830  15.563  14.857  22.018
13577CHOL    R248831  15.632  15.079  22.033
13577CHOL    R348832  15.639  14.920  22.168
13577CHOL    R448833  15.691  15.128  22.149
13577CHOL    R548834  15.706  14.977  22.301
13577CHOL    C148835  15.808  15.061  22.502
13577CHOL    C248836  15.910  15.145  22.702
13578CHOL   ROH48837  -0.527  14.953   1.769
13578CHOL    R148838  -0.645  15.013   1.679
13578CHOL    R248839  -0.659  15.242   1.637
13578CHOL    R348840  -0.778  15.081   1.578
13578CHOL    R448841  -0.762  15.295   1.558
13578CHOL    R548842  -0.895  15.141   1.488
13578CHOL    C148843  -1.072  15.231   1.354
13578CHOL    C248844  -1.249  15.321   1.219
13579CHOL   ROH48845  17.383  20.850  14.491
13579CHOL    R148846  17.474  20.969  14.548
13579CHOL    R248847  17.624  20.932  14.723
13579CHOL    R348848  17.576  21.102  14.612
13579CHOL    R448849  17.703  21.036  14.773
13579CHOL    R548850  17.667  21.221  14.669
13579CHOL    C148851  17.803  21.399  14.754
13579CHOL    C248852  17.940  21.577  14.840
13580CHOL   ROH48853  14.239  21.042   2.419
13580CHOL    R148854  14.292  21.168   2.336
13580CHOL    R248855  14.257  21.185   2.106
13580CHOL    R348856  14.352  21.311   2.244
13580CHOL    R448857  14.304  21.295   2.034
13580CHOL    R548858  14.405  21.437   2.161
13580CHOL    C148859  14.484  21.627   2.037
13580CHOL    C248860  14.563  21.816   1.913
13581CHOL   ROH48861  23.577  10.892  12.695
13581CHOL    R148862  23.734  10.902  12.722
13581CHOL    R248863  23.861  11.074  12.626
13581CHOL    R348864  23.912  10.914  12.751
13581CHOL    R448865  23.999  11.083  12.650
13581CHOL    R548866  24.069  10.924  12.778
13581CHOL    C148867  24.305  10.940  12.818
13581CHOL    C248868  24.541  10.956  12.858
13582CHOL   ROH48869   8.778   2.907  -2.183
13582CHOL    R148870   8.772   2.830  -2.323
13582CHOL    R248871   8.938   2.860  -2.484
13582CHOL    R348872   8.765   2.743  -2.480
13582CHOL    R448873   8.932   2.793  -2.607
13582CHOL    R548874   8.759   2.666  -2.620
13582CHOL    C148875   8.750   2.550  -2.830
13582CHOL    C248876   8.741   2.434  -3.040
13583CHOL   ROH48877  21.559  11.332  17.669
13583CHOL    R148878  21.691  11.344  17.759
13583CHOL    R248879  21.842  11.519  17.726
13583CHOL    R348880  21.840  11.359  17.859
13583CHOL    R448881  21.958  11.530  17.805
13583CHOL    R548882  21.972  11.371  17.949
13583CHOL    C148883  22.170  11.390  18.083
13583CHOL    C248884  22.368  11.408  18.218
13584CHOL   ROH48885   0.852   4.951   0.410
13584CHOL    R148886   0.754   4.889   0.299
13584CHOL    R248887   0.619   4.705   0.348
13584CHOL    R348888   0.644   4.819   0.175
13584CHOL    R448889   0.534   4.651   0.251
13584CHOL    R548890   0.547   4.758   0.064
13584CHOL    C148891   0.400   4.665  -0.101
13584CHOL    C248892   0.253   4.572  -0.267
13585CHOL   ROH48893  -1.847  13.661  16.870
13585CHOL    R148894  -1.981  13.701  16.948
13585CHOL    R248895  -1.988  13.886  17.089
13585CHOL    R348896  -2.132  13.745  17.035
13585CHOL    R448897  -2.106  13.921  17.157
13585CHOL    R548898  -2.266  13.785  17.112
13585CHOL    C148899  -2.468  13.844  17.229
13585CHOL    C248900  -2.669  13.903  17.345
13586CHOL   ROH48901   6.273  17.135  -1.678
13586CHOL    R148902   6.232  17.213  -1.811
13586CHOL    R248903   6.372  17.215  -1.997
13586CHOL    R348904   6.185  17.301  -1.962
13586CHOL    R448905   6.336  17.283  -2.114
13586CHOL    R548906   6.144  17.379  -2.095
13586CHOL    C148907   6.082  17.495  -2.295
13586CHOL    C248908   6.020  17.612  -2.495
13587CHOL   ROH48909  11.785  10.793  -4.017
13587CHOL    R148910  11.807  10.805  -4.175
13587CHOL    R248911  11.985  10.697  -4.280
13587CHOL    R348912  11.832  10.820  -4.353
13587CHOL    R448913  12.004  10.708  -4.418
13587CHOL    R548914  11.854  10.832  -4.511
13587CHOL    C148915  11.888  10.851  -4.747
13587CHOL    C248916  11.921  10.869  -4.984
13588CHOL   ROH48917   3.964  16.177  -1.225
13588CHOL    R148918   3.896  16.244  -1.354
13588CHOL    R248919   3.862  16.474  -1.365
13588CHOL    R348920   3.820  16.319  -1.498
13588CHOL    R448921   3.803  16.533  -1.477
13588CHOL    R548922   3.753  16.386  -1.627
13588CHOL    C148923   3.651  16.486  -1.820
13588CHOL    C248924   3.549  16.587  -2.013
13589CHOL   ROH48925   7.379  -1.457  17.727
13589CHOL    R148926   7.352  -1.588  17.815
13589CHOL    R248927   7.466  -1.623  18.015
13589CHOL    R348928   7.322  -1.735  17.914
13589CHOL    R448929   7.443  -1.738  18.092
13589CHOL    R548930   7.296  -1.867  18.001
13589CHOL    C148931   7.255  -2.063  18.133
13589CHOL    C248932   7.215  -2.260  18.265
13590CHOL   ROH48933  15.145  13.546  22.515
13590CHOL    R148934  15.205  13.590  22.656
13590CHOL    R248935  15.297  13.433  22.802
13590CHOL    R348936  15.274  13.640  22.816
13590CHOL    R448937  15.350  13.472  22.926
13590CHOL    R548938  15.334  13.684  22.957
13590CHOL    C148939  15.425  13.750  23.169
13590CHOL    C248940  15.515  13.816  23.381
13591CHOL   ROH48941  19.068  17.105  17.811
13591CHOL    R148942  19.172  17.185  17.902
13591CHOL    R248943  19.398  17.127  17.906
13591CHOL    R348944  19.289  17.275  18.005
13591CHOL    R448945  19.489  17.198  17.986
13591CHOL    R548946  19.393  17.356  18.096
13591CHOL    C148947  19.549  17.476  18.234
13591CHOL    C248948  19.705  17.596  18.371
13592CHOL   ROH48949  14.825  11.258  -3.161
13592CHOL    R148950  14.885  11.269  -3.309
13592CHOL    R248951  14.815  11.124  -3.478
13592CHOL    R348952  14.952  11.282  -3.476
13592CHOL    R448953  14.868  11.134  -3.607
13592CHOL    R548954  15.012  11.294  -3.624
13592CHOL    C148955  15.101  11.311  -3.846
13592CHOL    C248956  15.191  11.328  -4.068
13593CHOL   ROH48957  14.401  15.877  -1.987
13593CHOL    R148958  14.451  15.945  -2.123
13593CHOL    R248959  14.546  15.816  -2.293
13593CHOL    R348960  14.506  16.021  -2.276
13593CHOL    R448961  14.589  15.876  -2.412
13593CHOL    R548962  14.556  16.088  -2.412
13593CHOL    C148963  14.630  16.190  -2.617
13593CHOL    C248964  14.705  16.292  -2.821
13594CHOL   ROH48965   2.692   3.689  -0.294
13594CHOL    R148966   2.609   3.614  -0.408
13594CHOL    R248967   2.419   3.488  -0.355
13594CHOL    R348968   2.515   3.529  -0.536
13594CHOL    R448969   2.347   3.422  -0.455
13594CHOL    R548970   2.432   3.454  -0.650
13594CHOL    C148971   2.307   3.340  -0.822
13594CHOL    C248972   2.182   3.227  -0.993
13595CHOL   ROH48973   0.784   3.827  18.631
13595CHOL    R148974   0.683   3.759  18.735
13595CHOL    R248975   0.762   3.619  18.904
13595CHOL    R348976   0.570   3.683  18.852
13595CHOL    R448977   0.673   3.560  18.995
13595CHOL    R548978   0.469   3.616  18.956
13595CHOL    C148979   0.318   3.514  19.113
13595CHOL    C248980   0.167   3.412  19.269
13596CHOL   ROH48981  -4.130   8.381  10.183
13596CHOL    R148982  -4.288   8.359  10.191
13596CHOL    R248983  -4.417   8.468  10.352
13596CHOL    R348984  -4.467   8.335  10.199
13596CHOL    R448985  -4.556   8.449  10.358
13596CHOL    R548986  -4.625   8.313  10.207
13596CHOL    C148987  -4.863   8.280  10.218
13596CHOL    C248988  -5.100   8.248  10.229
13597CHOL   ROH48989   5.561   0.556  19.464
13597CHOL    R148990   5.512   0.446  19.569
13597CHOL    R248991   5.500   0.494  19.797
13597CHOL    R348992   5.457   0.322  19.687
13597CHOL    R448993   5.457   0.398  19.889
13597CHOL    R548994   5.409   0.211  19.792
13597CHOL    C148995   5.335   0.046  19.950
13597CHOL    C248996   5.262  -0.119  20.108
13598CHOL   ROH48997   5.094  23.004  12.252
13598CHOL    R148998   5.038  23.151  12.280
13598CHOL    R248999   5.091  23.329  12.140
13598CHOL    R349000   4.974  23.316  12.312
13598CHOL    R449001   5.041  23.458  12.164
13598CHOL    R549002   4.917  23.464  12.341
13598CHOL    C149003   4.833  23.684  12.383
13598CHOL    C249004   4.748  23.905  12.425
13599CHOL   ROH49005   5.159   0.235  18.922
13599CHOL    R149006   5.106   0.123  19.023
13599CHOL    R249007   5.111   0.158  19.254
13599CHOL    R349008   5.046  -0.003  19.137
13599CHOL    R449009   5.064   0.060  19.342
13599CHOL    R549010   4.993  -0.115  19.238
13599CHOL    C149011   4.914  -0.283  19.390
13599CHOL    C249012   4.835  -0.451  19.541
13600CHOL   ROH49013  11.190  -0.605  18.939
13600CHOL    R149014  11.211  -0.723  19.045
13600CHOL    R249015  11.321  -0.920  18.985
13600CHOL    R349016  11.234  -0.856  19.164
13600CHOL    R449017  11.339  -1.023  19.078
13600CHOL    R549018  11.254  -0.974  19.270
13600CHOL    C149019  11.285  -1.151  19.429
13600CHOL    C249020  11.316  -1.328  19.588
13601CHOL   ROH49021   5.491  23.372   9.141
13601CHOL    R149022   5.440  23.523   9.133
13601CHOL    R249023   5.408  23.650   9.326
13601CHOL    R349024   5.383  23.694   9.124
13601CHOL    R449025   5.363  23.782   9.319
13601CHOL    R549026   5.332  23.845   9.116
13601CHOL    C149027   5.255  24.072   9.103
13601CHOL    C249028   5.178  24.299   9.091
13602CHOL   ROH49029   5.349  -2.337  15.026
13602CHOL    R149030   5.296  -2.477  15.083
13602CHOL    R249031   5.441  -2.625  15.191
13602CHOL    R349032   5.237  -2.634  15.148
13602CHOL    R449033   5.395  -2.747  15.241
13602CHOL    R549034   5.184  -2.773  15.206
13602CHOL    C149035   5.105  -2.983  15.292
13602CHOL    C249036   5.026  -3.193  15.378
13603CHOL   ROH49037  12.813  19.086  20.247
13603CHOL    R149038  12.843  19.193  20.362
13603CHOL    R249039  13.039  19.319  20.361
13603CHOL    R349040  12.876  19.314  20.491
13603CHOL    R449041  13.065  19.413  20.461
13603CHOL    R549042  12.906  19.421  20.606
13603CHOL    C149043  12.951  19.582  20.778
13603CHOL    C249044  12.995  19.743  20.951
13604CHOL   ROH49045   1.268  14.588  19.956
13604CHOL    R149046   1.173  14.641  20.073
13604CHOL    R249047   1.260  14.707  20.279
13604CHOL    R349048   1.065  14.701  20.205
13604CHOL    R449049   1.177  14.753  20.381
13604CHOL    R549050   0.970  14.755  20.322
13604CHOL    C149051   0.827  14.834  20.497
13604CHOL    C249052   0.684  14.914  20.672
13605CHOL   ROH49053   6.157   2.852  -1.657
13605CHOL    R149054   6.110   2.767  -1.784
13605CHOL    R249055   6.221   2.571  -1.844
13605CHOL    R349056   6.058   2.671  -1.927
13605CHOL    R449057   6.180   2.496  -1.955
13605CHOL    R549058   6.011   2.586  -2.054
13605CHOL    C149059   5.941   2.458  -2.245
13605CHOL    C249060   5.871   2.330  -2.435
13606CHOL   ROH49061  20.595   8.896  18.907
13606CHOL    R149062  20.719   8.879  19.007
13606CHOL    R249063  20.924   8.980  18.961
13606CHOL    R349064  20.858   8.861  19.120
13606CHOL    R449065  21.033   8.965  19.049
13606CHOL    R549066  20.982   8.844  19.220
13606CHOL    C149067  21.168   8.819  19.370
13606CHOL    C249068  21.354   8.794  19.519
13607CHOL   ROH49069  10.389   4.224  22.742
13607CHOL    R149070  10.388   4.159  22.888
13607CHOL    R249071  10.574   4.176  23.028
13607CHOL    R349072  10.387   4.086  23.053
13607CHOL    R449073  10.573   4.119  23.156
13607CHOL    R549074  10.386   4.021  23.199
13607CHOL    C149075  10.385   3.924  23.418
13607CHOL    C249076  10.383   3.827  23.638
13608CHOL   ROH49077   3.423   9.204  22.490
13608CHOL    R149078   3.354   9.200  22.634
13608CHOL    R249079   3.445   9.072  22.807
13608CHOL    R349080   3.277   9.195  22.797
13608CHOL    R449081   3.385   9.068  22.933
13608CHOL    R549082   3.208   9.191  22.942
13608CHOL    C149083   3.106   9.184  23.158
13608CHOL    C249084   3.003   9.178  23.375
13609CHOL   ROH49085  -1.015   7.040  18.369
13609CHOL    R149086  -1.137   7.009  18.468
13609CHOL    R249087  -1.138   7.091  18.686
13609CHOL    R349088  -1.274   6.975  18.579
13609CHOL    R449089  -1.245   7.065  18.773
13609CHOL    R549090  -1.396   6.944  18.678
13609CHOL    C149091  -1.579   6.898  18.826
13609CHOL    C249092  -1.762   6.852  18.975
13610CHOL   ROH49093  -3.734  13.508   9.099
13610CHOL    R149094  -3.889  13.547   9.085
13610CHOL    R249095  -4.056  13.394   9.139
13610CHOL    R349096  -4.062  13.591   9.070
13610CHOL    R449097  -4.192  13.429   9.127
13610CHOL    R549098  -4.217  13.631   9.056
13610CHOL    C149099  -4.449  13.689   9.035
13610CHOL    C249100  -4.681  13.748   9.015
13611CHOL   ROH49101   1.110  20.743   8.251
13611CHOL    R149102   1.015  20.870   8.230
13611CHOL    R249103   1.087  21.054   8.105
13611CHOL    R349104   0.908  21.013   8.206
13611CHOL    R449105   1.004  21.165   8.087
13611CHOL    R549106   0.814  21.141   8.185
13611CHOL    C149107   0.671  21.331   8.153
13611CHOL    C249108   0.529  21.522   8.122
13612CHOL   ROH49109   8.753  14.129  -3.464
13612CHOL    R149110   8.743  14.177  -3.616
13612CHOL    R249111   8.894  14.098  -3.777
13612CHOL    R349112   8.733  14.230  -3.788
13612CHOL    R449113   8.885  14.139  -3.910
13612CHOL    R549114   8.723  14.278  -3.941
13612CHOL    C149115   8.709  14.349  -4.169
13612CHOL    C249116   8.694  14.420  -4.398
13613CHOL   ROH49117   1.118  18.476   2.927
13613CHOL    R149118   1.020  18.576   2.850
13613CHOL    R249119   0.822  18.650   2.950
13613CHOL    R349120   0.909  18.690   2.764
13613CHOL    R449121   0.736  18.738   2.883
13613CHOL    R549122   0.811  18.790   2.687
13613CHOL    C149123   0.664  18.941   2.573
13613CHOL    C249124   0.516  19.091   2.458
13614CHOL   ROH49125  -0.451  16.286   2.754
13614CHOL    R149126  -0.572  16.357   2.677
13614CHOL    R249127  -0.633  16.577   2.725
13614CHOL    R349128  -0.708  16.436   2.589
13614CHOL    R449129  -0.739  16.638   2.657
13614CHOL    R549130  -0.829  16.507   2.512
13614CHOL    C149131  -1.010  16.613   2.396
13614CHOL    C249132  -1.191  16.719   2.280
13615CHOL   ROH49133  11.632  -0.001  19.498
13615CHOL    R149134  11.656  -0.115  19.607
13615CHOL    R249135  11.847  -0.249  19.601
13615CHOL    R349136  11.683  -0.244  19.730
13615CHOL    R449137  11.868  -0.349  19.697
13615CHOL    R549138  11.707  -0.359  19.840
13615CHOL    C149139  11.743  -0.530  20.003
13615CHOL    C249140  11.779  -0.702  20.167
13616CHOL   ROH49141  16.890   3.150  19.981
13616CHOL    R149142  16.973   3.073  20.094
13616CHOL    R249143  17.185   2.987  20.051
13616CHOL    R349144  17.066   2.987  20.222
13616CHOL    R449145  17.257   2.920  20.150
13616CHOL    R549146  17.149   2.910  20.335
13616CHOL    C149147  17.273   2.795  20.506
13616CHOL    C249148  17.397   2.680  20.676
13617CHOL   ROH49149  21.306  18.018   8.902
13617CHOL    R149150  21.438  18.107   8.886
13617CHOL    R249151  21.644  18.009   8.840
13617CHOL    R349152  21.587  18.207   8.869
13617CHOL    R449153  21.760  18.087   8.826
13617CHOL    R549154  21.719  18.297   8.853
13617CHOL    C149155  21.917  18.430   8.829
13617CHOL    C249156  22.115  18.564   8.806
13618CHOL   ROH49157  14.140  23.232  11.916
13618CHOL    R149158  14.192  23.382  11.938
13618CHOL    R249159  14.312  23.441  12.129
13618CHOL    R349160  14.251  23.550  11.962
13618CHOL    R449161  14.358  23.572  12.148
13618CHOL    R549162  14.303  23.700  11.984
13618CHOL    C149163  14.381  23.925  12.017
13618CHOL    C249164  14.459  24.149  12.049
13619CHOL   ROH49165  -0.792  18.466  13.345
13619CHOL    R149166  -0.915  18.561  13.383
13619CHOL    R249167  -0.917  18.785  13.318
13619CHOL    R349168  -1.053  18.669  13.426
13619CHOL    R449169  -1.024  18.869  13.351
13619CHOL    R549170  -1.175  18.764  13.464
13619CHOL    C149171  -1.360  18.907  13.520
13619CHOL    C249172  -1.544  19.050  13.577
13620CHOL   ROH49173  21.728   4.501   4.656
13620CHOL    R149174  21.862   4.437   4.596
13620CHOL    R249175  22.019   4.570   4.485
13620CHOL    R349176  22.013   4.366   4.528
13620CHOL    R449177  22.136   4.514   4.433
13620CHOL    R549178  22.147   4.302   4.468
13620CHOL    C149179  22.347   4.206   4.378
13620CHOL    C249180  22.548   4.111   4.288
13621CHOL   ROH49181  22.733  12.487  14.905
13621CHOL    R149182  22.881  12.517  14.957
13621CHOL    R249183  23.035  12.344  14.986
13621CHOL    R349184  23.048  12.550  15.016
13621CHOL    R449185  23.165  12.370  15.032
13621CHOL    R549186  23.196  12.580  15.068
13621CHOL    C149187  23.419  12.625  15.146
13621CHOL    C249188  23.641  12.669  15.224
13622CHOL   ROH49189   0.778  20.307   7.368
13622CHOL    R149190   0.680  20.430   7.338
13622CHOL    R249191   0.756  20.619   7.225
13622CHOL    R349192   0.570  20.568   7.305
13622CHOL    R449193   0.670  20.727   7.199
13622CHOL    R549194   0.472  20.691   7.275
13622CHOL    C149195   0.324  20.875   7.230
13622CHOL    C249196   0.177  21.060   7.186
13623CHOL   ROH49197   5.446   2.029  -0.774
13623CHOL    R149198   5.391   1.937  -0.893
13623CHOL    R249199   5.357   1.708  -0.862
13623CHOL    R349200   5.328   1.834  -1.026
13623CHOL    R449201   5.309   1.628  -0.966
13623CHOL    R549202   5.273   1.742  -1.145
13623CHOL    C149203   5.190   1.604  -1.323
13623CHOL    C249204   5.107   1.466  -1.501
13624CHOL   ROH49205  19.552   1.117   4.879
13624CHOL    R149206  19.663   1.017   4.822
13624CHOL    R249207  19.878   1.091   4.772
13624CHOL    R349208  19.788   0.903   4.759
13624CHOL    R449209  19.975   1.003   4.722
13624CHOL    R549210  19.898   0.803   4.702
13624CHOL    C149211  20.065   0.652   4.617
13624CHOL    C249212  20.231   0.502   4.532
13625CHOL   ROH49213  13.641  11.003  -3.585
13625CHOL    R149214  13.686  11.016  -3.738
13625CHOL    R249215  13.564  10.912  -3.908
13625CHOL    R349216  13.736  11.030  -3.910
13625CHOL    R449217  13.603  10.923  -4.042
13625CHOL    R549218  13.781  11.043  -4.063
13625CHOL    C149219  13.848  11.062  -4.293
13625CHOL    C249220  13.915  11.081  -4.523
13626CHOL   ROH49221  23.036  10.423  14.871
13626CHOL    R149222  23.186  10.434  14.925
13626CHOL    R249223  23.355  10.298  14.838
13626CHOL    R349224  23.355  10.445  14.986
13626CHOL    R449225  23.486  10.307  14.886
13626CHOL    R549226  23.505  10.456  15.040
13626CHOL    C149227  23.731  10.472  15.121
13626CHOL    C249228  23.956  10.488  15.202
13627CHOL   ROH49229  16.037   3.586  -1.009
13627CHOL    R149230  16.112   3.518  -1.133
13627CHOL    R249231  16.006   3.494  -1.339
13627CHOL    R349232  16.196   3.441  -1.272
13627CHOL    R449233  16.071   3.434  -1.447
13627CHOL    R549234  16.271   3.373  -1.396
13627CHOL    C149235  16.383   3.271  -1.582
13627CHOL    C249236  16.496   3.169  -1.768
13628CHOL   ROH49237  16.819  18.632   1.344
13628CHOL    R149238  16.902  18.734   1.253
13628CHOL    R249239  17.134  18.722   1.240
13628CHOL    R349240  16.995  18.850   1.151
13628CHOL    R449241  17.207  18.812   1.160
13628CHOL    R549242  17.078  18.952   1.060
13628CHOL    C149243  17.202  19.106   0.924
13628CHOL    C249244  17.327  19.259   0.787
13629CHOL   ROH49245   2.549   1.860   1.236
13629CHOL    R149246   2.469   1.766   1.134
13629CHOL    R249247   2.272   1.660   1.199
13629CHOL    R349248   2.380   1.659   1.020
13629CHOL    R449249   2.202   1.577   1.109
13629CHOL    R549250   2.300   1.565   0.918
13629CHOL    C149251   2.180   1.423   0.765
13629CHOL    C249252   2.061   1.282   0.613
13630CHOL   ROH49253   2.364  15.790  20.212
13630CHOL    R149254   2.276  15.854  20.330
13630CHOL    R249255   2.377  15.936  20.523
13630CHOL    R349256   2.178  15.926  20.462
13630CHOL    R449257   2.301  15.992  20.626
13630CHOL    R549258   2.091  15.990  20.580
13630CHOL    C149259   1.959  16.087  20.756
13630CHOL    C249260   1.828  16.183  20.932
13631CHOL   ROH49261   5.069   3.504  21.515
13631CHOL    R149262   5.014   3.432  21.647
13631CHOL    R249263   5.024   3.200  21.669
13631CHOL    R349264   4.952   3.350  21.795
13631CHOL    R449265   4.975   3.136  21.785
13631CHOL    R549266   4.897   3.278  21.927
13631CHOL    C149267   4.814   3.170  22.124
13631CHOL    C249268   4.731   3.061  22.322
13632CHOL   ROH49269  13.223  -1.579  17.200
13632CHOL    R149270  13.259  -1.708  17.287
13632CHOL    R249271  13.459  -1.720  17.407
13632CHOL    R349272  13.300  -1.854  17.385
13632CHOL    R449273  13.491  -1.833  17.483
13632CHOL    R549274  13.337  -1.983  17.472
13632CHOL    C149275  13.391  -2.177  17.603
13632CHOL    C249276  13.445  -2.371  17.733
13633CHOL   ROH49277  20.811   1.523   7.562
13633CHOL    R149278  20.937   1.428   7.535
13633CHOL    R249279  21.013   1.388   7.318
13633CHOL    R349280  21.079   1.322   7.505
13633CHOL    R449281  21.124   1.305   7.295
13633CHOL    R549282  21.206   1.227   7.478
13633CHOL    C149283  21.395   1.085   7.438
13633CHOL    C249284  21.584   0.943   7.397
13634CHOL   ROH49285   5.557  19.519   0.534
13634CHOL    R149286   5.513  19.633   0.431
13634CHOL    R249287   5.559  19.858   0.473
13634CHOL    R349288   5.464  19.761   0.315
13634CHOL    R449289   5.521  19.957   0.383
13634CHOL    R549290   5.420  19.876   0.211
13634CHOL    C149291   5.354  20.047   0.057
13634CHOL    C249292   5.288  20.218  -0.098
13635CHOL   ROH49293  17.823  -1.595   9.445
13635CHOL    R149294  17.911  -1.728   9.441
13635CHOL    R249295  18.139  -1.720   9.393
13635CHOL    R349296  18.010  -1.879   9.436
13635CHOL    R449297  18.216  -1.837   9.389
13635CHOL    R549298  18.099  -2.012   9.432
13635CHOL    C149299  18.231  -2.212   9.425
13635CHOL    C249300  18.363  -2.412   9.419
13636CHOL   ROH49301   7.749   3.928  -2.604
13636CHOL    R149302   7.731   3.863  -2.749
13636CHOL    R249303   7.820   3.652  -2.798
13636CHOL    R349304   7.712   3.790  -2.912
13636CHOL    R449305   7.804   3.595  -2.925
13636CHOL    R549306   7.694   3.724  -3.058
13636CHOL    C149307   7.668   3.627  -3.275
13636CHOL    C249308   7.641   3.529  -3.493
13637CHOL   ROH49309  23.119   7.491  13.949
13637CHOL    R149310  23.270   7.461  13.994
13637CHOL    R249311  23.357   7.245  13.982
13637CHOL    R349312  23.439   7.426  14.044
13637CHOL    R449313  23.489   7.218  14.021
13637CHOL    R549314  23.589   7.396  14.088
13637CHOL    C149315  23.815   7.350  14.155
13637CHOL    C249316  24.041   7.305  14.222
13638CHOL   ROH49317  11.204  22.550  16.129
13638CHOL    R149318  11.223  22.692  16.200
13638CHOL    R249319  11.350  22.713  16.395
13638CHOL    R349320  11.244  22.852  16.280
13638CHOL    R449321  11.367  22.837  16.457
13638CHOL    R549322  11.263  22.994  16.351
13638CHOL    C149323  11.292  23.207  16.458
13638CHOL    C249324  11.321  23.420  16.564
13639CHOL   ROH49325  13.769  16.283  -1.991
13639CHOL    R149326  13.810  16.354  -2.128
13639CHOL    R249327  13.903  16.232  -2.304
13639CHOL    R349328  13.856  16.435  -2.282
13639CHOL    R449329  13.939  16.295  -2.424
13639CHOL    R549330  13.898  16.506  -2.420
13639CHOL    C149331  13.959  16.613  -2.625
13639CHOL    C249332  14.021  16.720  -2.831
13640CHOL   ROH49333  -3.551   7.202   6.612
13640CHOL    R149334  -3.703   7.172   6.573
13640CHOL    R249335  -3.879   7.244   6.708
13640CHOL    R349336  -3.874   7.138   6.529
13640CHOL    R449337  -4.012   7.218   6.674
13640CHOL    R549338  -4.026   7.108   6.490
13640CHOL    C149339  -4.255   7.063   6.431
13640CHOL    C249340  -4.483   7.018   6.372
13641CHOL   ROH49341  15.881  18.894   0.853
13641CHOL    R149342  15.955  18.997   0.755
13641CHOL    R249343  16.185  18.983   0.717
13641CHOL    R349344  16.038  19.113   0.645
13641CHOL    R449345  16.249  19.073   0.632
13641CHOL    R549346  16.112  19.216   0.547
13641CHOL    C149347  16.223  19.370   0.401
13641CHOL    C249348  16.334  19.524   0.254
13642CHOL   ROH49349  14.706  22.951   7.745
13642CHOL    R149350  14.764  23.098   7.721
13642CHOL    R249351  14.943  23.134   7.575
13642CHOL    R349352  14.830  23.263   7.693
13642CHOL    R449353  14.994  23.262   7.554
13642CHOL    R549354  14.888  23.411   7.669
13642CHOL    C149355  14.975  23.631   7.633
13642CHOL    C249356  15.063  23.852   7.596
13643CHOL   ROH49357  -3.892   8.824   7.304
13643CHOL    R149358  -4.048   8.818   7.268
13643CHOL    R249359  -4.197   8.976   7.354
13643CHOL    R349360  -4.223   8.811   7.228
13643CHOL    R449361  -4.333   8.971   7.322
13643CHOL    R549362  -4.379   8.806   7.192
13643CHOL    C149363  -4.613   8.797   7.138
13643CHOL    C249364  -4.847   8.788   7.084
13644CHOL   ROH49365   6.303  23.360   7.134
13644CHOL    R149366   6.264  23.512   7.104
13644CHOL    R249367   6.277  23.675   7.271
13644CHOL    R349368   6.220  23.684   7.070
13644CHOL    R449369   6.243  23.808   7.244
13644CHOL    R549370   6.181  23.836   7.040
13644CHOL    C149371   6.123  24.064   6.995
13644CHOL    C249372   6.065  24.293   6.950
13645CHOL   ROH49373  22.873  14.972   8.489
13645CHOL    R149374  23.019  15.035   8.472
13645CHOL    R249375  23.195  14.910   8.383
13645CHOL    R349376  23.183  15.107   8.454
13645CHOL    R449377  23.322  14.966   8.369
13645CHOL    R549378  23.329  15.170   8.437
13645CHOL    C149379  23.548  15.265   8.412
13645CHOL    C249380  23.767  15.360   8.387
13646CHOL   ROH49381  -0.090   3.029   2.735
13646CHOL    R149382  -0.198   2.948   2.649
13646CHOL    R249383  -0.171   2.720   2.608
13646CHOL    R349384  -0.320   2.857   2.553
13646CHOL    R449385  -0.266   2.649   2.533
13646CHOL    R549386  -0.428   2.775   2.468
13646CHOL    C149387  -0.590   2.654   2.339
13646CHOL    C249388  -0.752   2.532   2.211
13647CHOL   ROH49389   6.918   3.859  22.160
13647CHOL    R149390   6.890   3.794  22.304
13647CHOL    R249391   7.065   3.747  22.450
13647CHOL    R349392   6.858   3.721  22.465
13647CHOL    R449393   7.040   3.691  22.576
13647CHOL    R549394   6.830   3.656  22.608
13647CHOL    C149395   6.788   3.559  22.824
13647CHOL    C249396   6.746   3.462  23.039
13648CHOL   ROH49397  22.846   9.446   4.596
13648CHOL    R149398  22.994   9.441   4.535
13648CHOL    R249399  23.108   9.636   4.479
13648CHOL    R349400  23.160   9.435   4.467
13648CHOL    R449401  23.237   9.632   4.426
13648CHOL    R549402  23.308   9.429   4.407
13648CHOL    C149403  23.530   9.422   4.316
13648CHOL    C249404  23.752   9.414   4.225
13649CHOL   ROH49405  19.004   1.736  16.726
13649CHOL    R149406  19.103   1.639  16.806
13649CHOL    R249407  19.334   1.653  16.778
13649CHOL    R349408  19.214   1.530  16.897
13649CHOL    R449409  19.421   1.568  16.848
13649CHOL    R549410  19.313   1.433  16.977
13649CHOL    C149411  19.461   1.288  17.097
13649CHOL    C249412  19.610   1.143  17.218
13650CHOL   ROH49413  -3.445   7.672  13.778
13650CHOL    R149414  -3.598   7.645  13.817
13650CHOL    R249415  -3.660   7.602  14.038
13650CHOL    R349416  -3.770   7.614  13.861
13650CHOL    R449417  -3.793   7.578  14.072
13650CHOL    R549418  -3.922   7.587  13.900
13650CHOL    C149419  -4.152   7.546  13.958
13650CHOL    C249420  -4.381   7.505  14.016
13651CHOL   ROH49421   9.654  19.290  -0.533
13651CHOL    R149422   9.652  19.396  -0.653
13651CHOL    R249423   9.756  19.604  -0.631
13651CHOL    R349424   9.650  19.515  -0.788
13651CHOL    R449425   9.754  19.696  -0.736
13651CHOL    R549426   9.649  19.621  -0.908
13651CHOL    C149427   9.646  19.780  -1.087
13651CHOL    C249428   9.643  19.939  -1.267
13652CHOL   ROH49429  -3.436  11.249  14.372
13652CHOL    R149430  -3.589  11.255  14.419
13652CHOL    R249431  -3.668  11.116  14.588
13652CHOL    R349432  -3.761  11.263  14.472
13652CHOL    R449433  -3.802  11.121  14.630
13652CHOL    R549434  -3.914  11.269  14.519
13652CHOL    C149435  -4.143  11.279  14.590
13652CHOL    C249436  -4.372  11.288  14.661
13653CHOL   ROH49437  15.464  20.779  16.919
13653CHOL    R149438  15.530  20.902  16.996
13653CHOL    R249439  15.585  21.099  16.884
13653CHOL    R349440  15.605  21.041  17.084
13653CHOL    R449441  15.643  21.207  16.952
13653CHOL    R549442  15.671  21.164  17.161
13653CHOL    C149443  15.770  21.350  17.277
13653CHOL    C249444  15.870  21.535  17.393
13654CHOL   ROH49445  19.827  17.070   3.030
13654CHOL    R149446  19.936  17.156   2.951
13654CHOL    R249447  19.929  17.174   2.718
13654CHOL    R349448  20.059  17.253   2.862
13654CHOL    R449449  20.025  17.249   2.649
13654CHOL    R549450  20.168  17.338   2.783
13654CHOL    C149451  20.332  17.467   2.664
13654CHOL    C249452  20.495  17.596   2.545
13655CHOL   ROH49453  11.243  11.650  23.837
13655CHOL    R149454  11.259  11.673  23.994
13655CHOL    R249455  11.392  11.532  24.123
13655CHOL    R349456  11.277  11.699  24.172
13655CHOL    R449457  11.406  11.552  24.261
13655CHOL    R549458  11.293  11.722  24.329
13655CHOL    C149459  11.318  11.757  24.565
13655CHOL    C249460  11.342  11.791  24.801
13656CHOL   ROH49461   7.647   4.867  22.725
13656CHOL    R149462   7.621   4.809  22.872
13656CHOL    R249463   7.776   4.840  23.043
13656CHOL    R349464   7.592   4.743  23.037
13656CHOL    R449465   7.754   4.789  23.171
13656CHOL    R549466   7.565   4.685  23.184
13656CHOL    C149467   7.526   4.597  23.404
13656CHOL    C249468   7.487   4.509  23.624
13657CHOL   ROH49469  -3.831  13.219   9.485
13657CHOL    R149470  -3.986  13.256   9.477
13657CHOL    R249471  -4.150  13.105   9.546
13657CHOL    R349472  -4.161  13.298   9.468
13657CHOL    R449473  -4.286  13.137   9.539
13657CHOL    R549474  -4.316  13.335   9.460
13657CHOL    C149475  -4.550  13.391   9.448
13657CHOL    C249476  -4.783  13.446   9.436
13658CHOL   ROH49477   0.265  10.674  -0.230
13658CHOL    R149478   0.156  10.680  -0.347
13658CHOL    R249479   0.009  10.860  -0.365
13658CHOL    R349480   0.034  10.688  -0.479
13658CHOL    R449481  -0.086  10.866  -0.467
13658CHOL    R549482  -0.074  10.694  -0.597
13658CHOL    C149483  -0.237  10.704  -0.772
13658CHOL    C249484  -0.400  10.713  -0.948
13659CHOL   ROH49485   9.699   1.012  -0.907
13659CHOL    R149486   9.701   0.911  -1.031
13659CHOL    R249487   9.867   0.748  -1.050
13659CHOL    R349488   9.703   0.796  -1.170
13659CHOL    R449489   9.869   0.660  -1.158
13659CHOL    R549490   9.705   0.695  -1.294
13659CHOL    C149491   9.708   0.543  -1.479
13659CHOL    C249492   9.711   0.391  -1.665
13660CHOL   ROH49493  21.252   1.736  10.099
13660CHOL    R149494  21.382   1.643  10.097
13660CHOL    R249495  21.463   1.554   9.897
13660CHOL    R349496  21.529   1.539  10.094
13660CHOL    R449497  21.577   1.473   9.895
13660CHOL    R549498  21.660   1.446  10.092
13660CHOL    C149499  21.855   1.308  10.089
13660CHOL    C249500  22.051   1.169  10.085
13661CHOL   ROH49501  14.799  -2.567  13.822
13661CHOL    R149502  14.855  -2.710  13.866
13661CHOL    R249503  15.017  -2.730  14.033
13661CHOL    R349504  14.917  -2.872  13.917
13661CHOL    R449505  15.065  -2.855  14.072
13661CHOL    R549506  14.972  -3.015  13.961
13661CHOL    C149507  15.056  -3.230  14.028
13661CHOL    C249508  15.139  -3.445  14.094
13662CHOL   ROH49509   4.970  17.891  -0.704
13662CHOL    R149510   4.916  17.980  -0.826
13662CHOL    R249511   5.048  18.019  -1.014
13662CHOL    R349512   4.855  18.079  -0.963
13662CHOL    R449513   5.001  18.096  -1.121
13662CHOL    R549514   4.801  18.168  -1.085
13662CHOL    C149515   4.720  18.301  -1.267
13662CHOL    C249516   4.639  18.434  -1.450
13663CHOL   ROH49517  13.659  23.448  11.422
13663CHOL    R149518  13.703  23.601  11.440
13663CHOL    R249519  13.820  23.671  11.629
13663CHOL    R349520  13.752  23.773  11.460
13663CHOL    R449521  13.858  23.805  11.644
13663CHOL    R549522  13.796  23.925  11.477
13663CHOL    C149523  13.862  24.155  11.504
13663CHOL    C249524  13.928  24.384  11.531
13664CHOL   ROH49525  19.812   4.417   1.805
13664CHOL    R149526  19.922   4.350   1.710
13664CHOL    R249527  20.078   4.481   1.596
13664CHOL    R349528  20.046   4.275   1.603
13664CHOL    R449529  20.174   4.423   1.513
13664CHOL    R549530  20.156   4.208   1.509
13664CHOL    C149531  20.322   4.108   1.366
13664CHOL    C249532  20.487   4.008   1.224
13665CHOL   ROH49533  14.425  22.268   5.022
13665CHOL    R149534  14.473  22.411   4.970
13665CHOL    R249535  14.567  22.436   4.758
13665CHOL    R349536  14.527  22.573   4.910
13665CHOL    R449537  14.609  22.562   4.712
13665CHOL    R549538  14.574  22.716   4.858
13665CHOL    C149539  14.646  22.931   4.779
13665CHOL    C249540  14.718  23.146   4.701
13666CHOL   ROH49541  -0.318  19.039  13.370
13666CHOL    R149542  -0.436  19.140  13.409
13666CHOL    R249543  -0.561  19.108  13.603
13666CHOL    R349544  -0.569  19.253  13.453
13666CHOL    R449545  -0.665  19.196  13.638
13666CHOL    R549546  -0.687  19.353  13.492
13666CHOL    C149547  -0.864  19.504  13.551
13666CHOL    C249548  -1.041  19.655  13.610
13667CHOL   ROH49549  18.739  16.023   0.820
13667CHOL    R149550  18.838  16.093   0.716
13667CHOL    R249551  18.772  16.132   0.495
13667CHOL    R349552  18.949  16.171   0.598
13667CHOL    R449553  18.858  16.194   0.404
13667CHOL    R549554  19.049  16.241   0.494
13667CHOL    C149555  19.197  16.346   0.337
13667CHOL    C249556  19.346  16.450   0.180
13668CHOL   ROH49557  13.883  13.571  -3.049
13668CHOL    R149558  13.926  13.613  -3.197
13668CHOL    R249559  13.780  13.585  -3.377
13668CHOL    R349560  13.974  13.661  -3.364
13668CHOL    R449561  13.817  13.622  -3.507
13668CHOL    R549562  14.016  13.703  -3.513
13668CHOL    C149563  14.081  13.767  -3.735
13668CHOL    C249564  14.145  13.831  -3.957
13669CHOL   ROH49565   4.926   1.717  20.260
13669CHOL    R149566   4.870   1.621  20.375
13669CHOL    R249567   4.982   1.599  20.578
13669CHOL    R349568   4.806   1.514  20.505
13669CHOL    R449569   4.933   1.515  20.679
13669CHOL    R549570   4.749   1.419  20.620
13669CHOL    C149571   4.665   1.275  20.793
13669CHOL    C249572   4.580   1.132  20.966
13670CHOL   ROH49573  11.078  -2.625   3.790
13670CHOL    R149574  11.088  -2.767   3.717
13670CHOL    R249575  11.194  -2.948   3.820
13670CHOL    R349576  11.100  -2.927   3.634
13670CHOL    R449577  11.203  -3.072   3.756
13670CHOL    R549578  11.110  -3.069   3.561
13670CHOL    C149579  11.126  -3.281   3.451
13670CHOL    C249580  11.142  -3.494   3.341
13671CHOL   ROH49581  20.455  14.687   1.939
13671CHOL    R149582  20.577  14.738   1.850
13671CHOL    R249583  20.541  14.833   1.639
13671CHOL    R349584  20.715  14.796   1.749
13671CHOL    R449585  20.648  14.878   1.561
13671CHOL    R549586  20.837  14.848   1.659
13671CHOL    C149587  21.021  14.925   1.525
13671CHOL    C249588  21.205  15.002   1.391
13672CHOL   ROH49589  23.485   6.519  10.035
13672CHOL    R149590  23.641   6.486  10.036
13672CHOL    R249591  23.742   6.377   9.855
13672CHOL    R349592  23.818   6.448  10.036
13672CHOL    R449593  23.879   6.348   9.856
13672CHOL    R549594  23.974   6.415  10.037
13672CHOL    C149595  24.209   6.365  10.038
13672CHOL    C249596  24.443   6.315  10.039
13673CHOL   ROH49597   3.865   2.787  20.440
13673CHOL    R149598   3.788   2.710  20.557
13673CHOL    R249599   3.735   2.817  20.757
13673CHOL    R349600   3.702   2.623  20.689
13673CHOL    R449601   3.668   2.750  20.860
13673CHOL    R549602   3.625   2.546  20.806
13673CHOL    C149603   3.510   2.430  20.982
13673CHOL    C249604   3.395   2.314  21.157
13674CHOL   ROH49605  -4.242   9.845  10.036
13674CHOL    R149606  -4.402   9.843  10.039
13674CHOL    R249607  -4.522  10.011  10.148
13674CHOL    R349608  -4.582   9.841  10.042
13674CHOL    R449609  -4.662  10.009  10.151
13674CHOL    R549610  -4.742   9.838  10.045
13674CHOL    C149611  -4.982   9.835  10.050
13674CHOL    C249612  -5.222   9.832  10.055
13675CHOL   ROH49613  23.813   9.785  10.625
13675CHOL    R149614  23.973   9.783  10.632
13675CHOL    R249615  24.101   9.895  10.472
13675CHOL    R349616  24.153   9.781  10.639
13675CHOL    R449617  24.241   9.894  10.478
13675CHOL    R549618  24.312   9.780  10.646
13675CHOL    C149619  24.552   9.777  10.655
13675CHOL    C249620  24.792   9.774  10.665
13676CHOL   ROH49621  23.664  12.091  11.121
13676CHOL    R149622  23.822  12.110  11.135
13676CHOL    R249623  23.946  12.213  10.967
13676CHOL    R349624  24.000  12.132  11.151
13676CHOL    R449625  24.085  12.230  10.979
13676CHOL    R549626  24.158  12.152  11.165
13676CHOL    C149627  24.396  12.181  11.187
13676CHOL    C249628  24.633  12.210  11.208
13677CHOL   ROH49629  16.519   4.088  -0.964
13677CHOL    R149630  16.599   4.027  -1.088
13677CHOL    R249631  16.775   4.144  -1.188
13677CHOL    R349632  16.690   3.957  -1.228
13677CHOL    R449633  16.845   4.090  -1.296
13677CHOL    R549634  16.770   3.896  -1.352
13677CHOL    C149635  16.890   3.804  -1.538
13677CHOL    C249636  17.011   3.712  -1.724
13678CHOL   ROH49637  22.117   3.535  12.432
13678CHOL    R149638  22.257   3.462  12.460
13678CHOL    R249639  22.335   3.293  12.320
13678CHOL    R349640  22.414   3.380  12.492
13678CHOL    R449641  22.457   3.229  12.345
13678CHOL    R549642  22.553   3.308  12.521
13678CHOL    C149643  22.763   3.198  12.563
13678CHOL    C249644  22.973   3.089  12.605
13679CHOL   ROH49645  20.717  16.696  15.908
13679CHOL    R149646  20.838  16.779  15.972
13679CHOL    R249647  21.053  16.766  15.883
13679CHOL    R349648  20.973  16.872  16.045
13679CHOL    R449649  21.158  16.839  15.940
13679CHOL    R549650  21.094  16.955  16.109
13679CHOL    C149651  21.275  17.080  16.205
13679CHOL    C249652  21.456  17.205  16.302
13680CHOL   ROH49653   3.678   1.623  19.421
13680CHOL    R149654   3.602   1.530  19.526
13680CHOL    R249655   3.663   1.528  19.751
13680CHOL    R349656   3.515   1.425  19.645
13680CHOL    R449657   3.596   1.446  19.844
13680CHOL    R549658   3.439   1.332  19.750
13680CHOL    C149659   3.324   1.193  19.909
13680CHOL    C249660   3.210   1.054  20.067
13681CHOL   ROH49661  18.384  -0.724  13.077
13681CHOL    R149662  18.480  -0.847  13.113
13681CHOL    R249663  18.682  -0.813  13.224
13681CHOL    R349664  18.587  -0.985  13.155
13681CHOL    R449665  18.766  -0.921  13.256
13681CHOL    R549666  18.682  -1.109  13.191
13681CHOL    C149667  18.826  -1.293  13.246
13681CHOL    C249668  18.969  -1.478  13.300
13682CHOL   ROH49669  -1.287   9.936   1.418
13682CHOL    R149670  -1.409   9.932   1.315
13682CHOL    R249671  -1.498   9.729   1.242
13682CHOL    R349672  -1.547   9.928   1.199
13682CHOL    R449673  -1.605   9.726   1.152
13682CHOL    R549674  -1.669   9.924   1.096
13682CHOL    C149675  -1.853   9.918   0.941
13682CHOL    C249676  -2.037   9.912   0.787
13683CHOL   ROH49677   6.105   8.580  -3.541
13683CHOL    R149678   6.065   8.565  -3.695
13683CHOL    R249679   5.925   8.392  -3.767
13683CHOL    R349680   6.020   8.548  -3.869
13683CHOL    R449681   5.890   8.379  -3.902
13683CHOL    R549682   5.980   8.533  -4.023
13683CHOL    C149683   5.920   8.510  -4.254
13683CHOL    C249684   5.860   8.487  -4.486
13684CHOL   ROH49685  15.145  20.403  17.733
13684CHOL    R149686  15.206  20.524  17.819
13684CHOL    R249687  15.312  20.485  18.023
13684CHOL    R349688  15.275  20.659  17.915
13684CHOL    R449689  15.366  20.590  18.097
13684CHOL    R549690  15.336  20.780  18.000
13684CHOL    C149691  15.428  20.961  18.129
13684CHOL    C249692  15.519  21.142  18.257
13685CHOL   ROH49693  -0.438   1.150  13.663
13685CHOL    R149694  -0.556   1.051  13.706
13685CHOL    R249695  -0.544   0.928  13.904
13685CHOL    R349696  -0.690   0.940  13.754
13685CHOL    R449697  -0.648   0.842  13.941
13685CHOL    R549698  -0.808   0.841  13.797
13685CHOL    C149699  -0.986   0.693  13.861
13685CHOL    C249700  -1.163   0.545  13.926
13686CHOL   ROH49701  22.509  10.462  16.084
13686CHOL    R149702  22.652  10.469  16.156
13686CHOL    R249703  22.834  10.349  16.072
13686CHOL    R349704  22.813  10.476  16.236
13686CHOL    R449705  22.959  10.355  16.135
13686CHOL    R549706  22.955  10.483  16.308
13686CHOL    C149707  23.170  10.493  16.416
13686CHOL    C249708  23.384  10.503  16.523
13687CHOL   ROH49709  22.573  14.499   5.880
13687CHOL    R149710  22.716  14.555   5.837
13687CHOL    R249711  22.736  14.722   5.675
13687CHOL    R349712  22.878  14.619   5.789
13687CHOL    R449713  22.862  14.771   5.637
13687CHOL    R549714  23.021  14.675   5.745
13687CHOL    C149715  23.236  14.759   5.681
13687CHOL    C249716  23.451  14.844   5.616
13688CHOL   ROH49717  20.265  14.405  18.265
13688CHOL    R149718  20.376  14.453  18.369
13688CHOL    R249719  20.599  14.390  18.345
13688CHOL    R349720  20.501  14.508  18.487
13688CHOL    R449721  20.697  14.432  18.437
13688CHOL    R549722  20.613  14.556  18.592
13688CHOL    C149723  20.779  14.629  18.748
13688CHOL    C249724  20.946  14.702  18.905
13689CHOL   ROH49725  22.061  16.928  10.063
13689CHOL    R149726  22.200  17.007  10.061
13689CHOL    R249727  22.243  17.171   9.901
13689CHOL    R349728  22.357  17.095  10.059
13689CHOL    R449729  22.365  17.240   9.899
13689CHOL    R549730  22.497  17.174  10.057
13689CHOL    C149731  22.706  17.292  10.054
13689CHOL    C249732  22.915  17.410  10.051
13690CHOL   ROH49733  12.067  18.107  -1.305
13690CHOL    R149734  12.091  18.199  -1.434
13690CHOL    R249735  12.267  18.351  -1.442
13690CHOL    R349736  12.117  18.302  -1.579
13690CHOL    R449737  12.288  18.432  -1.554
13690CHOL    R549738  12.141  18.394  -1.707
13690CHOL    C149739  12.177  18.532  -1.901
13690CHOL    C249740  12.212  18.670  -2.094
13691CHOL   ROH49741  22.728   6.042  13.990
13691CHOL    R149742  22.874   5.996  14.036
13691CHOL    R249743  23.052   6.148  14.041
13691CHOL    R349744  23.039   5.944  14.087
13691CHOL    R449745  23.179   6.107  14.081
13691CHOL    R549746  23.185   5.898  14.133
13691CHOL    C149747  23.404   5.830  14.202
13691CHOL    C249748  23.624   5.761  14.270
13692CHOL   ROH49749  23.802   9.232  10.525
13692CHOL    R149750  23.962   9.225  10.530
13692CHOL    R249751  24.092   9.361  10.393
13692CHOL    R349752  24.142   9.217  10.536
13692CHOL    R449753  24.232   9.355  10.397
13692CHOL    R549754  24.301   9.211  10.541
13692CHOL    C149755  24.541   9.200  10.549
13692CHOL    C249756  24.781   9.190  10.556
13693CHOL   ROH49757  11.475  22.077  16.910
13693CHOL    R149758  11.499  22.212  16.992
13693CHOL    R249759  11.715  22.294  17.027
13693CHOL    R349760  11.527  22.364  17.084
13693CHOL    R449761  11.736  22.412  17.099
13693CHOL    R549762  11.552  22.500  17.166
13693CHOL    C149763  11.588  22.702  17.289
13693CHOL    C249764  11.625  22.905  17.412
13694CHOL   ROH49765   9.061  23.079   4.756
13694CHOL    R149766   9.053  23.228   4.699
13694CHOL    R249767   9.202  23.303   4.536
13694CHOL    R349768   9.044  23.396   4.635
13694CHOL    R449769   9.194  23.433   4.486
13694CHOL    R549770   9.036  23.546   4.578
13694CHOL    C149771   9.023  23.769   4.493
13694CHOL    C249772   9.011  23.993   4.407
13695CHOL   ROH49773  15.536  -0.536  17.372
13695CHOL    R149774  15.600  -0.653  17.461
13695CHOL    R249775  15.787  -0.771  17.386
13695CHOL    R349776  15.673  -0.784  17.560
13695CHOL    R449777  15.843  -0.873  17.463
13695CHOL    R549778  15.737  -0.900  17.649
13695CHOL    C149779  15.833  -1.075  17.782
13695CHOL    C249780  15.930  -1.250  17.915
13696CHOL   ROH49781   8.021   4.228  -2.762
13696CHOL    R149782   8.008   4.167  -2.909
13696CHOL    R249783   7.998   3.936  -2.943
13696CHOL    R349784   7.993   4.098  -3.075
13696CHOL    R449785   7.987   3.883  -3.072
13696CHOL    R549786   7.979   4.037  -3.222
13696CHOL    C149787   7.960   3.945  -3.443
13696CHOL    C249788   7.940   3.853  -3.664
13697CHOL   ROH49789  10.130  -0.334  19.399
13697CHOL    R149790  10.140  -0.451  19.507
13697CHOL    R249791  10.148  -0.675  19.442
13697CHOL    R349792  10.152  -0.583  19.630
13697CHOL    R449793  10.158  -0.777  19.537
13697CHOL    R549794  10.163  -0.700  19.738
13697CHOL    C149795  10.178  -0.876  19.901
13697CHOL    C249796  10.194  -1.051  20.063
13698CHOL   ROH49797   2.222  21.680   9.446
13698CHOL    R149798   2.134  21.813   9.433
13698CHOL    R249799   2.235  22.020   9.395
13698CHOL    R349800   2.036  21.963   9.419
13698CHOL    R449801   2.158  22.136   9.384
13698CHOL    R549802   1.948  22.096   9.406
13698CHOL    C149803   1.816  22.296   9.387
13698CHOL    C249804   1.685  22.495   9.368
13699CHOL   ROH49805  16.799   0.222   2.563
13699CHOL    R149806  16.879   0.111   2.479
13699CHOL    R249807  17.053   0.171   2.336
13699CHOL    R349808  16.968  -0.014   2.386
13699CHOL    R449809  17.123   0.074   2.263
13699CHOL    R549810  17.047  -0.125   2.302
13699CHOL    C149811  17.167  -0.291   2.177
13699CHOL    C249812  17.286  -0.457   2.051
13700CHOL   ROH49813   8.659  19.833  19.838
13700CHOL    R149814   8.640  19.944  19.952
13700CHOL    R249815   8.707  20.165  19.917
13700CHOL    R349816   8.620  20.068  20.080
13700CHOL    R449817   8.690  20.261  20.016
13700CHOL    R549818   8.601  20.179  20.194
13700CHOL    C149819   8.573  20.345  20.365
13700CHOL    C249820   8.545  20.511  20.536
13701CHOL   ROH49821  10.519  17.908  -1.636
13701CHOL    R149822  10.527  18.001  -1.766
13701CHOL    R249823  10.716  18.131  -1.808
13701CHOL    R349824  10.536  18.107  -1.911
13701CHOL    R449825  10.723  18.213  -1.922
13701CHOL    R549826  10.545  18.200  -2.041
13701CHOL    C149827  10.557  18.340  -2.235
13701CHOL    C249828  10.569  18.480  -2.430
13702CHOL   ROH49829  -1.086  18.126  13.219
13702CHOL    R149830  -1.211  18.218  13.256
13702CHOL    R249831  -1.181  18.429  13.351
13702CHOL    R349832  -1.352  18.323  13.297
13702CHOL    R449833  -1.291  18.510  13.383
13702CHOL    R549834  -1.478  18.415  13.333
13702CHOL    C149835  -1.665  18.554  13.388
13702CHOL    C249836  -1.853  18.692  13.443
13703CHOL   ROH49837  11.653  20.848  18.608
13703CHOL    R149838  11.677  20.971  18.707
13703CHOL    R249839  11.888  21.012  18.799
13703CHOL    R349840  11.704  21.110  18.819
13703CHOL    R449841  11.909  21.120  18.885
13703CHOL    R549842  11.728  21.233  18.918
13703CHOL    C149843  11.764  21.418  19.067
13703CHOL    C249844  11.800  21.603  19.216
13704CHOL   ROH49845   9.070   4.517  22.787
13704CHOL    R149846   9.055   4.456  22.934
13704CHOL    R249847   9.117   4.236  22.981
13704CHOL    R349848   9.038   4.388  23.100
13704CHOL    R449849   9.104   4.183  23.110
13704CHOL    R549850   9.023   4.327  23.247
13704CHOL    C149851   9.000   4.237  23.469
13704CHOL    C249852   8.978   4.146  23.690
13705CHOL   ROH49853  15.875  -2.544   8.060
13705CHOL    R149854  15.942  -2.688   8.037
13705CHOL    R249855  16.170  -2.708   7.991
13705CHOL    R349856  16.017  -2.849   8.010
13705CHOL    R449857  16.228  -2.833   7.971
13705CHOL    R549858  16.084  -2.993   7.987
13705CHOL    C149859  16.184  -3.208   7.952
13705CHOL    C249860  16.285  -3.423   7.917
13706CHOL   ROH49861  17.032  21.779  12.765
13706CHOL    R149862  17.115  21.911  12.799
13706CHOL    R249863  17.334  21.938  12.723
13706CHOL    R349864  17.209  22.061  12.836
13706CHOL    R449865  17.407  22.054  12.752
13706CHOL    R549866  17.292  22.193  12.870
13706CHOL    C149867  17.417  22.392  12.920
13706CHOL    C249868  17.542  22.590  12.971
13707CHOL   ROH49869   6.057  21.010  17.774
13707CHOL    R149870   6.013  21.131  17.869
13707CHOL    R249871   6.133  21.331  17.872
13707CHOL    R349872   5.962  21.267  17.975
13707CHOL    R449873   6.094  21.437  17.955
13707CHOL    R549874   5.918  21.388  18.070
13707CHOL    C149875   5.851  21.569  18.212
13707CHOL    C249876   5.785  21.751  18.354
13708CHOL   ROH49877  23.585  11.544   7.330
13708CHOL    R149878  23.742  11.555   7.302
13708CHOL    R249879  23.874  11.363   7.281
13708CHOL    R349880  23.919  11.566   7.271
13708CHOL    R449881  24.011  11.372   7.256
13708CHOL    R549882  24.077  11.577   7.243
13708CHOL    C149883  24.312  11.593   7.201
13708CHOL    C249884  24.548  11.609   7.159
13709CHOL   ROH49885   2.443   4.501  20.414
13709CHOL    R149886   2.353   4.441  20.532
13709CHOL    R249887   2.448   4.310  20.700
13709CHOL    R349888   2.253   4.373  20.665
13709CHOL    R449889   2.370   4.257  20.803
13709CHOL    R549890   2.163   4.313  20.783
13709CHOL    C149891   2.029   4.223  20.960
13709CHOL    C249892   1.894   4.133  21.137
13710CHOL   ROH49893   8.891  22.022  17.188
13710CHOL    R149894   8.878  22.159  17.270
13710CHOL    R249895   9.052  22.314  17.272
13710CHOL    R349896   8.863  22.313  17.362
13710CHOL    R449897   9.041  22.434  17.344
13710CHOL    R549898   8.851  22.450  17.444
13710CHOL    C149899   8.831  22.655  17.567
13710CHOL    C249900   8.812  22.860  17.690
13711CHOL   ROH49901  10.560   1.184  -0.996
13711CHOL    R149902  10.571   1.086  -1.122
13711CHOL    R249903  10.776   0.994  -1.184
13711CHOL    R349904  10.584   0.975  -1.263
13711CHOL    R449905  10.786   0.908  -1.294
13711CHOL    R549906  10.596   0.877  -1.389
13711CHOL    C149907  10.613   0.730  -1.578
13711CHOL    C249908  10.630   0.582  -1.766
13712CHOL   ROH49909  22.515   9.229   3.886
13712CHOL    R149910  22.658   9.221   3.815
13712CHOL    R249911  22.779   9.414   3.767
13712CHOL    R349912  22.820   9.212   3.736
13712CHOL    R449913  22.905   9.407   3.705
13712CHOL    R549914  22.963   9.204   3.665
13712CHOL    C149915  23.178   9.192   3.559
13712CHOL    C249916  23.393   9.180   3.453
13713CHOL   ROH49917  21.756  12.085   2.794
13713CHOL    R149918  21.891  12.106   2.710
13713CHOL    R249919  21.927  12.303   2.591
13713CHOL    R349920  22.042  12.130   2.616
13713CHOL    R449921  22.045  12.322   2.517
13713CHOL    R549922  22.176  12.151   2.532
13713CHOL    C149923  22.378  12.183   2.406
13713CHOL    C249924  22.580  12.215   2.280
13714CHOL   ROH49925   6.011   5.343  -2.823
13714CHOL    R149926   5.969   5.292  -2.969
13714CHOL    R249927   5.996   5.069  -3.030
13714CHOL    R349928   5.923   5.235  -3.133
13714CHOL    R449929   5.959   5.024  -3.158
13714CHOL    R549930   5.881   5.184  -3.279
13714CHOL    C149931   5.819   5.108  -3.498
13714CHOL    C249932   5.756   5.031  -3.717
13715CHOL   ROH49933  19.124  15.944   1.147
13715CHOL    R149934  19.228  16.013   1.047
13715CHOL    R249935  19.155  16.163   0.883
13715CHOL    R349936  19.344  16.091   0.933
13715CHOL    R449937  19.246  16.223   0.795
13715CHOL    R549938  19.448  16.159   0.833
13715CHOL    C149939  19.604  16.263   0.682
13715CHOL    C249940  19.759  16.366   0.532
13716CHOL   ROH49941  16.320  10.560  -2.489
13716CHOL    R149942  16.395  10.565  -2.630
13716CHOL    R249943  16.303  10.681  -2.811
13716CHOL    R349944  16.479  10.571  -2.790
13716CHOL    R449945  16.368  10.685  -2.935
13716CHOL    R549946  16.554  10.576  -2.931
13716CHOL    C149947  16.666  10.583  -3.143
13716CHOL    C249948  16.778  10.590  -3.355
13717CHOL   ROH49949  20.734  15.664  16.932
13717CHOL    R149950  20.854  15.731  17.015
13717CHOL    R249951  20.914  15.953  16.979
13717CHOL    R349952  20.988  15.806  17.107
13717CHOL    R449953  21.019  16.012  17.052
13717CHOL    R549954  21.107  15.873  17.190
13717CHOL    C149955  21.287  15.973  17.314
13717CHOL    C249956  21.466  16.074  17.438
13718CHOL   ROH49957  -0.279   6.893   0.694
13718CHOL    R149958  -0.396   6.864   0.589
13718CHOL    R249959  -0.608   6.798   0.659
13718CHOL    R349960  -0.527   6.832   0.470
13718CHOL    R449961  -0.710   6.773   0.567
13718CHOL    R549962  -0.644   6.803   0.365
13718CHOL    C149963  -0.819   6.760   0.206
13718CHOL    C249964  -0.994   6.717   0.048
13719CHOL   ROH49965  23.010   8.533  14.776
13719CHOL    R149966  23.158   8.513  14.833
13719CHOL    R249967  23.282   8.323  14.781
13719CHOL    R349968  23.325   8.492  14.897
13719CHOL    R449969  23.412   8.306  14.831
13719CHOL    R549970  23.473   8.472  14.954
13719CHOL    C149971  23.696   8.443  15.039
13719CHOL    C249972  23.918   8.413  15.124
13720CHOL   ROH49973  -3.799   9.940   6.894
13720CHOL    R149974  -3.954   9.943   6.856
13720CHOL    R249975  -4.102   9.786   6.943
13720CHOL    R349976  -4.129   9.947   6.813
13720CHOL    R449977  -4.238   9.788   6.910
13720CHOL    R549978  -4.285   9.950   6.775
13720CHOL    C149979  -4.518   9.955   6.719
13720CHOL    C249980  -4.751   9.960   6.662
13721CHOL   ROH49981  12.871  -3.235   6.100
13721CHOL    R149982  12.914  -3.383   6.056
13721CHOL    R249983  12.969  -3.430   5.834
13721CHOL    R349984  12.962  -3.549   6.006
13721CHOL    R449985  13.007  -3.559   5.795
13721CHOL    R549986  13.004  -3.697   5.962
13721CHOL    C149987  13.069  -3.918   5.895
13721CHOL    C249988  13.133  -4.140   5.829
13722CHOL   ROH49989  19.252  -0.291  11.867
13722CHOL    R149990  19.359  -0.408  11.890
13722CHOL    R249991  19.442  -0.531  11.709
13722CHOL    R349992  19.478  -0.540  11.915
13722CHOL    R449993  19.535  -0.633  11.729
13722CHOL    R549994  19.585  -0.658  11.937
13722CHOL    C149995  19.745  -0.833  11.971
13722CHOL    C249996  19.905  -1.009  12.005
13723CHOL   ROH49997   0.014  19.505   6.798
13723CHOL    R149998  -0.089  19.621   6.761
13723CHOL    R249999  -0.023  19.805   6.633
13723CHOL    R350000  -0.206  19.752   6.719
13723CHOL    R450001  -0.113  19.906   6.600
13723CHOL    R550002  -0.309  19.869   6.682
13723CHOL    C150003  -0.464  20.043   6.626
13723CHOL    C250004  -0.619  20.217   6.571
13724CHOL   ROH50005  17.746  -0.557  14.817
13724CHOL    R150006  17.837  -0.677  14.870
13724CHOL    R250007  18.068  -0.676  14.838
13724CHOL    R350008  17.940  -0.813  14.930
13724CHOL    R450009  18.148  -0.781  14.885
13724CHOL    R550010  18.031  -0.933  14.983
13724CHOL    C150011  18.168  -1.113  15.062
13724CHOL    C250012  18.305  -1.294  15.141
13725CHOL   ROH50013  11.461  19.202  -0.519
13725CHOL    R150014  11.474  19.306  -0.640
13725CHOL    R250015  11.643  19.467  -0.642
13725CHOL    R350016  11.489  19.423  -0.776
13725CHOL    R450017  11.654  19.558  -0.748
13725CHOL    R550018  11.502  19.528  -0.897
13725CHOL    C150019  11.522  19.684  -1.078
13725CHOL    C250020  11.541  19.840  -1.259
13726CHOL   ROH50021   2.079  21.433  12.544
13726CHOL    R150022   1.995  21.565  12.578
13726CHOL    R250023   2.098  21.775  12.581
13726CHOL    R350024   1.902  21.714  12.617
13726CHOL    R450025   2.025  21.890  12.611
13726CHOL    R550026   1.818  21.846  12.651
13726CHOL    C150027   1.693  22.044  12.702
13726CHOL    C250028   1.567  22.242  12.754
13727CHOL   ROH50029  23.825   9.922  10.296
13727CHOL    R150030  23.985   9.921  10.300
13727CHOL    R250031  24.110  10.040  10.143
13727CHOL    R350032  24.165   9.920  10.304
13727CHOL    R450033  24.250  10.039  10.146
13727CHOL    R550034  24.325   9.919  10.308
13727CHOL    C150035  24.565   9.918  10.314
13727CHOL    C250036  24.805   9.916  10.320
13728CHOL   ROH50037  10.064   7.641  23.801
13728CHOL    R150038  10.063   7.612  23.958
13728CHOL    R250039  10.251   7.656  24.089
13728CHOL    R350040  10.063   7.580  24.136
13728CHOL    R450041  10.251   7.631  24.227
13728CHOL    R550042  10.062   7.551  24.293
13728CHOL    C150043  10.061   7.508  24.529
13728CHOL    C250044  10.060   7.465  24.765
13729CHOL   ROH50045  11.961   6.149  23.301
13729CHOL    R150046  11.986   6.109  23.454
13729CHOL    R250047  12.038   5.889  23.513
13729CHOL    R350048  12.013   6.063  23.626
13729CHOL    R450049  12.059   5.854  23.647
13729CHOL    R550050  12.038   6.023  23.778
13729CHOL    C150051  12.075   5.962  24.008
13729CHOL    C250052  12.112   5.901  24.237
13730CHOL   ROH50053  18.894  17.696  17.445
13730CHOL    R150054  18.997  17.786  17.529
13730CHOL    R250055  19.227  17.771  17.492
13730CHOL    R350056  19.112  17.887  17.623
13730CHOL    R450057  19.316  17.849  17.565
13730CHOL    R550058  19.215  17.976  17.707
13730CHOL    C150059  19.369  18.111  17.832
13730CHOL    C250060  19.523  18.246  17.958
13731CHOL   ROH50061  18.207  -1.336   9.676
13731CHOL    R150062  18.300  -1.466   9.675
13731CHOL    R250063  18.531  -1.449   9.649
13731CHOL    R350064  18.405  -1.613   9.675
13731CHOL    R450065  18.612  -1.562   9.649
13731CHOL    R550066  18.497  -1.743   9.674
13731CHOL    C150067  18.637  -1.938   9.673
13731CHOL    C250068  18.776  -2.134   9.672
13732CHOL   ROH50069  22.865   5.739   6.709
13732CHOL    R150070  23.013   5.690   6.673
13732CHOL    R250071  23.055   5.562   6.483
13732CHOL    R350072  23.180   5.635   6.634
13732CHOL    R450073  23.185   5.519   6.452
13732CHOL    R550074  23.328   5.586   6.598
13732CHOL    C150075  23.550   5.513   6.545
13732CHOL    C250076  23.772   5.440   6.491
13733CHOL   ROH50077  15.088  22.908  11.415
13733CHOL    R150078  15.153  23.054  11.429
13733CHOL    R250079  15.382  23.080  11.462
13733CHOL    R350080  15.226  23.217  11.445
13733CHOL    R450081  15.439  23.207  11.474
13733CHOL    R550082  15.291  23.363  11.459
13733CHOL    C150083  15.388  23.581  11.479
13733CHOL    C250084  15.486  23.800  11.500
13734CHOL   ROH50085  -3.028  12.880  14.885
13734CHOL    R150086  -3.174  12.912  14.942
13734CHOL    R250087  -3.247  13.132  14.970
13734CHOL    R350088  -3.338  12.948  15.007
13734CHOL    R450089  -3.374  13.160  15.020
13734CHOL    R550090  -3.484  12.980  15.064
13734CHOL    C150091  -3.703  13.028  15.150
13734CHOL    C250092  -3.922  13.076  15.236
13735CHOL   ROH50093  19.657  20.113  10.346
13735CHOL    R150094  19.767  20.229  10.353
13735CHOL    R250095  19.974  20.205  10.249
13735CHOL    R350096  19.890  20.360  10.361
13735CHOL    R450097  20.070  20.307  10.255
13735CHOL    R550098  20.000  20.476  10.368
13735CHOL    C150099  20.164  20.651  10.379
13735CHOL    C250100  20.328  20.825  10.389
13736CHOL   ROH50101  10.689  -1.556   1.949
13736CHOL    R150102  10.697  -1.688   1.859
13736CHOL    R250103  10.735  -1.673   1.629
13736CHOL    R350104  10.707  -1.836   1.757
13736CHOL    R450105  10.742  -1.788   1.550
13736CHOL    R550106  10.715  -1.968   1.666
13736CHOL    C150107  10.727  -2.165   1.531
13736CHOL    C250108  10.740  -2.363   1.395
13737CHOL   ROH50109   0.847   6.732  20.136
13737CHOL    R150110   0.747   6.688  20.253
13737CHOL    R250111   0.823   6.654  20.470
13737CHOL    R350112   0.634   6.639  20.384
13737CHOL    R450113   0.736   6.615  20.572
13737CHOL    R550114   0.534   6.596  20.500
13737CHOL    C150115   0.383   6.530  20.675
13737CHOL    C250116   0.233   6.464  20.850
13738CHOL   ROH50117   7.872  -1.143  18.301
13738CHOL    R150118   7.851  -1.270  18.396
13738CHOL    R250119   8.024  -1.350  18.531
13738CHOL    R350120   7.826  -1.413  18.503
13738CHOL    R450121   8.005  -1.461  18.614
13738CHOL    R550122   7.805  -1.539  18.598
13738CHOL    C150123   7.773  -1.730  18.741
13738CHOL    C250124   7.741  -1.920  18.883
13739CHOL   ROH50125  -3.552  10.156   5.977
13739CHOL    R150126  -3.706  10.160   5.933
13739CHOL    R250127  -3.865  10.029   6.042
13739CHOL    R350128  -3.879  10.163   5.883
13739CHOL    R450129  -4.000  10.032   6.004
13739CHOL    R550130  -4.032  10.167   5.839
13739CHOL    C150131  -4.263  10.172   5.773
13739CHOL    C250132  -4.494  10.178   5.707
13740CHOL   ROH50133  13.473  20.827  18.064
13740CHOL    R150134  13.511  20.951  18.157
13740CHOL    R250135  13.582  20.920  18.377
13740CHOL    R350136  13.555  21.092  18.262
13740CHOL    R450137  13.615  21.029  18.458
13740CHOL    R550138  13.593  21.216  18.354
13740CHOL    C150139  13.651  21.403  18.494
13740CHOL    C250140  13.708  21.589  18.633
13741CHOL   ROH50141  21.539  17.497  12.058
13741CHOL    R150142  21.671  17.584  12.083
13741CHOL    R250143  21.768  17.707  11.910
13741CHOL    R350144  21.820  17.681  12.111
13741CHOL    R450145  21.884  17.783  11.932
13741CHOL    R550146  21.952  17.767  12.136
13741CHOL    C150147  22.151  17.897  12.173
13741CHOL    C250148  22.349  18.027  12.210
13742CHOL   ROH50149  14.926  -1.639  16.025
13742CHOL    R150150  14.982  -1.773  16.092
13742CHOL    R250151  15.203  -1.789  16.164
13742CHOL    R350152  15.044  -1.925  16.167
13742CHOL    R450153  15.252  -1.906  16.222
13742CHOL    R550154  15.100  -2.059  16.233
13742CHOL    C150155  15.184  -2.261  16.334
13742CHOL    C250156  15.267  -2.462  16.434
13743CHOL   ROH50157  11.154  22.146  16.891
13743CHOL    R150158  11.175  22.282  16.972
13743CHOL    R250159  11.329  22.442  16.899
13743CHOL    R350160  11.200  22.436  17.063
13743CHOL    R450161  11.347  22.562  16.970
13743CHOL    R550162  11.221  22.573  17.144
13743CHOL    C150163  11.253  22.777  17.265
13743CHOL    C250164  11.285  22.982  17.386
13744CHOL   ROH50165  17.109  -1.977  11.056
13744CHOL    R150166  17.191  -2.114  11.069
13744CHOL    R250167  17.321  -2.194  10.893
13744CHOL    R350168  17.283  -2.267  11.085
13744CHOL    R450169  17.393  -2.313  10.905
13744CHOL    R550170  17.365  -2.404  11.098
13744CHOL    C150171  17.489  -2.609  11.118
13744CHOL    C250172  17.612  -2.814  11.138
13745CHOL   ROH50173  20.862   2.666  14.810
13745CHOL    R150174  20.987   2.580  14.861
13745CHOL    R250175  21.186   2.575  14.740
13745CHOL    R350176  21.127   2.482  14.917
13745CHOL    R450177  21.295   2.499  14.784
13745CHOL    R550178  21.252   2.396  14.968
13745CHOL    C150179  21.439   2.266  15.044
13745CHOL    C250180  21.626   2.137  15.120
13746CHOL   ROH50181   4.118   2.796  -0.612
13746CHOL    R150182   4.049   2.711  -0.728
13746CHOL    R250183   3.843   2.606  -0.694
13746CHOL    R350184   3.971   2.614  -0.859
13746CHOL    R450185   3.783   2.531  -0.796
13746CHOL    R550186   3.902   2.529  -0.975
13746CHOL    C150187   3.798   2.401  -1.150
13746CHOL    C250188   3.695   2.273  -1.324
13747CHOL   ROH50189  -2.357  14.542  15.299
13747CHOL    R150190  -2.495  14.595  15.361
13747CHOL    R250191  -2.497  14.724  15.555
13747CHOL    R350192  -2.649  14.655  15.431
13747CHOL    R450193  -2.617  14.770  15.610
13747CHOL    R550194  -2.787  14.707  15.493
13747CHOL    C150195  -2.993  14.787  15.586
13747CHOL    C250196  -3.200  14.866  15.679
13748CHOL   ROH50197  -2.531  16.553   8.450
13748CHOL    R150198  -2.674  16.623   8.431
13748CHOL    R250199  -2.868  16.526   8.517
13748CHOL    R350200  -2.834  16.702   8.410
13748CHOL    R450201  -2.992  16.587   8.500
13748CHOL    R550202  -2.977  16.771   8.390
13748CHOL    C150203  -3.191  16.876   8.362
13748CHOL    C250204  -3.405  16.981   8.333
13749CHOL   ROH50205  20.242   5.181  18.019
13749CHOL    R150206  20.359   5.129  18.114
13749CHOL    R250207  20.470   4.929  18.069
13749CHOL    R350208  20.491   5.069  18.222
13749CHOL    R450209  20.573   4.883  18.153
13749CHOL    R550210  20.608   5.017  18.317
13749CHOL    C150211  20.784   4.938  18.460
13749CHOL    C250212  20.960   4.860  18.603
13750CHOL   ROH50213  10.265  17.293  21.970
13750CHOL    R150214  10.274  17.375  22.107
13750CHOL    R250215  10.433  17.544  22.136
13750CHOL    R350216  10.285  17.467  22.261
13750CHOL    R450217  10.441  17.615  22.256
13750CHOL    R550218  10.295  17.549  22.399
13750CHOL    C150219  10.309  17.672  22.604
13750CHOL    C250220  10.323  17.795  22.810
13751CHOL   ROH50221   2.985  19.293   1.953
13751CHOL    R150222   2.907  19.404   1.869
13751CHOL    R250223   2.989  19.622   1.852
13751CHOL    R350224   2.818  19.530   1.775
13751CHOL    R450225   2.921  19.719   1.779
13751CHOL    R550226   2.740  19.641   1.691
13751CHOL    C150227   2.622  19.808   1.565
13751CHOL    C250228   2.505  19.975   1.439
13752CHOL   ROH50229  20.024  14.663  18.395
13752CHOL    R150230  20.133  14.714  18.500
13752CHOL    R250231  20.356  14.649  18.483
13752CHOL    R350232  20.256  14.771  18.619
13752CHOL    R450233  20.452  14.694  18.575
13752CHOL    R550234  20.365  14.823  18.724
13752CHOL    C150235  20.529  14.899  18.882
13752CHOL    C250236  20.692  14.976  19.040
13753CHOL   ROH50237   9.551  -4.013   9.288
13753CHOL    R150238   9.545  -4.173   9.282
13753CHOL    R250239   9.675  -4.292   9.129
13753CHOL    R350240   9.538  -4.353   9.275
13753CHOL    R450241   9.669  -4.432   9.124
13753CHOL    R550242   9.532  -4.513   9.269
13753CHOL    C150243   9.524  -4.752   9.260
13753CHOL    C250244   9.515  -4.992   9.251
13754CHOL   ROH50245  15.449  22.743  11.406
13754CHOL    R150246  15.517  22.887  11.419
13754CHOL    R250247  15.731  22.912  11.510
13754CHOL    R350248  15.593  23.050  11.435
13754CHOL    R450249  15.790  23.038  11.522
13754CHOL    R550250  15.661  23.194  11.448
13754CHOL    C150251  15.763  23.410  11.468
13754CHOL    C250252  15.865  23.627  11.488
13755CHOL   ROH50253  13.338   6.043  -3.107
13755CHOL    R150254  13.382   5.999  -3.255
13755CHOL    R250255  13.354   6.142  -3.436
13755CHOL    R350256  13.430   5.948  -3.420
13755CHOL    R450257  13.392   6.103  -3.565
13755CHOL    R550258  13.474   5.904  -3.568
13755CHOL    C150259  13.539   5.837  -3.789
13755CHOL    C250260  13.605   5.771  -4.011
13756CHOL   ROH50261  -0.001   9.138  19.896
13756CHOL    R150262  -0.115   9.133  20.008
13756CHOL    R250263  -0.089   9.246  20.210
13756CHOL    R350264  -0.243   9.127  20.135
13756CHOL    R450265  -0.189   9.242  20.309
13756CHOL    R550266  -0.356   9.121  20.247
13756CHOL    C150267  -0.527   9.114  20.415
13756CHOL    C250268  -0.698   9.106  20.584
13757CHOL   ROH50269  17.995  20.483  14.235
13757CHOL    R150270  18.091  20.599  14.289
13757CHOL    R250271  18.099  20.807  14.184
13757CHOL    R350272  18.199  20.730  14.351
13757CHOL    R450273  18.183  20.909  14.232
13757CHOL    R550274  18.294  20.846  14.405
13757CHOL    C150275  18.438  21.020  14.487
13757CHOL    C250276  18.582  21.194  14.568
13758CHOL   ROH50277   1.231   1.305  16.872
13758CHOL    R150278   1.132   1.208  16.952
13758CHOL    R250279   1.205   1.093  17.142
13758CHOL    R350280   1.022   1.099  17.043
13758CHOL    R450281   1.119   1.008  17.212
13758CHOL    R550282   0.923   1.001  17.123
13758CHOL    C150283   0.775   0.856  17.243
13758CHOL    C250284   0.627   0.710  17.364
13759CHOL   ROH50285   8.713  -0.796   0.996
13759CHOL    R150286   8.699  -0.920   0.895
13759CHOL    R250287   8.845  -0.945   0.715
13759CHOL    R350288   8.683  -1.059   0.782
13759CHOL    R450289   8.832  -1.053   0.627
13759CHOL    R550290   8.669  -1.182   0.681
13759CHOL    C150291   8.648  -1.368   0.531
13759CHOL    C250292   8.627  -1.554   0.380
13760CHOL   ROH50293  12.063  23.848  10.597
13760CHOL    R150294  12.085  24.006  10.604
13760CHOL    R250295  12.283  24.103  10.529
13760CHOL    R350296  12.110  24.184  10.613
13760CHOL    R450297  12.303  24.242  10.535
13760CHOL    R550298  12.132  24.342  10.620
13760CHOL    C150299  12.165  24.580  10.631
13760CHOL    C250300  12.198  24.817  10.642
13761CHOL   ROH50301  15.583   2.241  -0.364
13761CHOL    R150302  15.648   2.150  -0.479
13761CHOL    R250303  15.631   2.211  -0.703
13761CHOL    R350304  15.721   2.048  -0.608
13761CHOL    R450305  15.688   2.131  -0.804
13761CHOL    R550306  15.786   1.958  -0.723
13761CHOL    C150307  15.883   1.821  -0.895
13761CHOL    C250308  15.981   1.685  -1.067
13762CHOL   ROH50309  19.480  11.671  -0.161
13762CHOL    R150310  19.593  11.689  -0.273
13762CHOL    R250311  19.661  11.508  -0.405
13762CHOL    R350312  19.719  11.709  -0.400
13762CHOL    R450313  19.759  11.524  -0.503
13762CHOL    R550314  19.832  11.727  -0.512
13762CHOL    C150315  20.001  11.753  -0.680
13762CHOL    C250316  20.170  11.780  -0.849
13763CHOL   ROH50317  23.717   8.203  10.869
13763CHOL    R150318  23.876   8.188  10.876
13763CHOL    R250319  24.013   8.273  10.707
13763CHOL    R350320  24.055   8.170  10.885
13763CHOL    R450321  24.152   8.259  10.714
13763CHOL    R550322  24.214   8.155  10.892
13763CHOL    C150323  24.453   8.132  10.903
13763CHOL    C250324  24.691   8.109  10.914
13764CHOL   ROH50325   6.336   3.081  21.681
13764CHOL    R150326   6.307   3.009  21.821
13764CHOL    R250327   6.408   2.805  21.873
13764CHOL    R350328   6.275   2.927  21.978
13764CHOL    R450329   6.383   2.742  21.996
13764CHOL    R550330   6.246   2.854  22.118
13764CHOL    C150331   6.203   2.746  22.327
13764CHOL    C250332   6.160   2.637  22.537
13765CHOL   ROH50333  23.801  10.680  10.607
13765CHOL    R150334  23.961  10.686  10.615
13765CHOL    R250335  24.078  10.868  10.529
13765CHOL    R350336  24.140  10.692  10.623
13765CHOL    R450337  24.218  10.873  10.536
13765CHOL    R550338  24.300  10.698  10.630
13765CHOL    C150339  24.540  10.707  10.642
13765CHOL    C250340  24.779  10.715  10.653
13766CHOL   ROH50341  12.717   1.690  20.861
13766CHOL    R150342  12.746   1.589  20.982
13766CHOL    R250343  12.861   1.389  20.946
13766CHOL    R350344  12.779   1.475  21.117
13766CHOL    R450345  12.887   1.301  21.051
13766CHOL    R550346  12.808   1.375  21.238
13766CHOL    C150347  12.852   1.223  21.419
13766CHOL    C250348  12.896   1.072  21.600
13767CHOL   ROH50349  14.578  -2.966  12.643
13767CHOL    R150350  14.632  -3.113  12.675
13767CHOL    R250351  14.835  -3.144  12.786
13767CHOL    R350352  14.694  -3.278  12.712
13767CHOL    R450353  14.883  -3.272  12.814
13767CHOL    R550354  14.748  -3.425  12.745
13767CHOL    C150355  14.830  -3.645  12.793
13767CHOL    C250356  14.911  -3.866  12.842
13768CHOL   ROH50357  21.076  16.423  15.549
13768CHOL    R150358  21.202  16.501  15.609
13768CHOL    R250359  21.319  16.657  15.481
13768CHOL    R350360  21.344  16.589  15.676
13768CHOL    R450361  21.429  16.726  15.533
13768CHOL    R550362  21.470  16.667  15.736
13768CHOL    C150363  21.660  16.783  15.826
13768CHOL    C250364  21.849  16.900  15.916
13769CHOL   ROH50365  -1.865   2.294  11.051
13769CHOL    R150366  -2.000   2.209  11.065
13769CHOL    R250367  -1.995   1.977  11.084
13769CHOL    R350368  -2.152   2.114  11.080
13769CHOL    R450369  -2.113   1.903  11.096
13769CHOL    R550370  -2.288   2.029  11.093
13769CHOL    C150371  -2.490   1.903  11.114
13769CHOL    C250372  -2.693   1.776  11.134
13770CHOL   ROH50373   7.071  23.320   6.263
13770CHOL    R150374   7.044  23.472   6.222
13770CHOL    R250375   7.194  23.588   6.085
13770CHOL    R350376   7.014  23.644   6.176
13770CHOL    R450377   7.170  23.721   6.049
13770CHOL    R550378   6.987  23.796   6.135
13770CHOL    C150379   6.947  24.024   6.073
13770CHOL    C250380   6.906  24.253   6.011
13771CHOL   ROH50381   8.912   5.941  -3.431
13771CHOL    R150382   8.904   5.895  -3.584
13771CHOL    R250383   9.095   5.896  -3.719
13771CHOL    R350384   8.896   5.844  -3.756
13771CHOL    R450385   9.088   5.856  -3.853
13771CHOL    R550386   8.888   5.799  -3.909
13771CHOL    C150387   8.877   5.730  -4.139
13771CHOL    C250388   8.866   5.662  -4.369
13772CHOL   ROH50389  -3.714   9.982  13.563
13772CHOL    R150390  -3.869   9.981  13.603
13772CHOL    R250391  -3.941   9.884  13.803
13772CHOL    R350392  -4.043   9.980  13.648
13772CHOL    R450393  -4.076   9.883  13.838
13772CHOL    R550394  -4.198   9.979  13.688
13772CHOL    C150395  -4.430   9.977  13.748
13772CHOL    C250396  -4.663   9.975  13.808
13773CHOL   ROH50397   7.885  -3.104  14.707
13773CHOL    R150398   7.862  -3.252  14.764
13773CHOL    R250399   7.921  -3.439  14.638
13773CHOL    R350400   7.837  -3.418  14.828
13773CHOL    R450401   7.902  -3.568  14.688
13773CHOL    R550402   7.814  -3.566  14.885
13773CHOL    C150403   7.780  -3.788  14.970
13773CHOL    C250404   7.746  -4.010  15.055
13774CHOL   ROH50405  -1.908   9.338   2.275
13774CHOL    R150406  -2.040   9.329   2.186
13774CHOL    R250407  -2.127   9.123   2.120
13774CHOL    R350408  -2.190   9.320   2.085
13774CHOL    R450409  -2.243   9.116   2.042
13774CHOL    R550410  -2.322   9.311   1.996
13774CHOL    C150411  -2.521   9.298   1.862
13774CHOL    C250412  -2.719   9.285   1.728
13775CHOL   ROH50413  13.123  -1.107   1.960
13775CHOL    R150414  13.162  -1.231   1.867
13775CHOL    R250415  13.341  -1.371   1.921
13775CHOL    R350416  13.207  -1.370   1.761
13775CHOL    R450417  13.375  -1.479   1.840
13775CHOL    R550418  13.246  -1.494   1.668
13775CHOL    C150419  13.305  -1.680   1.528
13775CHOL    C250420  13.364  -1.866   1.388
13776CHOL   ROH50421   0.815  14.398   0.097
13776CHOL    R150422   0.716  14.446  -0.019
13776CHOL    R250423   0.493  14.376  -0.023
13776CHOL    R350424   0.604  14.500  -0.149
13776CHOL    R450425   0.407  14.418  -0.124
13776CHOL    R550426   0.505  14.549  -0.265
13776CHOL    C150427   0.356  14.621  -0.439
13776CHOL    C250428   0.207  14.693  -0.613
13777CHOL   ROH50429  12.770   0.135   0.369
13777CHOL    R150430  12.806   0.023   0.261
13777CHOL    R250431  12.949   0.070   0.082
13777CHOL    R350432  12.846  -0.103   0.139
13777CHOL    R450433  12.980  -0.028  -0.012
13777CHOL    R550434  12.882  -0.215   0.030
13777CHOL    C150435  12.936  -0.384  -0.132
13777CHOL    C250436  12.990  -0.552  -0.294
13778CHOL   ROH50437  12.506  20.061   0.425
13778CHOL    R150438  12.529  20.174   0.314
13778CHOL    R250439  12.614  20.120   0.104
13778CHOL    R350440  12.554  20.301   0.189
13778CHOL    R450441  12.633  20.219   0.007
13778CHOL    R550442  12.577  20.414   0.078
13778CHOL    C150443  12.611  20.583  -0.088
13778CHOL    C250444  12.645  20.753  -0.254
13779CHOL   ROH50445   2.385  16.313  19.928
13779CHOL    R150446   2.298  16.382  20.043
13779CHOL    R250447   2.399  16.508  20.211
13779CHOL    R350448   2.199  16.460  20.172
13779CHOL    R450449   2.322  16.569  20.311
13779CHOL    R550450   2.112  16.529  20.287
13779CHOL    C150451   1.981  16.632  20.459
13779CHOL    C250452   1.850  16.735  20.632
13780CHOL   ROH50453  16.789  18.939   1.682
13780CHOL    R150454  16.872  19.046   1.596
13780CHOL    R250455  16.940  18.997   1.378
13780CHOL    R350456  16.965  19.165   1.499
13780CHOL    R450457  17.013  19.090   1.303
13780CHOL    R550458  17.047  19.272   1.413
13780CHOL    C150459  17.172  19.432   1.284
13780CHOL    C250460  17.296  19.592   1.155
13781CHOL   ROH50461   2.215  14.976  20.514
13781CHOL    R150462   2.126  15.032  20.634
13781CHOL    R250463   2.222  15.087  20.839
13781CHOL    R350464   2.026  15.096  20.770
13781CHOL    R450465   2.144  15.137  20.945
13781CHOL    R550466   1.936  15.152  20.890
13781CHOL    C150467   1.803  15.237  21.070
13781CHOL    C250468   1.669  15.322  21.251
13782CHOL   ROH50469  -1.298  18.148   7.055
13782CHOL    R150470  -1.424  18.240   7.019
13782CHOL    R250471  -1.624  18.220   7.138
13782CHOL    R350472  -1.566  18.342   6.979
13782CHOL    R450473  -1.734  18.300   7.107
13782CHOL    R550474  -1.693  18.434   6.943
13782CHOL    C150475  -1.882  18.571   6.889
13782CHOL    C250476  -2.071  18.709   6.835
13783CHOL   ROH50477  17.749  -1.647   9.903
13783CHOL    R150478  17.837  -1.781   9.905
13783CHOL    R250479  18.060  -1.779   9.838
13783CHOL    R350480  17.936  -1.931   9.907
13783CHOL    R450481  18.137  -1.896   9.840
13783CHOL    R550482  18.024  -2.065   9.910
13783CHOL    C150483  18.155  -2.266   9.913
13783CHOL    C250484  18.287  -2.466   9.916
13784CHOL   ROH50485  19.742   5.116   1.266
13784CHOL    R150486  19.851   5.055   1.166
13784CHOL    R250487  19.788   4.922   0.985
13784CHOL    R350488  19.974   4.987   1.054
13784CHOL    R450489  19.883   4.869   0.898
13784CHOL    R550490  20.083   4.927   0.954
13784CHOL    C150491  20.247   4.836   0.804
13784CHOL    C250492  20.411   4.745   0.654
13785CHOL   ROH50493   5.529  -3.177  12.270
13785CHOL    R150494   5.479  -3.327  12.295
13785CHOL    R250495   5.517  -3.495  12.138
13785CHOL    R350496   5.423  -3.496  12.324
13785CHOL    R450497   5.474  -3.626  12.160
13785CHOL    R550498   5.373  -3.646  12.349
13785CHOL    C150499   5.297  -3.870  12.387
13785CHOL    C250500   5.222  -4.095  12.425
13786CHOL   ROH50501  15.768  -2.579  12.011
13786CHOL    R150502  15.837  -2.721  12.035
13786CHOL    R250503  16.055  -2.737  12.117
13786CHOL    R350504  15.915  -2.882  12.061
13786CHOL    R450505  16.115  -2.862  12.138
13786CHOL    R550506  15.984  -3.024  12.085
13786CHOL    C150507  16.088  -3.238  12.121
13786CHOL    C250508  16.191  -3.451  12.156
13787CHOL   ROH50509  15.930   9.162  -2.657
13787CHOL    R150510  15.999   9.149  -2.801
13787CHOL    R250511  15.880   9.195  -2.996
13787CHOL    R350512  16.077   9.134  -2.962
13787CHOL    R450513  15.941   9.183  -3.122
13787CHOL    R550514  16.147   9.121  -3.106
13787CHOL    C150515  16.250   9.101  -3.322
13787CHOL    C250516  16.354   9.082  -3.537
13788CHOL   ROH50517   5.710  -0.384  18.479
13788CHOL    R150518   5.663  -0.502  18.576
13788CHOL    R250519   5.712  -0.725  18.526
13788CHOL    R350520   5.610  -0.635  18.685
13788CHOL    R450521   5.671  -0.828  18.611
13788CHOL    R550522   5.564  -0.753  18.782
13788CHOL    C150523   5.493  -0.931  18.927
13788CHOL    C250524   5.423  -1.108  19.073
13789CHOL   ROH50525  -1.222  18.316   7.232
13789CHOL    R150526  -1.347  18.411   7.200
13789CHOL    R250527  -1.534  18.414   7.338
13789CHOL    R350528  -1.487  18.517   7.163
13789CHOL    R450529  -1.643  18.497   7.310
13789CHOL    R550530  -1.612  18.612   7.130
13789CHOL    C150531  -1.799  18.754   7.082
13789CHOL    C250532  -1.986  18.896   7.033
13790CHOL   ROH50533  19.464   1.341  15.494
13790CHOL    R150534  19.572   1.240  15.555
13790CHOL    R250535  19.727   1.312  15.714
13790CHOL    R350536  19.694   1.127  15.624
13790CHOL    R450537  19.822   1.224  15.767
13790CHOL    R550538  19.802   1.026  15.685
13790CHOL    C150539  19.964   0.875  15.777
13790CHOL    C250540  20.126   0.724  15.869
13791CHOL   ROH50541  13.312  10.559  -3.710
13791CHOL    R150542  13.355  10.568  -3.864
13791CHOL    R250543  13.254  10.432  -4.024
13791CHOL    R350544  13.403  10.577  -4.037
13791CHOL    R450545  13.291  10.439  -4.159
13791CHOL    R550546  13.445  10.586  -4.191
13791CHOL    C150547  13.510  10.599  -4.422
13791CHOL    C250548  13.574  10.612  -4.653
13792CHOL   ROH50549  22.742   8.657   4.467
13792CHOL    R150550  22.888   8.644   4.404
13792CHOL    R250551  23.003   8.831   4.326
13792CHOL    R350552  23.053   8.628   4.333
13792CHOL    R450553  23.131   8.819   4.271
13792CHOL    R550554  23.199   8.615   4.270
13792CHOL    C150555  23.419   8.595   4.175
13792CHOL    C250556  23.639   8.575   4.081
13793CHOL   ROH50557  -0.361  17.623  15.835
13793CHOL    R150558  -0.477  17.710  15.903
13793CHOL    R250559  -0.438  17.928  15.974
13793CHOL    R350560  -0.608  17.807  15.978
13793CHOL    R450561  -0.540  18.004  16.033
13793CHOL    R550562  -0.724  17.893  16.046
13793CHOL    C150563  -0.899  18.023  16.147
13793CHOL    C250564  -1.073  18.153  16.249
13794CHOL   ROH50565   0.113   8.814  -0.052
13794CHOL    R150566  -0.000   8.804  -0.165
13794CHOL    R250567  -0.148   8.980  -0.202
13794CHOL    R350568  -0.127   8.793  -0.292
13794CHOL    R450569  -0.247   8.971  -0.301
13794CHOL    R550570  -0.240   8.783  -0.404
13794CHOL    C150571  -0.409   8.767  -0.574
13794CHOL    C250572  -0.579   8.752  -0.743
13795CHOL   ROH50573   7.141   7.406  -3.596
13795CHOL    R150574   7.114   7.377  -3.751
13795CHOL    R250575   6.984   7.195  -3.818
13795CHOL    R350576   7.084   7.344  -3.925
13795CHOL    R450577   6.961   7.169  -3.954
13795CHOL    R550578   7.057   7.314  -4.080
13795CHOL    C150579   7.017   7.271  -4.313
13795CHOL    C250580   6.976   7.227  -4.546
13796CHOL   ROH50581  22.370  14.553  14.419
13796CHOL    R150582  22.515  14.599  14.469
13796CHOL    R250583  22.682  14.656  14.317
13796CHOL    R350584  22.678  14.650  14.526
13796CHOL    R450585  22.809  14.697  14.361
13796CHOL    R550586  22.823  14.696  14.576
13796CHOL    C150587  23.040  14.765  14.651
13796CHOL    C250588  23.258  14.833  14.727
13797CHOL   ROH50589   2.661  19.284  17.697
13797CHOL    R150590   2.579  19.389  17.786
13797CHOL    R250591   2.647  19.612  17.801
13797CHOL    R350592   2.487  19.507  17.886
13797CHOL    R450593   2.575  19.704  17.879
13797CHOL    R550594   2.405  19.612  17.975
13797CHOL    C150595   2.283  19.769  18.108
13797CHOL    C250596   2.160  19.927  18.241
13798CHOL   ROH50597  -1.280  12.055   1.523
13798CHOL    R150598  -1.404  12.071   1.423
13798CHOL    R250599  -1.549  11.893   1.384
13798CHOL    R350600  -1.544  12.088   1.311
13798CHOL    R450601  -1.658  11.906   1.297
13798CHOL    R550602  -1.668  12.104   1.211
13798CHOL    C150603  -1.854  12.128   1.062
13798CHOL    C250604  -2.040  12.151   0.912
13799CHOL   ROH50605   8.302  22.463   3.592
13799CHOL    R150606   8.283  22.601   3.514
13799CHOL    R250607   8.456  22.693   3.388
13799CHOL    R350608   8.261  22.756   3.425
13799CHOL    R450609   8.439  22.814   3.319
13799CHOL    R550610   8.241  22.895   3.347
13799CHOL    C150611   8.212  23.102   3.229
13799CHOL    C250612   8.183  23.309   3.112
13800CHOL   ROH50613   3.846  22.666  10.746
13800CHOL    R150614   3.776  22.810  10.754
13800CHOL    R250615   3.847  22.986  10.618
13800CHOL    R350616   3.696  22.971  10.762
13800CHOL    R450617   3.786  23.111  10.625
13800CHOL    R550618   3.626  23.114  10.769
13800CHOL    C150619   3.520  23.330  10.781
13800CHOL    C250620   3.415  23.545  10.792
13801CHOL   ROH50621  -3.989   7.607   8.810
13801CHOL    R150622  -4.145   7.575   8.800
13801CHOL    R250623  -4.288   7.617   8.979
13801CHOL    R350624  -4.322   7.540   8.788
13801CHOL    R450625  -4.425   7.589   8.970
13801CHOL    R550626  -4.478   7.508   8.777
13801CHOL    C150627  -4.713   7.460   8.762
13801CHOL    C250628  -4.947   7.413   8.746
13802CHOL   ROH50629  -0.855   6.246   1.592
13802CHOL    R150630  -0.976   6.207   1.495
13802CHOL    R250631  -1.170   6.109   1.578
13802CHOL    R350632  -1.112   6.164   1.385
13802CHOL    R450633  -1.276   6.075   1.492
13802CHOL    R550634  -1.233   6.126   1.287
13802CHOL    C150635  -1.414   6.068   1.141
13802CHOL    C250636  -1.596   6.010   0.995
13803CHOL   ROH50637  20.839   6.863   1.676
13803CHOL    R150638  20.963   6.828   1.582
13803CHOL    R250639  20.957   6.873   1.353
13803CHOL    R350640  21.104   6.789   1.476
13803CHOL    R450641  21.066   6.843   1.271
13803CHOL    R550642  21.228   6.754   1.381
13803CHOL    C150643  21.415   6.702   1.240
13803CHOL    C250644  21.601   6.649   1.099
13804CHOL   ROH50645  16.384  13.319  -2.100
13804CHOL    R150646  16.461  13.356  -2.236
13804CHOL    R250647  16.353  13.472  -2.407
13804CHOL    R350648  16.547  13.398  -2.388
13804CHOL    R450649  16.420  13.504  -2.525
13804CHOL    R550650  16.623  13.435  -2.524
13804CHOL    C150651  16.738  13.491  -2.727
13804CHOL    C250652  16.853  13.546  -2.930
13805CHOL   ROH50653  -3.971  12.671   9.940
13805CHOL    R150654  -4.127  12.704   9.937
13805CHOL    R250655  -4.284  12.547  10.009
13805CHOL    R350656  -4.304  12.741   9.933
13805CHOL    R450657  -4.421  12.576  10.006
13805CHOL    R550658  -4.460  12.774   9.930
13805CHOL    C150659  -4.695  12.823   9.925
13805CHOL    C250660  -4.929  12.872   9.920
13806CHOL   ROH50661   9.455  -3.153  14.985
13806CHOL    R150662   9.448  -3.301  15.045
13806CHOL    R250663   9.518  -3.346  15.263
13806CHOL    R350664   9.440  -3.468  15.112
13806CHOL    R450665   9.512  -3.476  15.315
13806CHOL    R550666   9.433  -3.617  15.172
13806CHOL    C150667   9.423  -3.839  15.261
13806CHOL    C250668   9.413  -4.061  15.351
13807CHOL   ROH50669   5.130   4.219  21.895
13807CHOL    R150670   5.080   4.156  22.033
13807CHOL    R250671   5.087   3.926  22.070
13807CHOL    R350672   5.023   4.086  22.189
13807CHOL    R450673   5.043   3.871  22.191
13807CHOL    R550674   4.973   4.023  22.327
13807CHOL    C150675   4.897   3.929  22.534
13807CHOL    C250676   4.821   3.835  22.742
13808CHOL   ROH50677  17.148  10.502  -2.028
13808CHOL    R150678  17.229  10.508  -2.166
13808CHOL    R250679  17.197  10.682  -2.317
13808CHOL    R350680  17.321  10.514  -2.320
13808CHOL    R450681  17.268  10.687  -2.438
13808CHOL    R550682  17.402  10.520  -2.458
13808CHOL    C150683  17.525  10.529  -2.664
13808CHOL    C250684  17.647  10.537  -2.871
13809CHOL   ROH50685  19.823  12.991  19.259
13809CHOL    R150686  19.931  13.029  19.371
13809CHOL    R250687  20.031  12.864  19.502
13809CHOL    R350688  20.052  13.072  19.497
13809CHOL    R450689  20.125  12.897  19.600
13809CHOL    R550690  20.160  13.110  19.609
13809CHOL    C150691  20.321  13.166  19.778
13809CHOL    C250692  20.483  13.223  19.946
13810CHOL   ROH50693   6.916  -1.468  17.555
13810CHOL    R150694   6.884  -1.599  17.641
13810CHOL    R250695   6.973  -1.626  17.855
13810CHOL    R350696   6.848  -1.746  17.739
13810CHOL    R450697   6.945  -1.740  17.931
13810CHOL    R550698   6.816  -1.876  17.825
13810CHOL    C150699   6.767  -2.073  17.955
13810CHOL    C250700   6.719  -2.269  18.084
13811CHOL   ROH50701  -1.917  16.071   5.440
13811CHOL    R150702  -2.053  16.136   5.387
13811CHOL    R250703  -2.105  16.359   5.430
13811CHOL    R350704  -2.207  16.208   5.327
13811CHOL    R450705  -2.224  16.416   5.383
13811CHOL    R550706  -2.343  16.273   5.273
13811CHOL    C150707  -2.547  16.370   5.194
13811CHOL    C250708  -2.752  16.467   5.114
13812CHOL   ROH50709  12.738  19.990   0.405
13812CHOL    R150710  12.765  20.102   0.294
13812CHOL    R250711  12.860  20.048   0.089
13812CHOL    R350712  12.795  20.229   0.170
13812CHOL    R450713  12.884  20.146  -0.008
13812CHOL    R550714  12.822  20.341   0.059
13812CHOL    C150715  12.862  20.509  -0.107
13812CHOL    C250716  12.903  20.678  -0.273
13813CHOL   ROH50717  12.450  -3.309   5.980
13813CHOL    R150718  12.486  -3.458   5.934
13813CHOL    R250719  12.513  -3.511   5.709
13813CHOL    R350720  12.526  -3.626   5.883
13813CHOL    R450721  12.544  -3.642   5.669
13813CHOL    R550722  12.562  -3.775   5.837
13813CHOL    C150723  12.615  -3.999   5.768
13813CHOL    C250724  12.669  -4.222   5.700
13814CHOL   ROH50725  11.122  19.598  20.091
13814CHOL    R150726  11.141  19.708  20.205
13814CHOL    R250727  11.351  19.751  20.297
13814CHOL    R350728  11.162  19.833  20.334
13814CHOL    R450729  11.368  19.848  20.397
13814CHOL    R550730  11.181  19.943  20.448
13814CHOL    C150731  11.210  20.109  20.619
13814CHOL    C250732  11.239  20.274  20.791
13815CHOL   ROH50733  17.600  12.982  -1.414
13815CHOL    R150734  17.689  13.017  -1.543
13815CHOL    R250735  17.589  13.059  -1.749
13815CHOL    R350736  17.788  13.056  -1.687
13815CHOL    R450737  17.666  13.090  -1.862
13815CHOL    R550738  17.877  13.091  -1.816
13815CHOL    C150739  18.010  13.143  -2.009
13815CHOL    C250740  18.143  13.196  -2.202
13816CHOL   ROH50741   8.275  23.076   4.929
13816CHOL    R150742   8.257  23.225   4.873
13816CHOL    R250743   8.380  23.300   4.689
13816CHOL    R350744   8.237  23.392   4.810
13816CHOL    R450745   8.364  23.430   4.641
13816CHOL    R550746   8.218  23.541   4.755
13816CHOL    C150747   8.191  23.764   4.671
13816CHOL    C250748   8.164  23.987   4.587
13817CHOL   ROH50749   7.132   5.620  22.913
13817CHOL    R150750   7.103   5.567  23.061
13817CHOL    R250751   7.269   5.570  23.225
13817CHOL    R350752   7.070   5.508  23.228
13817CHOL    R450753   7.244   5.524  23.354
13817CHOL    R550754   7.040   5.455  23.376
13817CHOL    C150755   6.997   5.376  23.598
13817CHOL    C250756   6.953   5.297  23.820
13818CHOL   ROH50757  -3.099   5.602  12.971
13818CHOL    R150758  -3.247   5.552  13.003
13818CHOL    R250759  -3.343   5.587  13.213
13818CHOL    R350760  -3.415   5.496  13.039
13818CHOL    R450761  -3.473   5.543  13.241
13818CHOL    R550762  -3.563   5.446  13.072
13818CHOL    C150763  -3.786   5.370  13.120
13818CHOL    C250764  -4.008   5.295  13.168
13819CHOL   ROH50765   3.575  -0.595  16.740
13819CHOL    R150766   3.503  -0.716  16.817
13819CHOL    R250767   3.526  -0.741  17.048
13819CHOL    R350768   3.423  -0.851  16.904
13819CHOL    R450769   3.463  -0.846  17.115
13819CHOL    R550770   3.352  -0.972  16.981
13819CHOL    C150771   3.244  -1.153  17.096
13819CHOL    C250772   3.137  -1.334  17.211
13820CHOL   ROH50773  22.958  10.429  15.080
13820CHOL    R150774  23.107  10.439  15.137
13820CHOL    R250775  23.266  10.276  15.086
13820CHOL    R350776  23.275  10.450  15.201
13820CHOL    R450777  23.397  10.285  15.135
13820CHOL    R550778  23.425  10.460  15.257
13820CHOL    C150779  23.648  10.476  15.343
13820CHOL    C250780  23.872  10.491  15.428
13821CHOL   ROH50781   2.435  13.892  21.122
13821CHOL    R150782   2.347  13.937  21.248
13821CHOL    R250783   2.445  13.974  21.456
13821CHOL    R350784   2.248  13.988  21.389
13821CHOL    R450785   2.368  14.014  21.566
13821CHOL    R550786   2.160  14.033  21.515
13821CHOL    C150787   2.028  14.101  21.704
13821CHOL    C250788   1.896  14.169  21.892
13822CHOL   ROH50789  20.654  16.896  15.755
13822CHOL    R150790  20.773  16.984  15.816
13822CHOL    R250791  20.950  17.056  15.683
13822CHOL    R350792  20.906  17.083  15.886
13822CHOL    R450793  21.054  17.133  15.737
13822CHOL    R550794  21.025  17.171  15.947
13822CHOL    C150795  21.203  17.302  16.039
13822CHOL    C250796  21.381  17.434  16.131
13823CHOL   ROH50797  13.885  14.270  22.690
13823CHOL    R150798  13.923  14.324  22.836
13823CHOL    R250799  14.120  14.257  22.941
13823CHOL    R350800  13.966  14.385  22.999
13823CHOL    R450801  14.153  14.304  23.068
13823CHOL    R550802  14.004  14.440  23.145
13823CHOL    C150803  14.061  14.521  23.363
13823CHOL    C250804  14.118  14.602  23.582
13824CHOL   ROH50805  10.464  17.860  21.587
13824CHOL    R150806  10.473  17.952  21.718
13824CHOL    R250807  10.635  18.119  21.737
13824CHOL    R350808  10.482  18.055  21.865
13824CHOL    R450809  10.642  18.199  21.851
13824CHOL    R550810  10.491  18.147  21.996
13824CHOL    C150811  10.504  18.285  22.192
13824CHOL    C250812  10.517  18.423  22.388
13825CHOL   ROH50813  17.502  19.900  16.108
13825CHOL    R150814  17.592  20.014  16.174
13825CHOL    R250815  17.751  19.963  16.337
13825CHOL    R350816  17.693  20.143  16.249
13825CHOL    R450817  17.829  20.063  16.395
13825CHOL    R550818  17.784  20.257  16.315
13825CHOL    C150819  17.919  20.429  16.415
13825CHOL    C250820  18.054  20.601  16.515
13826CHOL   ROH50821   4.732  16.207  21.500
13826CHOL    R150822   4.668  16.279  21.628
13826CHOL    R250823   4.711  16.202  21.843
13826CHOL    R350824   4.597  16.361  21.771
13826CHOL    R450825   4.655  16.265  21.955
13826CHOL    R550826   4.533  16.433  21.899
13826CHOL    C150827   4.438  16.542  22.091
13826CHOL    C250828   4.343  16.651  22.282
13827CHOL   ROH50829  19.769  20.025   9.861
13827CHOL    R150830  19.880  20.140   9.863
13827CHOL    R250831  20.062  20.134   9.716
13827CHOL    R350832  20.005  20.270   9.865
13827CHOL    R450833  20.159  20.235   9.718
13827CHOL    R550834  20.116  20.385   9.867
13827CHOL    C150835  20.283  20.558   9.869
13827CHOL    C250836  20.449  20.731   9.872
13828CHOL   ROH50837  -1.946   3.540  13.910
13828CHOL    R150838  -2.081   3.467  13.954
13828CHOL    R250839  -2.184   3.517  14.158
13828CHOL    R350840  -2.233   3.384  14.005
13828CHOL    R450841  -2.302   3.453  14.197
13828CHOL    R550842  -2.368   3.311  14.049
13828CHOL    C150843  -2.571   3.201  14.116
13828CHOL    C250844  -2.773   3.091  14.182
13829CHOL   ROH50845  -2.854  13.872   5.622
13829CHOL    R150846  -2.999  13.917   5.573
13829CHOL    R250847  -3.139  14.043   5.711
13829CHOL    R350848  -3.163  13.968   5.518
13829CHOL    R450849  -3.266  14.082   5.668
13829CHOL    R550850  -3.309  14.013   5.469
13829CHOL    C150851  -3.527  14.081   5.396
13829CHOL    C250852  -3.745  14.148   5.322
13830CHOL   ROH50853   8.398  11.550  -3.962
13830CHOL    R150854   8.382  11.565  -4.120
13830CHOL    R250855   8.221  11.707  -4.212
13830CHOL    R350856   8.364  11.583  -4.299
13830CHOL    R450857   8.207  11.721  -4.350
13830CHOL    R550858   8.348  11.598  -4.457
13830CHOL    C150859   8.324  11.621  -4.695
13830CHOL    C250860   8.300  11.644  -4.932
13831CHOL   ROH50861   6.127   3.361  -1.962
13831CHOL    R150862   6.081   3.285  -2.095
13831CHOL    R250863   6.160   3.071  -2.144
13831CHOL    R350864   6.030   3.199  -2.245
13831CHOL    R450865   6.120   3.004  -2.260
13831CHOL    R550866   5.985   3.122  -2.378
13831CHOL    C150867   5.916   3.008  -2.578
13831CHOL    C250868   5.848   2.894  -2.777
13832CHOL   ROH50869   1.914  12.645  21.143
13832CHOL    R150870   1.822  12.679  21.269
13832CHOL    R250871   1.916  12.714  21.480
13832CHOL    R350872   1.719  12.718  21.412
13832CHOL    R450873   1.836  12.744  21.591
13832CHOL    R550874   1.627  12.753  21.538
13832CHOL    C150875   1.489  12.804  21.728
13832CHOL    C250876   1.351  12.856  21.917
13833CHOL   ROH50877  19.245   2.556  17.323
13833CHOL    R150878  19.348   2.472  17.412
13833CHOL    R250879  19.564   2.428  17.337
13833CHOL    R350880  19.463   2.376  17.512
13833CHOL    R450881  19.654   2.354  17.415
13833CHOL    R550882  19.565   2.292  17.602
13833CHOL    C150883  19.719   2.165  17.735
13833CHOL    C250884  19.873   2.039  17.869
13834CHOL   ROH50885  17.614  19.461   3.195
13834CHOL    R150886  17.704  19.567   3.116
13834CHOL    R250887  17.831  19.504   2.931
13834CHOL    R350888  17.805  19.687   3.028
13834CHOL    R450889  17.910  19.597   2.862
13834CHOL    R550890  17.895  19.793   2.949
13834CHOL    C150891  18.030  19.953   2.831
13834CHOL    C250892  18.165  20.113   2.713
13835CHOL   ROH50893  15.398   3.941  21.377
13835CHOL    R150894  15.466   3.876  21.506
13835CHOL    R250895  15.698   3.876  21.533
13835CHOL    R350896  15.542   3.802  21.652
13835CHOL    R450897  15.757   3.819  21.647
13835CHOL    R550898  15.610   3.737  21.781
13835CHOL    C150899  15.712   3.638  21.975
13835CHOL    C250900  15.814   3.540  22.169
13836CHOL   ROH50901  17.452  -1.354  13.220
13836CHOL    R150902  17.539  -1.483  13.257
13836CHOL    R250903  17.726  -1.542  13.132
13836CHOL    R350904  17.636  -1.628  13.300
13836CHOL    R450905  17.802  -1.655  13.165
13836CHOL    R550906  17.723  -1.757  13.337
13836CHOL    C150907  17.853  -1.951  13.393
13836CHOL    C250908  17.983  -2.145  13.449
13837CHOL   ROH50909  16.964   8.778  22.054
13837CHOL    R150910  17.042   8.759  22.193
13837CHOL    R250911  17.225   8.615  22.208
13837CHOL    R350912  17.129   8.737  22.348
13837CHOL    R450913  17.293   8.599  22.330
13837CHOL    R550914  17.207   8.718  22.487
13837CHOL    C150915  17.324   8.689  22.695
13837CHOL    C250916  17.440   8.660  22.903
13838CHOL   ROH50917   5.720  13.715  -2.998
13838CHOL    R150918   5.671  13.759  -3.144
13838CHOL    R250919   5.503  13.918  -3.171
13838CHOL    R350920   5.616  13.808  -3.308
13838CHOL    R450921   5.460  13.956  -3.299
13838CHOL    R550922   5.567  13.852  -3.454
13838CHOL    C150923   5.494  13.918  -3.673
13838CHOL    C250924   5.420  13.984  -3.892
13839CHOL   ROH50925   9.961  -3.881   7.566
13839CHOL    R150926   9.957  -4.039   7.543
13839CHOL    R250927  10.153  -4.162   7.517
13839CHOL    R350928   9.951  -4.218   7.518
13839CHOL    R450929  10.149  -4.301   7.497
13839CHOL    R550930   9.947  -4.376   7.495
13839CHOL    C150931   9.940  -4.614   7.462
13839CHOL    C250932   9.934  -4.851   7.428
13840CHOL   ROH50933   2.483  -0.826  15.155
13840CHOL    R150934   2.401  -0.949  15.216
13840CHOL    R250935   2.509  -1.142  15.288
13840CHOL    R350936   2.308  -1.086  15.285
13840CHOL    R450937   2.437  -1.249  15.342
13840CHOL    R550938   2.225  -1.209  15.347
13840CHOL    C150939   2.102  -1.393  15.438
13840CHOL    C250940   1.978  -1.577  15.530
13841CHOL   ROH50941  21.936   5.723   4.002
13841CHOL    R150942  22.073   5.674   3.934
13841CHOL    R250943  22.087   5.639   3.704
13841CHOL    R350944  22.226   5.619   3.859
13841CHOL    R450945  22.206   5.596   3.645
13841CHOL    R550946  22.363   5.570   3.791
13841CHOL    C150947  22.568   5.497   3.690
13841CHOL    C250948  22.773   5.424   3.588
13842CHOL   ROH50949  13.060  15.835  -2.405
13842CHOL    R150950  13.094  15.901  -2.546
13842CHOL    R250951  13.312  15.897  -2.631
13842CHOL    R350952  13.133  15.976  -2.706
13842CHOL    R450953  13.342  15.955  -2.755
13842CHOL    R550954  13.168  16.042  -2.847
13842CHOL    C150955  13.219  16.142  -3.059
13842CHOL    C250956  13.271  16.242  -3.271
13843CHOL   ROH50957  10.215  20.570  19.174
13843CHOL    R150958  10.220  20.690  19.280
13843CHOL    R250959  10.302  20.656  19.495
13843CHOL    R350960  10.226  20.825  19.399
13843CHOL    R450961  10.307  20.761  19.588
13843CHOL    R550962  10.231  20.945  19.504
13843CHOL    C150963  10.239  21.125  19.663
13843CHOL    C250964  10.247  21.305  19.822
13844CHOL   ROH50965  10.441  -2.418   3.337
13844CHOL    R150966  10.445  -2.559   3.261
13844CHOL    R250967  10.525  -2.751   3.367
13844CHOL    R350968  10.449  -2.717   3.175
13844CHOL    R450969  10.528  -2.874   3.300
13844CHOL    R550970  10.453  -2.858   3.099
13844CHOL    C150971  10.459  -3.068   2.984
13844CHOL    C250972  10.465  -3.279   2.870
13845CHOL   ROH50973   1.476  21.136   9.141
13845CHOL    R150974   1.384  21.266   9.125
13845CHOL    R250975   1.478  21.477   9.098
13845CHOL    R350976   1.280  21.412   9.108
13845CHOL    R450977   1.397  21.591   9.084
13845CHOL    R550978   1.188  21.541   9.093
13845CHOL    C150979   1.049  21.736   9.069
13845CHOL    C250980   0.911  21.931   9.046
13846CHOL   ROH50981   5.027  -3.173  10.832
13846CHOL    R150982   4.972  -3.323  10.844
13846CHOL    R250983   5.027  -3.457  11.026
13846CHOL    R350984   4.909  -3.491  10.856
13846CHOL    R450985   4.978  -3.588  11.036
13846CHOL    R550986   4.854  -3.640  10.868
13846CHOL    C150987   4.771  -3.865  10.885
13846CHOL    C250988   4.688  -4.089  10.903
13847CHOL   ROH50989  11.041  -2.405  16.560
13847CHOL    R150990  11.052  -2.544  16.639
13847CHOL    R250991  11.234  -2.686  16.606
13847CHOL    R350992  11.065  -2.700  16.728
13847CHOL    R450993  11.244  -2.807  16.675
13847CHOL    R550994  11.076  -2.839  16.806
13847CHOL    C150995  11.093  -3.047  16.925
13847CHOL    C250996  11.110  -3.255  17.043
13848CHOL   ROH50997  22.719   8.998   4.351
13848CHOL    R150998  22.865   8.988   4.287
13848CHOL    R250999  22.972   9.177   4.201
13848CHOL    R351000  23.029   8.977   4.214
13848CHOL    R451001  23.100   9.169   4.145
13848CHOL    R551002  23.175   8.967   4.150
13848CHOL    C151003  23.395   8.952   4.053
13848CHOL    C251004  23.614   8.937   3.956
13849CHOL   ROH51005  20.863   2.078  13.615
13849CHOL    R151006  20.987   1.985  13.655
13849CHOL    R251007  21.121   1.886  13.492
13849CHOL    R351008  21.126   1.880  13.701
13849CHOL    R451009  21.229   1.804  13.528
13849CHOL    R551010  21.250   1.787  13.742
13849CHOL    C151011  21.435   1.647  13.802
13849CHOL    C251012  21.621   1.508  13.863
13850CHOL   ROH51013   7.931  21.930  17.128
13850CHOL    R151014   7.908  22.066  17.209
13850CHOL    R251015   8.088  22.186  17.296
13850CHOL    R351016   7.882  22.219  17.301
13850CHOL    R451017   8.068  22.305  17.368
13850CHOL    R551018   7.859  22.354  17.383
13850CHOL    C151019   7.824  22.558  17.505
13850CHOL    C251020   7.790  22.762  17.627
13851CHOL   ROH51021  -1.803   5.978  16.868
13851CHOL    R151022  -1.934   5.933  16.949
13851CHOL    R251023  -1.916   5.800  17.140
13851CHOL    R351024  -2.080   5.882  17.039
13851CHOL    R451025  -2.031   5.760  17.210
13851CHOL    R551026  -2.211   5.837  17.120
13851CHOL    C151027  -2.407   5.769  17.241
13851CHOL    C251028  -2.603   5.701  17.362
13852CHOL   ROH51029  -1.606  18.009  11.294
13852CHOL    R151030  -1.735  18.102  11.313
13852CHOL    R251031  -1.826  18.138  11.525
13852CHOL    R351032  -1.880  18.207  11.335
13852CHOL    R451033  -1.939  18.219  11.542
13852CHOL    R551034  -2.008  18.300  11.355
13852CHOL    C151035  -2.202  18.439  11.384
13852CHOL    C251036  -2.395  18.578  11.413
13853CHOL   ROH51037   6.167  15.253  22.533
13853CHOL    R151038   6.126  15.312  22.676
13853CHOL    R251039   6.286  15.352  22.840
13853CHOL    R351040   6.079  15.379  22.836
13853CHOL    R451041   6.250  15.404  22.965
13853CHOL    R551042   6.038  15.438  22.979
13853CHOL    C151043   5.976  15.528  23.193
13853CHOL    C251044   5.914  15.617  23.407
13854CHOL   ROH51045  15.209   2.038  -0.403
13854CHOL    R151046  15.268   1.944  -0.518
13854CHOL    R251047  15.271   2.014  -0.741
13854CHOL    R351048  15.334   1.838  -0.648
13854CHOL    R451049  15.323   1.932  -0.842
13854CHOL    R551050  15.393   1.744  -0.763
13854CHOL    C151051  15.481   1.603  -0.937
13854CHOL    C251052  15.570   1.462  -1.110
13855CHOL   ROH51053  -3.931   7.551  10.904
13855CHOL    R151054  -4.087   7.520  10.919
13855CHOL    R251055  -4.165   7.374  11.083
13855CHOL    R351056  -4.263   7.484  10.936
13855CHOL    R451057  -4.302   7.346  11.096
13855CHOL    R551058  -4.419   7.453  10.951
13855CHOL    C151059  -4.653   7.406  10.973
13855CHOL    C251060  -4.887   7.359  10.995
13856CHOL   ROH51061  -2.779  12.672  15.553
13856CHOL    R151062  -2.921  12.703  15.619
13856CHOL    R251063  -2.977  12.616  15.828
13856CHOL    R351064  -3.082  12.737  15.694
13856CHOL    R451065  -3.102  12.643  15.886
13856CHOL    R551066  -3.224  12.768  15.760
13856CHOL    C151067  -3.438  12.813  15.859
13856CHOL    C251068  -3.651  12.859  15.959
13857CHOL   ROH51069  21.331  17.991  11.233
13857CHOL    R151070  21.461  18.082  11.249
13857CHOL    R251071  21.485  18.280  11.128
13857CHOL    R351072  21.608  18.185  11.267
13857CHOL    R451073  21.599  18.360  11.142
13857CHOL    R551074  21.738  18.277  11.283
13857CHOL    C151075  21.934  18.414  11.307
13857CHOL    C251076  22.130  18.551  11.331
13858CHOL   ROH51077  -1.104  14.100  17.797
13858CHOL    R151078  -1.228  14.146  17.887
13858CHOL    R251079  -1.256  14.062  18.104
13858CHOL    R351080  -1.368  14.197  17.989
13858CHOL    R451081  -1.365  14.102  18.183
13858CHOL    R551082  -1.492  14.242  18.079
13858CHOL    C151083  -1.678  14.311  18.215
13858CHOL    C251084  -1.864  14.379  18.351
13859CHOL   ROH51085  11.880  -3.931  10.349
13859CHOL    R151086  11.897  -4.090  10.357
13859CHOL    R251087  11.938  -4.215  10.164
13859CHOL    R351088  11.916  -4.269  10.365
13859CHOL    R451089  11.953  -4.354  10.171
13859CHOL    R551090  11.934  -4.428  10.373
13859CHOL    C151091  11.959  -4.666  10.385
13859CHOL    C251092  11.985  -4.904  10.396
13860CHOL   ROH51093   0.871  19.926   5.904
13860CHOL    R151094   0.774  20.044   5.857
13860CHOL    R251095   0.859  20.252   5.794
13860CHOL    R351096   0.664  20.177   5.805
13860CHOL    R451097   0.774  20.355   5.753
13860CHOL    R551098   0.567  20.295   5.758
13860CHOL    C151099   0.421  20.472   5.688
13860CHOL    C251100   0.275  20.649   5.618
13861CHOL   ROH51101   5.413  23.077   7.119
13861CHOL    R151102   5.358  23.224   7.088
13861CHOL    R251103   5.243  23.346   7.249
13861CHOL    R351104   5.297  23.390   7.053
13861CHOL    R451105   5.195  23.475   7.222
13861CHOL    R551106   5.242  23.537   7.021
13861CHOL    C151107   5.161  23.758   6.975
13861CHOL    C251108   5.079  23.979   6.928
13862CHOL   ROH51109  -4.215  10.651  10.478
13862CHOL    R151110  -4.375  10.658  10.485
13862CHOL    R251111  -4.482  10.802  10.634
13862CHOL    R351112  -4.554  10.665  10.493
13862CHOL    R451113  -4.622  10.808  10.640
13862CHOL    R551114  -4.714  10.672  10.500
13862CHOL    C151115  -4.954  10.682  10.511
13862CHOL    C251116  -5.193  10.692  10.522
13863CHOL   ROH51117  22.936   9.331   4.834
13863CHOL    R151118  23.085   9.325   4.777
13863CHOL    R251119  23.195   9.518   4.706
13863CHOL    R351120  23.254   9.317   4.713
13863CHOL    R451121  23.326   9.512   4.656
13863CHOL    R551122  23.403   9.311   4.657
13863CHOL    C151123  23.627   9.301   4.571
13863CHOL    C251124  23.851   9.292   4.486
13864CHOL   ROH51125  15.822  15.342  -1.625
13864CHOL    R151126  15.890  15.405  -1.755
13864CHOL    R251127  15.937  15.273  -1.942
13864CHOL    R351128  15.967  15.476  -1.902
13864CHOL    R451129  15.997  15.329  -2.056
13864CHOL    R551130  16.035  15.540  -2.032
13864CHOL    C151131  16.137  15.634  -2.227
13864CHOL    C251132  16.239  15.729  -2.423
13865CHOL   ROH51133   0.232   5.221  18.897
13865CHOL    R151134   0.128   5.164  19.005
13865CHOL    R251135   0.125   4.938  19.061
13865CHOL    R351136   0.011   5.101  19.126
13865CHOL    R451137   0.035   4.889  19.155
13865CHOL    R551138  -0.093   5.044  19.233
13865CHOL    C151139  -0.248   4.959  19.395
13865CHOL    C251140  -0.404   4.874  19.557
13866CHOL   ROH51141  12.612  23.333   6.715
13866CHOL    R151142  12.645  23.484   6.673
13866CHOL    R251143  12.838  23.590   6.750
13866CHOL    R351144  12.682  23.654   6.626
13866CHOL    R451145  12.867  23.722   6.713
13866CHOL    R551146  12.715  23.804   6.584
13866CHOL    C151147  12.764  24.031   6.522
13866CHOL    C251148  12.814  24.257   6.459
13867CHOL   ROH51149  15.296  -2.421  13.634
13867CHOL    R151150  15.357  -2.563  13.676
13867CHOL    R251151  15.503  -2.582  13.857
13867CHOL    R351152  15.426  -2.722  13.723
13867CHOL    R451153  15.556  -2.706  13.894
13867CHOL    R551154  15.487  -2.864  13.765
13867CHOL    C151155  15.579  -3.077  13.829
13867CHOL    C251156  15.670  -3.289  13.892
13868CHOL   ROH51157  17.874  -1.394   7.867
13868CHOL    R151158  17.963  -1.525   7.843
13868CHOL    R251159  17.949  -1.645   7.643
13868CHOL    R351160  18.063  -1.672   7.816
13868CHOL    R451161  18.027  -1.759   7.622
13868CHOL    R551162  18.153  -1.802   7.792
13868CHOL    C151163  18.286  -1.999   7.756
13868CHOL    C251164  18.420  -2.195   7.720
13869CHOL   ROH51165   7.757  -2.656  15.730
13869CHOL    R151166   7.733  -2.800  15.797
13869CHOL    R251167   7.907  -2.913  15.903
13869CHOL    R351168   7.707  -2.961  15.871
13869CHOL    R451169   7.887  -3.038  15.961
13869CHOL    R551170   7.683  -3.104  15.938
13869CHOL    C151171   7.647  -3.320  16.038
13869CHOL    C251172   7.612  -3.535  16.138
13870CHOL   ROH51173  -2.855  11.678   4.259
13870CHOL    R151174  -3.003  11.698   4.200
13870CHOL    R251175  -3.187  11.711   4.342
13870CHOL    R351176  -3.168  11.720   4.135
13870CHOL    R451177  -3.316  11.728   4.291
13870CHOL    R551178  -3.316  11.740   4.076
13870CHOL    C151179  -3.537  11.770   3.988
13870CHOL    C251180  -3.759  11.800   3.900
13871CHOL   ROH51181  11.379  19.386  -0.367
13871CHOL    R151182  11.391  19.492  -0.486
13871CHOL    R251183  11.577  19.632  -0.504
13871CHOL    R351184  11.405  19.611  -0.620
13871CHOL    R451185  11.588  19.724  -0.609
13871CHOL    R551186  11.417  19.717  -0.740
13871CHOL    C151187  11.435  19.877  -0.918
13871CHOL    C251188  11.453  20.036  -1.097
13872CHOL   ROH51189  -1.040  16.283  16.211
13872CHOL    R151190  -1.163  16.358  16.281
13872CHOL    R251191  -1.184  16.590  16.269
13872CHOL    R351192  -1.301  16.443  16.359
13872CHOL    R451193  -1.291  16.656  16.330
13872CHOL    R551194  -1.424  16.518  16.429
13872CHOL    C151195  -1.608  16.631  16.534
13872CHOL    C251196  -1.793  16.744  16.638
13873CHOL   ROH51197  19.544   7.542   0.009
13873CHOL    R151198  19.652   7.512  -0.105
13873CHOL    R251199  19.627   7.600  -0.320
13873CHOL    R351200  19.774   7.479  -0.234
13873CHOL    R451201  19.721   7.574  -0.420
13873CHOL    R551202  19.882   7.449  -0.348
13873CHOL    C151203  20.044   7.404  -0.519
13873CHOL    C251204  20.206   7.360  -0.691
13874CHOL   ROH51205  21.616   8.856  17.476
13874CHOL    R151206  21.750   8.838  17.562
13874CHOL    R251207  21.940   8.741  17.469
13874CHOL    R351208  21.900   8.818  17.659
13874CHOL    R451209  22.058   8.726  17.544
13874CHOL    R551210  22.034   8.801  17.745
13874CHOL    C151211  22.235   8.774  17.874
13874CHOL    C251212  22.435   8.747  18.003
13875CHOL   ROH51213  23.604  12.904   9.147
13875CHOL    R151214  23.761  12.933   9.141
13875CHOL    R251215  23.889  12.861   8.960
13875CHOL    R351216  23.938  12.966   9.133
13875CHOL    R451217  24.027  12.887   8.954
13875CHOL    R551218  24.095  12.995   9.127
13875CHOL    C151219  24.331  13.039   9.117
13875CHOL    C251220  24.566  13.083   9.108
13876CHOL   ROH51221   9.125  18.090  21.409
13876CHOL    R151222   9.116  18.186  21.537
13876CHOL    R251223   9.131  18.418  21.515
13876CHOL    R351224   9.105  18.294  21.681
13876CHOL    R451225   9.123  18.501  21.626
13876CHOL    R551226   9.096  18.390  21.808
13876CHOL    C151227   9.081  18.533  22.000
13876CHOL    C251228   9.067  18.677  22.192
13877CHOL   ROH51229   7.260  13.815  -3.371
13877CHOL    R151230   7.231  13.859  -3.522
13877CHOL    R251231   7.331  14.049  -3.613
13877CHOL    R351232   7.199  13.908  -3.692
13877CHOL    R451233   7.306  14.088  -3.745
13877CHOL    R551234   7.170  13.952  -3.843
13877CHOL    C151235   7.128  14.018  -4.070
13877CHOL    C251236   7.085  14.084  -4.297
13878CHOL   ROH51237   9.803  18.164  21.381
13878CHOL    R151238   9.802  18.260  21.509
13878CHOL    R251239   9.805  18.492  21.485
13878CHOL    R351240   9.801  18.368  21.653
13878CHOL    R451241   9.804  18.576  21.597
13878CHOL    R551242   9.800  18.463  21.781
13878CHOL    C151243   9.799  18.607  21.973
13878CHOL    C251244   9.797  18.751  22.165
13879CHOL   ROH51245  14.228  -3.388  10.069
13879CHOL    R151246  14.284  -3.538  10.068
13879CHOL    R251247  14.504  -3.585  10.129
13879CHOL    R351248  14.346  -3.707  10.067
13879CHOL    R451249  14.552  -3.716  10.129
13879CHOL    R551250  14.402  -3.857  10.067
13879CHOL    C151251  14.485  -4.082  10.065
13879CHOL    C251252  14.568  -4.307  10.064
13880CHOL   ROH51253  10.383  -3.479  14.037
13880CHOL    R151254  10.392  -3.632  14.082
13880CHOL    R251255  10.591  -3.723  14.162
13880CHOL    R351256  10.402  -3.805  14.133
13880CHOL    R451257  10.599  -3.857  14.201
13880CHOL    R551258  10.410  -3.958  14.178
13880CHOL    C151259  10.424  -4.188  14.246
13880CHOL    C251260  10.437  -4.418  14.313
13881CHOL   ROH51261  -2.946   5.978  14.078
13881CHOL    R151262  -3.093   5.931  14.119
13881CHOL    R251263  -3.174   5.966  14.335
13881CHOL    R351264  -3.259   5.878  14.165
13881CHOL    R451265  -3.303   5.924  14.371
13881CHOL    R551266  -3.406   5.831  14.206
13881CHOL    C151267  -3.627   5.760  14.268
13881CHOL    C251268  -3.848   5.689  14.330
13882CHOL   ROH51269  16.964   2.521  19.466
13882CHOL    R151270  17.047   2.436  19.574
13882CHOL    R251271  17.280   2.444  19.579
13882CHOL    R351272  17.140   2.341  19.695
13882CHOL    R451273  17.352   2.370  19.673
13882CHOL    R551274  17.223   2.257  19.802
13882CHOL    C151275  17.347   2.130  19.964
13882CHOL    C251276  17.471   2.003  20.126
13883CHOL   ROH51277   0.625   6.220  19.735
13883CHOL    R151278   0.524   6.171  19.849
13883CHOL    R251279   0.584   6.179  20.074
13883CHOL    R351280   0.410   6.117  19.977
13883CHOL    R451281   0.495   6.136  20.174
13883CHOL    R551282   0.309   6.068  20.091
13883CHOL    C151283   0.157   5.995  20.262
13883CHOL    C251284   0.005   5.922  20.433
13884CHOL   ROH51285  23.237  12.249   6.120
13884CHOL    R151286  23.390  12.270   6.077
13884CHOL    R251287  23.449  12.289   5.852
13884CHOL    R351288  23.561  12.294   6.028
13884CHOL    R451289  23.583  12.307   5.814
13884CHOL    R551290  23.714  12.315   5.985
13884CHOL    C151291  23.943  12.347   5.920
13884CHOL    C251292  24.172  12.378   5.855
13885CHOL   ROH51293   3.232   0.124   2.496
13885CHOL    R151294   3.156   0.018   2.404
13885CHOL    R251295   3.257  -0.185   2.346
13885CHOL    R351296   3.071  -0.102   2.299
13885CHOL    R451297   3.191  -0.277   2.265
13885CHOL    R551298   2.995  -0.208   2.207
13885CHOL    C151299   2.881  -0.367   2.068
13885CHOL    C251300   2.767  -0.527   1.930
13886CHOL   ROH51301  22.235   3.322  10.462
13886CHOL    R151302  22.375   3.245  10.467
13886CHOL    R251303  22.571   3.347  10.392
13886CHOL    R351304  22.533   3.159  10.474
13886CHOL    R451305  22.694   3.280  10.396
13886CHOL    R551306  22.674   3.082  10.479
13886CHOL    C151307  22.884   2.967  10.487
13886CHOL    C251308  23.094   2.852  10.495
13887CHOL   ROH51309   1.604  21.259   9.438
13887CHOL    R151310   1.512  21.390   9.425
13887CHOL    R251311   1.608  21.600   9.394
13887CHOL    R351312   1.410  21.536   9.410
13887CHOL    R451313   1.528  21.715   9.383
13887CHOL    R551314   1.318  21.667   9.397
13887CHOL    C151315   1.181  21.863   9.377
13887CHOL    C251316   1.043  22.059   9.358
13888CHOL   ROH51317  22.470   8.663   3.880
13888CHOL    R151318  22.613   8.650   3.809
13888CHOL    R251319  22.652   8.487   3.647
13888CHOL    R351320  22.774   8.635   3.730
13888CHOL    R451321  22.777   8.475   3.586
13888CHOL    R551322  22.917   8.622   3.659
13888CHOL    C151323  23.132   8.602   3.554
13888CHOL    C251324  23.346   8.582   3.448
13889CHOL   ROH51325  16.884  21.148  14.634
13889CHOL    R151326  16.969  21.270  14.692
13889CHOL    R251327  17.082  21.417  14.550
13889CHOL    R351328  17.065  21.408  14.758
13889CHOL    R451329  17.157  21.523  14.601
13889CHOL    R551330  17.150  21.530  14.816
13889CHOL    C151331  17.278  21.713  14.904
13889CHOL    C251332  17.406  21.897  14.992
13890CHOL   ROH51333  14.073   1.033  19.856
13890CHOL    R151334  14.117   0.928  19.968
13890CHOL    R251335  14.198   0.717  19.911
13890CHOL    R351336  14.165   0.809  20.095
13890CHOL    R451337  14.236   0.625  20.009
13890CHOL    R551338  14.209   0.704  20.207
13890CHOL    C151339  14.274   0.546  20.376
13890CHOL    C251340  14.340   0.388  20.545
13891CHOL   ROH51341  12.061   0.257  19.672
13891CHOL    R151342  12.085   0.144  19.783
13891CHOL    R251343  12.300   0.084  19.849
13891CHOL    R351344  12.111   0.017  19.907
13891CHOL    R451345  12.321  -0.015  19.946
13891CHOL    R551346  12.135  -0.096  20.018
13891CHOL    C151347  12.170  -0.265  20.184
13891CHOL    C251348  12.205  -0.435  20.350
13892CHOL   ROH51349  18.829  16.951   1.641
13892CHOL    R151350  18.930  17.036   1.550
13892CHOL    R251351  19.160  17.001   1.562
13892CHOL    R351352  19.043  17.131   1.448
13892CHOL    R451353  19.248  17.075   1.483
13892CHOL    R551354  19.144  17.216   1.357
13892CHOL    C151355  19.295  17.342   1.221
13892CHOL    C251356  19.446  17.469   1.084
13893CHOL   ROH51357  18.113  11.875  -1.281
13893CHOL    R151358  18.206  11.895  -1.409
13893CHOL    R251359  18.342  11.722  -1.487
13893CHOL    R351360  18.311  11.918  -1.554
13893CHOL    R451361  18.424  11.740  -1.600
13893CHOL    R551362  18.405  11.938  -1.683
13893CHOL    C151363  18.544  11.968  -1.875
13893CHOL    C251364  18.684  11.998  -2.068
13894CHOL   ROH51365  22.291  16.246   8.434
13894CHOL    R151366  22.433  16.317   8.415
13894CHOL    R251367  22.563  16.276   8.225
13894CHOL    R351368  22.593  16.396   8.394
13894CHOL    R451369  22.687  16.338   8.209
13894CHOL    R551370  22.736  16.467   8.375
13894CHOL    C151371  22.949  16.572   8.346
13894CHOL    C251372  23.162  16.678   8.317
13895CHOL   ROH51373  23.003   6.570   6.337
13895CHOL    R151374  23.154   6.534   6.299
13895CHOL    R251375  23.232   6.560   6.081
13895CHOL    R351376  23.324   6.494   6.256
13895CHOL    R451377  23.365   6.529   6.048
13895CHOL    R551378  23.476   6.458   6.219
13895CHOL    C151379  23.702   6.404   6.162
13895CHOL    C251380  23.929   6.350   6.105
13896CHOL   ROH51381  21.380  15.888  15.543
13896CHOL    R151382  21.513  15.954  15.603
13896CHOL    R251383  21.671  16.053  15.463
13896CHOL    R351384  21.662  16.029  15.670
13896CHOL    R451385  21.787  16.111  15.515
13896CHOL    R551386  21.795  16.095  15.730
13896CHOL    C151387  21.993  16.195  15.820
13896CHOL    C251388  22.192  16.295  15.910
13897CHOL   ROH51389  19.975   5.177   1.489
13897CHOL    R151390  20.086   5.117   1.391
13897CHOL    R251391  20.027   4.980   1.212
13897CHOL    R351392  20.211   5.049   1.281
13897CHOL    R451393  20.124   4.927   1.126
13897CHOL    R551394  20.323   4.989   1.183
13897CHOL    C151395  20.489   4.898   1.036
13897CHOL    C251396  20.656   4.808   0.889
13898CHOL   ROH51397   2.483  21.838  11.765
13898CHOL    R151398   2.402  21.974  11.785
13898CHOL    R251399   2.513  22.176  11.821
13898CHOL    R351400   2.310  22.128  11.808
13898CHOL    R451401   2.442  22.295  11.839
13898CHOL    R551402   2.229  22.264  11.829
13898CHOL    C151403   2.107  22.468  11.859
13898CHOL    C251404   1.985  22.673  11.889
13899CHOL   ROH51405  17.742   3.771  19.712
13899CHOL    R151406  17.835   3.703  19.824
13899CHOL    R251407  17.937   3.497  19.786
13899CHOL    R351408  17.939   3.628  19.949
13899CHOL    R451409  18.018   3.438  19.883
13899CHOL    R551410  18.032   3.560  20.061
13899CHOL    C151411  18.171   3.459  20.228
13899CHOL    C251412  18.310   3.357  20.395
13900CHOL   ROH51413   1.615  18.907  17.049
13900CHOL    R151414   1.519  19.006  17.129
13900CHOL    R251415   1.592  19.116  17.322
13900CHOL    R351416   1.410  19.117  17.220
13900CHOL    R451417   1.508  19.202  17.392
13900CHOL    R551418   1.314  19.217  17.300
13900CHOL    C151419   1.169  19.365  17.420
13900CHOL    C251420   1.024  19.514  17.541
13901CHOL   ROH51421   4.790  14.497  -2.380
13901CHOL    R151422   4.731  14.549  -2.519
13901CHOL    R251423   4.538  14.680  -2.526
13901CHOL    R351424   4.664  14.609  -2.675
13901CHOL    R451425   4.486  14.726  -2.647
13901CHOL    R551426   4.604  14.661  -2.815
13901CHOL    C151427   4.515  14.740  -3.023
13901CHOL    C251428   4.426  14.818  -3.232
13902CHOL   ROH51429   7.956   1.907  -1.467
13902CHOL    R151430   7.935   1.813  -1.595
13902CHOL    R251431   8.058   1.617  -1.621
13902CHOL    R351432   7.911   1.707  -1.738
13902CHOL    R451433   8.039   1.534  -1.733
13902CHOL    R551434   7.889   1.613  -1.866
13902CHOL    C151435   7.858   1.472  -2.058
13902CHOL    C251436   7.826   1.331  -2.249
13903CHOL   ROH51437  21.411  17.701  12.010
13903CHOL    R151438  21.542  17.790  12.034
13903CHOL    R251439  21.604  17.956  11.883
13903CHOL    R351440  21.688  17.890  12.062
13903CHOL    R451441  21.718  18.034  11.904
13903CHOL    R551442  21.819  17.980  12.086
13903CHOL    C151443  22.015  18.113  12.123
13903CHOL    C251444  22.211  18.247  12.160
13904CHOL   ROH51445  13.891  23.276  12.140
13904CHOL    R151446  13.937  23.427  12.167
13904CHOL    R251447  14.089  23.478  12.335
13904CHOL    R351448  13.988  23.597  12.196
13904CHOL    R451449  14.129  23.610  12.359
13904CHOL    R551450  14.034  23.748  12.223
13904CHOL    C151451  14.102  23.975  12.263
13904CHOL    C251452  14.170  24.201  12.303
13905CHOL   ROH51453  -2.804  16.069  10.855
13905CHOL    R151454  -2.948  16.137  10.867
13905CHOL    R251455  -3.081  16.104  11.057
13905CHOL    R351456  -3.111  16.213  10.882
13905CHOL    R451457  -3.207  16.163  11.068
13905CHOL    R551458  -3.255  16.280  10.894
13905CHOL    C151459  -3.472  16.382  10.913
13905CHOL    C251460  -3.689  16.484  10.931
13906CHOL   ROH51461  19.905   4.076  17.757
13906CHOL    R151462  20.018   4.014  17.852
13906CHOL    R251463  20.170   3.858  17.771
13906CHOL    R351464  20.144   3.945  17.959
13906CHOL    R451465  20.269   3.804  17.855
13906CHOL    R551466  20.257   3.883  18.054
13906CHOL    C151467  20.426   3.790  18.197
13906CHOL    C251468  20.595   3.698  18.340
13907CHOL   ROH51469  13.479  15.361  22.357
13907CHOL    R151470  13.515  15.422  22.500
13907CHOL    R251471  13.662  15.313  22.644
13907CHOL    R351472  13.555  15.492  22.661
13907CHOL    R451473  13.694  15.367  22.769
13907CHOL    R551474  13.591  15.553  22.804
13907CHOL    C151475  13.645  15.645  23.019
13907CHOL    C251476  13.699  15.737  23.234
13908CHOL   ROH51477   2.740  16.642  -0.239
13908CHOL    R151478   2.659  16.713  -0.358
13908CHOL    R251479   2.766  16.858  -0.505
13908CHOL    R351480   2.568  16.793  -0.491
13908CHOL    R451481   2.695  16.920  -0.609
13908CHOL    R551482   2.488  16.863  -0.610
13908CHOL    C151483   2.366  16.970  -0.787
13908CHOL    C251484   2.245  17.076  -0.965
13909CHOL   ROH51485  15.910  12.123  -2.581
13909CHOL    R151486  15.982  12.142  -2.723
13909CHOL    R251487  15.888  12.052  -2.917
13909CHOL    R351488  16.062  12.163  -2.883
13909CHOL    R451489  15.951  12.069  -3.041
13909CHOL    R551490  16.133  12.181  -3.024
13909CHOL    C151491  16.241  12.210  -3.237
13909CHOL    C251492  16.348  12.238  -3.450
13910CHOL   ROH51493  16.644   8.374  22.162
13910CHOL    R151494  16.717   8.348  22.302
13910CHOL    R251495  16.816   8.524  22.420
13910CHOL    R351496  16.799   8.320  22.460
13910CHOL    R451497  16.880   8.501  22.542
13910CHOL    R551498  16.872   8.294  22.600
13910CHOL    C151499  16.981   8.256  22.810
13910CHOL    C251500  17.090   8.217  23.020
13911CHOL   ROH51501  21.797   2.626  11.135
13911CHOL    R151502  21.933   2.543  11.148
13911CHOL    R251503  21.961   2.340  11.035
13911CHOL    R351504  22.086   2.449  11.162
13911CHOL    R451505  22.080   2.268  11.047
13911CHOL    R551506  22.222   2.366  11.175
13911CHOL    C151507  22.426   2.241  11.194
13911CHOL    C251508  22.630   2.116  11.213
13912CHOL   ROH51509  -3.995  11.399   8.285
13912CHOL    R151510  -4.152  11.416   8.258
13912CHOL    R251511  -4.309  11.310   8.394
13912CHOL    R351512  -4.328  11.435   8.229
13912CHOL    R451513  -4.446  11.325   8.371
13912CHOL    R551514  -4.485  11.453   8.202
13912CHOL    C151515  -4.720  11.478   8.162
13912CHOL    C251516  -4.955  11.504   8.122
13913CHOL   ROH51517   3.674  19.099   1.137
13913CHOL    R151518   3.604  19.207   1.042
13913CHOL    R251519   3.704  19.273   0.842
13913CHOL    R351520   3.526  19.330   0.936
13913CHOL    R451521   3.642  19.368   0.759
13913CHOL    R551522   3.456  19.438   0.841
13913CHOL    C151523   3.351  19.601   0.699
13913CHOL    C251524   3.247  19.763   0.557
13914CHOL   ROH51525  17.222  21.660  12.750
13914CHOL    R151526  17.308  21.791  12.784
13914CHOL    R251527  17.536  21.776  12.830
13914CHOL    R351528  17.405  21.938  12.822
13914CHOL    R451529  17.611  21.890  12.860
13914CHOL    R551530  17.491  22.069  12.856
13914CHOL    C151531  17.619  22.265  12.907
13914CHOL    C251532  17.748  22.461  12.958
13915CHOL   ROH51533   4.746   3.013  21.083
13915CHOL    R151534   4.684   2.936  21.209
13915CHOL    R251535   4.652   3.046  21.412
13915CHOL    R351536   4.615   2.850  21.351
13915CHOL    R451537   4.598   2.979  21.523
13915CHOL    R551538   4.553   2.773  21.477
13915CHOL    C151539   4.460   2.659  21.666
13915CHOL    C251540   4.368   2.544  21.855
13916CHOL   ROH51541  -3.386   8.482   5.553
13916CHOL    R151542  -3.538   8.471   5.503
13916CHOL    R251543  -3.680   8.307   5.588
13916CHOL    R351544  -3.708   8.458   5.446
13916CHOL    R451545  -3.813   8.298   5.544
13916CHOL    R551546  -3.859   8.447   5.396
13916CHOL    C151547  -4.087   8.430   5.321
13916CHOL    C251548  -4.314   8.413   5.245
13917CHOL   ROH51549  16.535  13.884  21.609
13917CHOL    R151550  16.624  13.929  21.734
13917CHOL    R251551  16.713  14.144  21.747
13917CHOL    R351552  16.723  13.980  21.875
13917CHOL    R451553  16.791  14.184  21.856
13917CHOL    R551554  16.812  14.025  22.001
13917CHOL    C151555  16.945  14.093  22.188
13917CHOL    C251556  17.078  14.160  22.376
13918CHOL   ROH51557  18.455  16.411  18.946
13918CHOL    R151558  18.553  16.479  19.053
13918CHOL    R251559  18.782  16.435  19.051
13918CHOL    R351560  18.662  16.556  19.173
13918CHOL    R451561  18.867  16.495  19.145
13918CHOL    R551562  18.760  16.624  19.280
13918CHOL    C151563  18.906  16.726  19.440
13918CHOL    C251564  19.053  16.828  19.601
13919CHOL   ROH51565  -2.737  14.661  14.212
13919CHOL    R151566  -2.880  14.716  14.258
13919CHOL    R251567  -2.908  14.937  14.326
13919CHOL    R351568  -3.041  14.777  14.310
13919CHOL    R451569  -3.033  14.985  14.366
13919CHOL    R551570  -3.184  14.832  14.356
13919CHOL    C151571  -3.399  14.914  14.424
13919CHOL    C251572  -3.614  14.996  14.493
13920CHOL   ROH51573   4.659  -0.688   2.391
13920CHOL    R151574   4.597  -0.803   2.299
13920CHOL    R251575   4.422  -0.937   2.375
13920CHOL    R351576   4.528  -0.933   2.195
13920CHOL    R451577   4.367  -1.038   2.294
13920CHOL    R551578   4.466  -1.048   2.103
13920CHOL    C151579   4.373  -1.222   1.965
13920CHOL    C251580   4.281  -1.395   1.827
13921CHOL   ROH51581  13.270   3.494  -2.084
13921CHOL    R151582  13.304   3.419  -2.221
13921CHOL    R251583  13.518   3.336  -2.263
13921CHOL    R351584  13.341   3.334  -2.375
13921CHOL    R451585  13.547   3.270  -2.383
13921CHOL    R551586  13.375   3.259  -2.512
13921CHOL    C151587  13.425   3.145  -2.718
13921CHOL    C251588  13.476   3.032  -2.924
13922CHOL   ROH51589  13.063  23.678   9.725
13922CHOL    R151590  13.099  23.834   9.721
13922CHOL    R251591  13.174  23.944   9.913
13922CHOL    R351592  13.140  24.009   9.718
13922CHOL    R451593  13.206  24.080   9.910
13922CHOL    R551594  13.176  24.165   9.714
13922CHOL    C151595  13.231  24.399   9.709
13922CHOL    C251596  13.285  24.633   9.703
13923CHOL   ROH51597  12.488  18.312  20.965
13923CHOL    R151598  12.517  18.405  21.092
13923CHOL    R251599  12.726  18.502  21.124
13923CHOL    R351600  12.549  18.510  21.235
13923CHOL    R451601  12.751  18.584  21.235
13923CHOL    R551602  12.578  18.603  21.362
13923CHOL    C151603  12.621  18.742  21.553
13923CHOL    C251604  12.664  18.881  21.743
13924CHOL   ROH51605  -0.172   2.940  16.824
13924CHOL    R151606  -0.284   2.860  16.905
13924CHOL    R251607  -0.241   2.648  16.992
13924CHOL    R351608  -0.411   2.769  16.995
13924CHOL    R451609  -0.339   2.577  17.062
13924CHOL    R551610  -0.523   2.689  17.076
13924CHOL    C151611  -0.691   2.568  17.197
13924CHOL    C251612  -0.860   2.447  17.318
13925CHOL   ROH51613  13.045  -3.750   9.733
13925CHOL    R151614  13.083  -3.906   9.731
13925CHOL    R251615  13.224  -3.997   9.893
13925CHOL    R351616  13.125  -4.080   9.730
13925CHOL    R451617  13.257  -4.133   9.892
13925CHOL    R551618  13.163  -4.236   9.728
13925CHOL    C151619  13.219  -4.469   9.726
13925CHOL    C251620  13.275  -4.703   9.723
13926CHOL   ROH51621  10.560  -0.288  19.396
13926CHOL    R151622  10.576  -0.405  19.504
13926CHOL    R251623  10.632  -0.357  19.725
13926CHOL    R351624  10.593  -0.536  19.626
13926CHOL    R451625  10.646  -0.459  19.820
13926CHOL    R551626  10.609  -0.653  19.734
13926CHOL    C151627  10.632  -0.828  19.896
13926CHOL    C251628  10.655  -1.003  20.058
13927CHOL   ROH51629  -3.892  11.785  12.423
13927CHOL    R151630  -4.048  11.802  12.454
13927CHOL    R251631  -4.121  11.924  12.639
13927CHOL    R351632  -4.224  11.821  12.489
13927CHOL    R451633  -4.257  11.939  12.666
13927CHOL    R551634  -4.380  11.839  12.520
13927CHOL    C151635  -4.614  11.864  12.567
13927CHOL    C251636  -4.848  11.890  12.613
13928CHOL   ROH51637  12.158  -3.768  11.732
13928CHOL    R151638  12.181  -3.925  11.754
13928CHOL    R251639  12.237  -4.064  11.575
13928CHOL    R351640  12.206  -4.102  11.778
13928CHOL    R451641  12.257  -4.201  11.594
13928CHOL    R551642  12.229  -4.258  11.799
13928CHOL    C151643  12.262  -4.494  11.832
13928CHOL    C251644  12.296  -4.729  11.864
13929CHOL   ROH51645  17.312   1.050  17.766
13929CHOL    R151646  17.397   0.949  17.857
13929CHOL    R251647  17.435   0.729  17.789
13929CHOL    R351648  17.494   0.836  17.958
13929CHOL    R451649  17.510   0.641  17.868
13929CHOL    R551650  17.579   0.736  18.049
13929CHOL    C151651  17.707   0.585  18.185
13929CHOL    C251652  17.835   0.434  18.321
13930CHOL   ROH51653   5.595  17.172  -1.426
13930CHOL    R151654   5.546  17.249  -1.557
13930CHOL    R251655   5.678  17.254  -1.749
13930CHOL    R351656   5.492  17.336  -1.705
13930CHOL    R451657   5.636  17.322  -1.864
13930CHOL    R551658   5.443  17.414  -1.837
13930CHOL    C151659   5.370  17.529  -2.034
13930CHOL    C251660   5.297  17.645  -2.231
13931CHOL   ROH51661  11.723  -3.243   5.345
13931CHOL    R151662  11.746  -3.392   5.292
13931CHOL    R251663  11.799  -3.433   5.069
13931CHOL    R351664  11.771  -3.560   5.232
13931CHOL    R451665  11.819  -3.564   5.022
13931CHOL    R551666  11.794  -3.709   5.179
13931CHOL    C151667  11.828  -3.933   5.099
13931CHOL    C251668  11.862  -4.157   5.020
13932CHOL   ROH51669   3.952  -2.353  13.192
13932CHOL    R151670   3.885  -2.494  13.226
13932CHOL    R251671   4.005  -2.693  13.205
13932CHOL    R351672   3.809  -2.653  13.264
13932CHOL    R451673   3.947  -2.816  13.235
13932CHOL    R551674   3.742  -2.794  13.299
13932CHOL    C151675   3.641  -3.006  13.350
13932CHOL    C251676   3.540  -3.217  13.401
13933CHOL   ROH51677   7.392  -3.703  11.878
13933CHOL    R151678   7.366  -3.860  11.898
13933CHOL    R251679   7.400  -3.962  12.105
13933CHOL    R351680   7.337  -4.036  11.920
13933CHOL    R451681   7.377  -4.099  12.122
13933CHOL    R551682   7.311  -4.192  11.940
13933CHOL    C151683   7.272  -4.427  11.970
13933CHOL    C251684   7.233  -4.662  12.000
13934CHOL   ROH51685  -0.567  14.279  18.381
13934CHOL    R151686  -0.681  14.330  18.481
13934CHOL    R251687  -0.699  14.244  18.697
13934CHOL    R351688  -0.809  14.387  18.593
13934CHOL    R451689  -0.799  14.288  18.784
13934CHOL    R551690  -0.923  14.438  18.693
13934CHOL    C151691  -1.095  14.515  18.843
13934CHOL    C251692  -1.266  14.592  18.993
13935CHOL   ROH51693   1.001   7.879  -0.754
13935CHOL    R151694   0.899   7.860  -0.875
13935CHOL    R251695   0.882   7.656  -0.987
13935CHOL    R351696   0.783   7.839  -1.012
13935CHOL    R451697   0.792   7.639  -1.093
13935CHOL    R551698   0.681   7.820  -1.134
13935CHOL    C151699   0.527   7.791  -1.316
13935CHOL    C251700   0.374   7.762  -1.498
13936CHOL   ROH51701  23.510   8.857  13.122
13936CHOL    R151702  23.666   8.846  13.153
13936CHOL    R251703  23.801   8.695  13.037
13936CHOL    R351704  23.843   8.833  13.188
13936CHOL    R451705  23.938   8.685  13.064
13936CHOL    R551706  23.999   8.822  13.219
13936CHOL    C151707  24.234   8.804  13.266
13936CHOL    C251708  24.468   8.787  13.313
13937CHOL   ROH51709  17.087  -2.044  10.356
13937CHOL    R151710  17.168  -2.182  10.363
13937CHOL    R251711  17.387  -2.196  10.283
13937CHOL    R351712  17.260  -2.336  10.371
13937CHOL    R451713  17.458  -2.317  10.289
13937CHOL    R551714  17.341  -2.474  10.378
13937CHOL    C151715  17.463  -2.680  10.389
13937CHOL    C251716  17.585  -2.887  10.399
13938CHOL   ROH51717  13.858   5.841  -2.872
13938CHOL    R151718  13.910   5.797  -3.017
13938CHOL    R251719  13.798   5.863  -3.210
13938CHOL    R351720  13.970   5.747  -3.179
13938CHOL    R451721  13.844   5.824  -3.337
13938CHOL    R551722  14.022   5.703  -3.324
13938CHOL    C151723  14.101   5.637  -3.541
13938CHOL    C251724  14.179   5.571  -3.758
13939CHOL   ROH51725   3.226  19.261   1.694
13939CHOL    R151726   3.150  19.372   1.607
13939CHOL    R251727   3.181  19.599   1.650
13939CHOL    R351728   3.065  19.497   1.510
13939CHOL    R451729   3.114  19.696   1.575
13939CHOL    R551730   2.989  19.608   1.424
13939CHOL    C151731   2.875  19.775   1.294
13939CHOL    C251732   2.761  19.941   1.164
13940CHOL   ROH51733  21.288   6.009  16.986
13940CHOL    R151734  21.417   5.968  17.071
13940CHOL    R251735  21.550   5.787  17.008
13940CHOL    R351736  21.562   5.921  17.167
13940CHOL    R451737  21.663   5.751  17.082
13940CHOL    R551738  21.691   5.880  17.252
13940CHOL    C151739  21.885   5.818  17.380
13940CHOL    C251740  22.079   5.756  17.507
13941CHOL   ROH51741  -3.414  14.010   7.863
13941CHOL    R151742  -3.565  14.054   7.833
13941CHOL    R251743  -3.686  14.180   7.987
13941CHOL    R351744  -3.735  14.103   7.799
13941CHOL    R451745  -3.818  14.218   7.961
13941CHOL    R551746  -3.886  14.147   7.770
13941CHOL    C151747  -4.113  14.212   7.725
13941CHOL    C251748  -4.339  14.278   7.680
13942CHOL   ROH51749   3.054  15.599  20.805
13942CHOL    R151750   2.971  15.661  20.927
13942CHOL    R251751   3.074  15.793  21.088
13942CHOL    R351752   2.877  15.730  21.064
13942CHOL    R451753   3.001  15.848  21.195
13942CHOL    R551754   2.793  15.792  21.186
13942CHOL    C151755   2.668  15.885  21.369
13942CHOL    C251756   2.543  15.977  21.552
13943CHOL   ROH51757   9.454  13.776  -3.595
13943CHOL    R151758   9.452  13.820  -3.749
13943CHOL    R251759   9.565  13.696  -3.910
13943CHOL    R351760   9.451  13.870  -3.922
13943CHOL    R451761   9.564  13.734  -4.045
13943CHOL    R551762   9.449  13.914  -4.075
13943CHOL    C151763   9.447  13.980  -4.306
13943CHOL    C251764   9.444  14.046  -4.537
13944CHOL   ROH51765   6.595  21.355   2.429
13944CHOL    R151766   6.559  21.483   2.340
13944CHOL    R251767   6.597  21.699   2.420
13944CHOL    R351768   6.518  21.627   2.240
13944CHOL    R451769   6.565  21.811   2.342
13944CHOL    R551770   6.481  21.755   2.151
13944CHOL    C151771   6.427  21.947   2.018
13944CHOL    C251772   6.373  22.139   1.884
13945CHOL   ROH51773  -2.843  13.598   5.346
13945CHOL    R151774  -2.989  13.641   5.295
13945CHOL    R251775  -3.133  13.762   5.433
13945CHOL    R351776  -3.152  13.688   5.238
13945CHOL    R451777  -3.260  13.799   5.388
13945CHOL    R551778  -3.298  13.731   5.188
13945CHOL    C151779  -3.516  13.795   5.111
13945CHOL    C251780  -3.735  13.859   5.035
13946CHOL   ROH51781  20.623   6.486  18.161
13946CHOL    R151782  20.747   6.447  18.254
13946CHOL    R251783  20.868   6.251  18.217
13946CHOL    R351784  20.886   6.402  18.359
13946CHOL    R451785  20.976   6.216  18.299
13946CHOL    R551786  21.010   6.363  18.452
13946CHOL    C151787  21.196   6.304  18.592
13946CHOL    C251788  21.382   6.245  18.732
13947CHOL   ROH51789  22.836  11.613  15.050
13947CHOL    R151790  22.985  11.636  15.105
13947CHOL    R251791  23.149  11.471  15.078
13947CHOL    R351792  23.152  11.661  15.166
13947CHOL    R451793  23.279  11.491  15.126
13947CHOL    R551794  23.301  11.683  15.220
13947CHOL    C151795  23.524  11.717  15.302
13947CHOL    C251796  23.747  11.751  15.384
13948CHOL   ROH51797   9.785  13.627  23.488
13948CHOL    R151798   9.786  13.671  23.642
13948CHOL    R251799   9.909  13.552  23.800
13948CHOL    R351800   9.787  13.722  23.815
13948CHOL    R451801   9.910  13.591  23.935
13948CHOL    R551802   9.788  13.766  23.969
13948CHOL    C151803   9.790  13.833  24.199
13948CHOL    C251804   9.792  13.899  24.430
13949CHOL   ROH51805  10.659  23.986   9.358
13949CHOL    R151806  10.667  24.146   9.353
13949CHOL    R251807  10.857  24.254   9.273
13949CHOL    R351808  10.675  24.325   9.346
13949CHOL    R451809  10.864  24.394   9.269
13949CHOL    R551810  10.682  24.485   9.341
13949CHOL    C151811  10.694  24.725   9.333
13949CHOL    C251812  10.705  24.964   9.325
13950CHOL   ROH51813  14.952  22.877  12.142
13950CHOL    R151814  15.014  23.023  12.164
13950CHOL    R251815  15.208  23.053  12.291
13950CHOL    R351816  15.084  23.187  12.189
13950CHOL    R451817  15.262  23.180  12.311
13950CHOL    R551818  15.146  23.332  12.211
13950CHOL    C151819  15.240  23.551  12.244
13950CHOL    C251820  15.333  23.770  12.277
13951CHOL   ROH51821  -0.390   8.800  19.466
13951CHOL    R151822  -0.508   8.790  19.574
13951CHOL    R251823  -0.466   8.823  19.801
13951CHOL    R351824  -0.641   8.780  19.694
13951CHOL    R451825  -0.570   8.814  19.895
13951CHOL    R551826  -0.759   8.770  19.802
13951CHOL    C151827  -0.936   8.756  19.963
13951CHOL    C251828  -1.113   8.741  20.125
13952CHOL   ROH51829  22.206   8.333   3.425
13952CHOL    R151830  22.347   8.318   3.351
13952CHOL    R251831  22.414   8.113   3.262
13952CHOL    R351832  22.505   8.301   3.267
13952CHOL    R451833  22.537   8.099   3.197
13952CHOL    R551834  22.646   8.285   3.192
13952CHOL    C151835  22.857   8.263   3.081
13952CHOL    C251836  23.068   8.240   2.969
13953CHOL   ROH51837  23.170   6.936   6.684
13953CHOL    R151838  23.323   6.905   6.648
13953CHOL    R251839  23.408   6.956   6.437
13953CHOL    R351840  23.494   6.870   6.606
13953CHOL    R451841  23.542   6.929   6.405
13953CHOL    R551842  23.647   6.839   6.570
13953CHOL    C151843  23.876   6.792   6.515
13953CHOL    C251844  24.105   6.746   6.461
13954CHOL   ROH51845  23.537  11.884   7.216
13954CHOL    R151846  23.694  11.898   7.187
13954CHOL    R251847  23.774  11.914   6.968
13954CHOL    R351848  23.870  11.914   7.153
13954CHOL    R451849  23.911  11.926   6.942
13954CHOL    R551850  24.026  11.928   7.124
13954CHOL    C151851  24.261  11.948   7.080
13954CHOL    C251852  24.496  11.969   7.036
13955CHOL   ROH51853  21.721  13.688   3.343
13955CHOL    R151854  21.855  13.728   3.265
13955CHOL    R251855  21.862  13.733   3.032
13955CHOL    R351856  22.006  13.773   3.178
13955CHOL    R451857  21.979  13.768   2.964
13955CHOL    R551858  22.140  13.813   3.100
13955CHOL    C151859  22.341  13.873   2.984
13955CHOL    C251860  22.542  13.933   2.868
13956CHOL   ROH51861  14.559  16.066  -1.831
13956CHOL    R151862  14.611  16.136  -1.965
13956CHOL    R251863  14.699  16.009  -2.140
13956CHOL    R351864  14.670  16.214  -2.117
13956CHOL    R451865  14.745  16.070  -2.258
13956CHOL    R551866  14.722  16.284  -2.251
13956CHOL    C151867  14.800  16.388  -2.453
13956CHOL    C251868  14.878  16.492  -2.654
13957CHOL   ROH51869   9.357  12.783  -3.839
13957CHOL    R151870   9.353  12.815  -3.996
13957CHOL    R251871   9.508  12.721  -4.142
13957CHOL    R351872   9.349  12.852  -4.172
13957CHOL    R451873   9.505  12.749  -4.279
13957CHOL    R551874   9.345  12.885  -4.329
13957CHOL    C151875   9.339  12.933  -4.563
13957CHOL    C251876   9.333  12.982  -4.798
13958CHOL   ROH51877  13.158  -3.369   6.940
13958CHOL    R151878  13.205  -3.518   6.905
13958CHOL    R251879  13.345  -3.636   7.050
13958CHOL    R351880  13.258  -3.686   6.867
13958CHOL    R451881  13.386  -3.766   7.020
13958CHOL    R551882  13.306  -3.834   6.832
13958CHOL    C151883  13.376  -4.058   6.780
13958CHOL    C251884  13.447  -4.281   6.728
13959CHOL   ROH51885   7.280  19.912  19.450
13959CHOL    R151886   7.249  20.024  19.560
13959CHOL    R251887   7.376  20.218  19.574
13959CHOL    R351888   7.213  20.149  19.685
13959CHOL    R451889   7.349  20.316  19.670
13959CHOL    R551890   7.182  20.261  19.795
13959CHOL    C151891   7.135  20.428  19.961
13959CHOL    C251892   7.088  20.595  20.126
13960CHOL   ROH51893  23.333  12.293  13.042
13960CHOL    R151894  23.486  12.320  13.079
13960CHOL    R251895  23.582  12.530  13.051
13960CHOL    R351896  23.659  12.349  13.121
13960CHOL    R451897  23.716  12.554  13.084
13960CHOL    R551898  23.812  12.376  13.159
13960CHOL    C151899  24.042  12.416  13.214
13960CHOL    C251900  24.272  12.456  13.270
13961CHOL   ROH51901  14.143  23.349   9.724
13961CHOL    R151902  14.197  23.499   9.719
13961CHOL    R251903  14.237  23.607   9.516
13961CHOL    R351904  14.259  23.669   9.714
13961CHOL    R451905  14.284  23.738   9.512
13961CHOL    R551906  14.313  23.819   9.710
13961CHOL    C151907  14.395  24.045   9.703
13961CHOL    C251908  14.476  24.270   9.696
13962CHOL   ROH51909  13.634  -1.525  17.091
13962CHOL    R151910  13.677  -1.655  17.174
13962CHOL    R251911  13.868  -1.654  17.309
13962CHOL    R351912  13.725  -1.801  17.268
13962CHOL    R451913  13.905  -1.767  17.381
13962CHOL    R551914  13.768  -1.931  17.351
13962CHOL    C151915  13.832  -2.125  17.476
13962CHOL    C251916  13.897  -2.320  17.601
13963CHOL   ROH51917  15.391  -2.506  13.181
13963CHOL    R151918  15.454  -2.648  13.218
13963CHOL    R251919  15.592  -2.674  13.405
13963CHOL    R351920  15.525  -2.809  13.260
13963CHOL    R451921  15.647  -2.798  13.437
13963CHOL    R551922  15.588  -2.951  13.297
13963CHOL    C151923  15.682  -3.165  13.353
13963CHOL    C251924  15.776  -3.378  13.408
13964CHOL   ROH51925   9.040  19.812  -0.016
13964CHOL    R151926   9.030  19.925  -0.129
13964CHOL    R251927   9.182  20.102  -0.135
13964CHOL    R351928   9.020  20.052  -0.256
13964CHOL    R451929   9.174  20.200  -0.234
13964CHOL    R551930   9.010  20.165  -0.369
13964CHOL    C151931   8.996  20.334  -0.539
13964CHOL    C251932   8.981  20.503  -0.709
13965CHOL   ROH51933  15.796   2.553  20.288
13965CHOL    R151934  15.866   2.468  20.404
13965CHOL    R251935  16.012   2.293  20.354
13965CHOL    R351936  15.945   2.373  20.535
13965CHOL    R451937  16.073   2.219  20.456
13965CHOL    R551938  16.015   2.288  20.651
13965CHOL    C151939  16.119   2.161  20.825
13965CHOL    C251940  16.224   2.034  20.999
13966CHOL   ROH51941   9.741  -3.732  13.034
13966CHOL    R151942   9.742  -3.889  13.063
13966CHOL    R251943   9.855  -4.037  12.923
13966CHOL    R351944   9.742  -4.066  13.096
13966CHOL    R451945   9.856  -4.175  12.948
13966CHOL    R551946   9.743  -4.223  13.125
13966CHOL    C151947   9.744  -4.459  13.169
13966CHOL    C251948   9.745  -4.695  13.213
13967CHOL   ROH51949   7.670  16.527  -2.345
13967CHOL    R151950   7.645  16.597  -2.486
13967CHOL    R251951   7.772  16.540  -2.673
13967CHOL    R351952   7.616  16.676  -2.646
13967CHOL    R451953   7.750  16.602  -2.797
13967CHOL    R551954   7.591  16.746  -2.787
13967CHOL    C151955   7.553  16.852  -2.999
13967CHOL    C251956   7.515  16.957  -3.211
13968CHOL   ROH51957  18.558  20.504  13.056
13968CHOL    R151958  18.661  20.619  13.100
13968CHOL    R251959  18.827  20.577  13.257
13968CHOL    R351960  18.776  20.748  13.149
13968CHOL    R451961  18.917  20.678  13.296
13968CHOL    R551962  18.879  20.863  13.193
13968CHOL    C151963  19.032  21.035  13.258
13968CHOL    C251964  19.186  21.208  13.324
13969CHOL   ROH51965  17.921   9.686  -1.554
13969CHOL    R151966  18.010   9.682  -1.687
13969CHOL    R251967  17.912   9.705  -1.897
13969CHOL    R351968  18.110   9.678  -1.837
13969CHOL    R451969  17.990   9.702  -2.014
13969CHOL    R551970  18.199   9.675  -1.969
13969CHOL    C151971  18.332   9.669  -2.169
13969CHOL    C251972  18.466   9.663  -2.368
13970CHOL   ROH51973   4.443  -1.475   3.754
13970CHOL    R151974   4.382  -1.605   3.683
13970CHOL    R251975   4.483  -1.698   3.495
13970CHOL    R351976   4.313  -1.751   3.604
13970CHOL    R451977   4.430  -1.812   3.433
13970CHOL    R551978   4.252  -1.882   3.534
13970CHOL    C151979   4.161  -2.077   3.428
13970CHOL    C251980   4.070  -2.272   3.322
13971CHOL   ROH51981  14.988  -2.743  12.915
13971CHOL    R151982  15.047  -2.888  12.950
13971CHOL    R251983  15.208  -2.915  13.117
13971CHOL    R351984  15.113  -3.050  12.990
13971CHOL    R451985  15.259  -3.041  13.147
13971CHOL    R551986  15.172  -3.195  13.025
13971CHOL    C151987  15.260  -3.412  13.078
13971CHOL    C251988  15.348  -3.629  13.131
13972CHOL   ROH51989   0.369  15.248  18.832
13972CHOL    R151990   0.266  15.308  18.939
13972CHOL    R251991   0.299  15.521  19.029
13972CHOL    R351992   0.151  15.377  19.059
13972CHOL    R451993   0.209  15.574  19.123
13972CHOL    R551994   0.048  15.437  19.166
13972CHOL    C151995  -0.105  15.528  19.326
13972CHOL    C251996  -0.259  15.618  19.487
13973CHOL   ROH51997  13.564  -3.218  13.004
13973CHOL    R151998  13.607  -3.368  13.040
13973CHOL    R251999  13.759  -3.410  13.213
13973CHOL    R352000  13.656  -3.536  13.082
13973CHOL    R452001  13.797  -3.541  13.245
13973CHOL    R552002  13.699  -3.685  13.118
13973CHOL    C152003  13.765  -3.910  13.173
13973CHOL    C252004  13.830  -4.134  13.227
13974CHOL   ROH52005   8.071  -1.486  17.864
13974CHOL    R152006   8.051  -1.617  17.954
13974CHOL    R252007   8.178  -1.809  17.916
13974CHOL    R352008   8.029  -1.764  18.054
13974CHOL    R452009   8.161  -1.924  17.994
13974CHOL    R552010   8.009  -1.896  18.144
13974CHOL    C152011   7.979  -2.092  18.278
13974CHOL    C252012   7.949  -2.289  18.413
13975CHOL   ROH52013  18.912  18.188   3.119
13975CHOL    R152014  19.012  18.285   3.041
13975CHOL    R252015  19.047  18.262   2.812
13975CHOL    R352016  19.125  18.394   2.953
13975CHOL    R452017  19.135  18.347   2.743
13975CHOL    R552018  19.225  18.492   2.875
13975CHOL    C152019  19.376  18.637   2.758
13975CHOL    C252020  19.526  18.783   2.641
13976CHOL   ROH52021  -2.723   4.390  12.548
13976CHOL    R152022  -2.867   4.328  12.578
13976CHOL    R252023  -2.973   4.361  12.783
13976CHOL    R352024  -3.030   4.258  12.611
13976CHOL    R452025  -3.099   4.307  12.809
13976CHOL    R552026  -3.174   4.195  12.641
13976CHOL    C152027  -3.390   4.102  12.686
13976CHOL    C252028  -3.607   4.009  12.730
13977CHOL   ROH52029  -3.517  12.199  13.756
13977CHOL    R152030  -3.670  12.222  13.797
13977CHOL    R252031  -3.749  12.156  14.007
13977CHOL    R352032  -3.842  12.247  13.844
13977CHOL    R452033  -3.883  12.176  14.043
13977CHOL    R552034  -3.995  12.270  13.885
13977CHOL    C152035  -4.224  12.303  13.947
13977CHOL    C252036  -4.454  12.337  14.009
13978CHOL   ROH52037   5.011  18.302  20.157
13978CHOL    R152038   4.959  18.399  20.273
13978CHOL    R252039   4.989  18.345  20.498
13978CHOL    R352040   4.900  18.509  20.403
13978CHOL    R452041   4.943  18.430  20.599
13978CHOL    R552042   4.848  18.606  20.519
13978CHOL    C152043   4.770  18.752  20.693
13978CHOL    C252044   4.692  18.898  20.867
13979CHOL   ROH52045  13.177   2.816  21.591
13979CHOL    R152046  13.213   2.728  21.720
13979CHOL    R252047  13.429   2.646  21.752
13979CHOL    R352048  13.255   2.630  21.865
13979CHOL    R452049  13.461   2.570  21.865
13979CHOL    R552050  13.291   2.543  21.994
13979CHOL    C152051  13.346   2.411  22.187
13979CHOL    C252052  13.400   2.280  22.381
13980CHOL   ROH52053  17.389  16.867  19.561
13980CHOL    R152054  17.477  16.938  19.673
13980CHOL    R252055  17.709  16.915  19.676
13980CHOL    R352056  17.577  17.019  19.800
13980CHOL    R452057  17.787  16.977  19.775
13980CHOL    R552058  17.666  17.090  19.912
13980CHOL    C152059  17.798  17.197  20.081
13980CHOL    C252060  17.931  17.304  20.250
13981CHOL   ROH52061   7.186  23.039  14.415
13981CHOL    R152062   7.152  23.187  14.467
13981CHOL    R252063   7.225  23.260  14.676
13981CHOL    R352064   7.115  23.352  14.526
13981CHOL    R452065   7.196  23.389  14.722
13981CHOL    R552066   7.081  23.500  14.578
13981CHOL    C152067   7.031  23.721  14.656
13981CHOL    C252068   6.980  23.943  14.734
13982CHOL   ROH52069  23.367   9.540  13.898
13982CHOL    R152070  23.522   9.537  13.938
13982CHOL    R252071  23.682   9.452  13.792
13982CHOL    R352072  23.696   9.534  13.984
13982CHOL    R452073  23.818   9.449  13.828
13982CHOL    R552074  23.850   9.531  14.024
13982CHOL    C152075  24.083   9.527  14.085
13982CHOL    C252076  24.315   9.522  14.146
13983CHOL   ROH52077  15.341   2.591  -0.765
13983CHOL    R152078  15.404   2.503  -0.883
13983CHOL    R252079  15.360   2.554  -1.107
13983CHOL    R352080  15.474   2.404  -1.016
13983CHOL    R452081  15.414   2.477  -1.210
13983CHOL    R552082  15.537   2.317  -1.134
13983CHOL    C152083  15.631   2.185  -1.312
13983CHOL    C252084  15.725   2.053  -1.489
13984CHOL   ROH52085   3.362  20.463   3.314
13984CHOL    R152086   3.284  20.583   3.242
13984CHOL    R252087   3.392  20.784   3.195
13984CHOL    R352088   3.197  20.718   3.162
13984CHOL    R452089   3.324  20.890   3.132
13984CHOL    R552090   3.119  20.839   3.090
13984CHOL    C152091   3.002  21.019   2.982
13984CHOL    C252092   2.886  21.199   2.875
13985CHOL   ROH52093  20.634  12.761  18.508
13985CHOL    R152094  20.749  12.795  18.614
13985CHOL    R252095  20.895  12.973  18.578
13985CHOL    R352096  20.879  12.833  18.732
13985CHOL    R452097  20.996  13.003  18.671
13985CHOL    R552098  20.994  12.867  18.838
13985CHOL    C152099  21.167  12.919  18.996
13985CHOL    C252100  21.340  12.970  19.155
13986CHOL   ROH52101   1.258  16.223   0.674
13986CHOL    R152102   1.161  16.292   0.568
13986CHOL    R252103   1.210  16.503   0.479
13986CHOL    R352104   1.051  16.371   0.448
13986CHOL    R452105   1.124  16.563   0.386
13986CHOL    R552106   0.953  16.440   0.342
13986CHOL    C152107   0.807  16.544   0.183
13986CHOL    C252108   0.661  16.648   0.023
13987CHOL   ROH52109  -2.557  13.298   4.367
13987CHOL    R152110  -2.700  13.339   4.308
13987CHOL    R252111  -2.862  13.437   4.444
13987CHOL    R352112  -2.861  13.385   4.242
13987CHOL    R452113  -2.987  13.473   4.392
13987CHOL    R552114  -3.004  13.426   4.182
13987CHOL    C152115  -3.219  13.487   4.094
13987CHOL    C252116  -3.433  13.549   4.005
13988CHOL   ROH52117   6.306   6.818  -3.311
13988CHOL    R152118   6.272   6.785  -3.464
13988CHOL    R252119   6.250   6.564  -3.537
13988CHOL    R352120   6.233   6.747  -3.635
13988CHOL    R452121   6.220   6.535  -3.670
13988CHOL    R552122   6.199   6.714  -3.788
13988CHOL    C152123   6.147   6.664  -4.017
13988CHOL    C252124   6.095   6.614  -4.246
13989CHOL   ROH52125  23.247   9.553  14.320
13989CHOL    R152126  23.400   9.550  14.367
13989CHOL    R252127  23.563   9.444  14.238
13989CHOL    R352128  23.572   9.547  14.420
13989CHOL    R452129  23.697   9.442  14.279
13989CHOL    R552130  23.725   9.543  14.467
13989CHOL    C152131  23.954   9.539  14.538
13989CHOL    C252132  24.184   9.534  14.608
13990CHOL   ROH52133  15.502   0.992  19.134
13990CHOL    R152134  15.566   0.889  19.239
13990CHOL    R252135  15.598   0.665  19.183
13990CHOL    R352136  15.638   0.774  19.356
13990CHOL    R452137  15.654   0.575  19.274
13990CHOL    R552138  15.702   0.671  19.461
13990CHOL    C152139  15.798   0.517  19.618
13990CHOL    C252140  15.894   0.363  19.775
13991CHOL   ROH52141  10.582  -3.509  13.885
13991CHOL    R152142  10.594  -3.663  13.926
13991CHOL    R252143  10.798  -3.755  13.991
13991CHOL    R352144  10.607  -3.837  13.971
13991CHOL    R452145  10.808  -3.890  14.027
13991CHOL    R552146  10.619  -3.991  14.012
13991CHOL    C152147  10.637  -4.222  14.073
13991CHOL    C252148  10.655  -4.454  14.134
13992CHOL   ROH52149   5.727  -0.930  17.779
13992CHOL    R152150   5.679  -1.054  17.869
13992CHOL    R252151   5.774  -1.265  17.841
13992CHOL    R352152   5.626  -1.193  17.969
13992CHOL    R452153   5.733  -1.373  17.920
13992CHOL    R552154   5.579  -1.317  18.059
13992CHOL    C152155   5.507  -1.502  18.193
13992CHOL    C252156   5.436  -1.688  18.328
13993CHOL   ROH52157   2.148  21.522   8.561
13993CHOL    R152158   2.060  21.654   8.542
13993CHOL    R252159   1.964  21.762   8.726
13993CHOL    R352160   1.960  21.803   8.521
13993CHOL    R452161   1.887  21.878   8.709
13993CHOL    R552162   1.872  21.935   8.502
13993CHOL    C152163   1.740  22.133   8.474
13993CHOL    C252164   1.607  22.331   8.445
13994CHOL   ROH52165  22.280  15.500   6.482
13994CHOL    R152166  22.421  15.567   6.447
13994CHOL    R252167  22.584  15.448   6.331
13994CHOL    R352168  22.580  15.642   6.408
13994CHOL    R452169  22.708  15.506   6.300
13994CHOL    R552170  22.721  15.708   6.373
13994CHOL    C152171  22.933  15.809   6.321
13994CHOL    C252172  23.144  15.909   6.268
13995CHOL   ROH52173   1.076  19.563   4.729
13995CHOL    R152174   0.981  19.678   4.671
13995CHOL    R252175   1.063  19.891   4.627
13995CHOL    R352176   0.873  19.806   4.605
13995CHOL    R452177   0.979  19.992   4.576
13995CHOL    R552178   0.778  19.921   4.547
13995CHOL    C152179   0.635  20.093   4.460
13995CHOL    C252180   0.492  20.265   4.372
13996CHOL   ROH52181  10.287  -3.688  13.190
13996CHOL    R152182  10.294  -3.845  13.222
13996CHOL    R252183  10.396  -3.993  13.073
13996CHOL    R352184  10.303  -4.021  13.258
13996CHOL    R452185  10.402  -4.130  13.101
13996CHOL    R552186  10.310  -4.177  13.289
13996CHOL    C152187  10.321  -4.412  13.337
13996CHOL    C252188  10.332  -4.647  13.385
13997CHOL   ROH52189   1.228  21.003  11.719
13997CHOL    R152190   1.130  21.128  11.735
13997CHOL    R252191   1.212  21.346  11.734
13997CHOL    R352192   1.019  21.269  11.753
13997CHOL    R452193   1.127  21.456  11.748
13997CHOL    R552194   0.921  21.394  11.768
13997CHOL    C152195   0.774  21.582  11.792
13997CHOL    C252196   0.626  21.770  11.816
13998CHOL   ROH52197  16.060  17.956  19.762
13998CHOL    R152198  16.131  18.043  19.876
13998CHOL    R252199  16.241  18.242  19.825
13998CHOL    R352200  16.211  18.140  20.005
13998CHOL    R452201  16.303  18.318  19.925
13998CHOL    R552202  16.283  18.226  20.119
13998CHOL    C152203  16.389  18.356  20.290
13998CHOL    C252204  16.496  18.486  20.462
13999CHOL   ROH52205  16.933   2.368   0.452
13999CHOL    R152206  17.019   2.284   0.346
13999CHOL    R252207  17.029   2.348   0.122
13999CHOL    R352208  17.115   2.189   0.227
13999CHOL    R452209  17.104   2.274   0.030
13999CHOL    R552210  17.201   2.105   0.121
13999CHOL    C152211  17.329   1.979  -0.037
13999CHOL    C252212  17.457   1.853  -0.196
14000CHOL   ROH52213   0.561   4.634   0.860
14000CHOL    R152214   0.460   4.570   0.754
14000CHOL    R252215   0.315   4.398   0.815
14000CHOL    R352216   0.347   4.498   0.634
14000CHOL    R452217   0.226   4.342   0.722
14000CHOL    R552218   0.246   4.434   0.528
14000CHOL    C152219   0.095   4.337   0.368
14000CHOL    C252220  -0.056   4.241   0.208
14001CHOL   ROH52221   4.963   7.946  22.998
14001CHOL    R152222   4.912   7.921  23.148
14001CHOL    R252223   5.055   7.836  23.311
14001CHOL    R352224   4.854   7.893  23.316
14001CHOL    R452225   5.010   7.814  23.442
14001CHOL    R552226   4.803   7.867  23.466
14001CHOL    C152227   4.726   7.830  23.690
14001CHOL    C252228   4.649   7.792  23.914
14002CHOL   ROH52229   3.662   2.961  -0.451
14002CHOL    R152230   3.588   2.878  -0.566
14002CHOL    R252231   3.403   2.745  -0.519
14002CHOL    R352232   3.506   2.785  -0.696
14002CHOL    R452233   3.338   2.673  -0.620
14002CHOL    R552234   3.432   2.702  -0.812
14002CHOL    C152235   3.322   2.578  -0.985
14002CHOL    C252236   3.211   2.453  -1.158
14003CHOL   ROH52237  23.763   8.869   8.986
14003CHOL    R152238  23.922   8.857   8.976
14003CHOL    R252239  24.042   8.979   8.818
14003CHOL    R352240  24.102   8.845   8.966
14003CHOL    R452241  24.182   8.969   8.809
14003CHOL    R552242  24.261   8.833   8.956
14003CHOL    C152243  24.500   8.816   8.942
14003CHOL    C252244  24.739   8.798   8.927
14004CHOL   ROH52245   1.468  19.154  16.538
14004CHOL    R152246   1.370  19.256  16.612
14004CHOL    R252247   1.402  19.312  16.836
14004CHOL    R352248   1.260  19.372  16.695
14004CHOL    R452249   1.316  19.402  16.901
14004CHOL    R552250   1.161  19.474  16.769
14004CHOL    C152251   1.014  19.628  16.881
14004CHOL    C252252   0.867  19.781  16.992
14005CHOL   ROH52253   9.797  -4.031  10.010
14005CHOL    R152254   9.794  -4.191  10.011
14005CHOL    R252255   9.956  -4.315   9.898
14005CHOL    R352256   9.791  -4.371  10.013
14005CHOL    R452257   9.953  -4.455   9.899
14005CHOL    R552258   9.788  -4.531  10.014
14005CHOL    C152259   9.784  -4.771  10.017
14005CHOL    C252260   9.779  -5.011  10.019
14006CHOL   ROH52261  -3.115   4.778   9.121
14006CHOL    R152262  -3.263   4.719   9.109
14006CHOL    R252263  -3.311   4.499   9.171
14006CHOL    R352264  -3.430   4.653   9.094
14006CHOL    R452265  -3.440   4.448   9.160
14006CHOL    R552266  -3.578   4.593   9.082
14006CHOL    C152267  -3.800   4.505   9.063
14006CHOL    C252268  -4.022   4.416   9.045
14007CHOL   ROH52269   3.507  -2.061  13.461
14007CHOL    R152270   3.435  -2.199  13.499
14007CHOL    R252271   3.555  -2.399  13.506
14007CHOL    R352272   3.354  -2.354  13.541
14007CHOL    R452273   3.491  -2.519  13.539
14007CHOL    R552274   3.281  -2.491  13.579
14007CHOL    C152275   3.173  -2.698  13.636
14007CHOL    C252276   3.065  -2.905  13.692
14008CHOL   ROH52277  11.217  18.851  20.751
14008CHOL    R152278  11.234  18.954  20.872
14008CHOL    R252279  11.445  18.998  20.963
14008CHOL    R352280  11.254  19.069  21.009
14008CHOL    R452281  11.460  19.088  21.069
14008CHOL    R552282  11.271  19.171  21.131
14008CHOL    C152283  11.298  19.325  21.313
14008CHOL    C252284  11.324  19.479  21.495
14009CHOL   ROH52285   8.486   4.510  -2.913
14009CHOL    R152286   8.476   4.451  -3.061
14009CHOL    R252287   8.663   4.446  -3.201
14009CHOL    R352288   8.466   4.385  -3.229
14009CHOL    R452289   8.655   4.394  -3.331
14009CHOL    R552290   8.456   4.326  -3.377
14009CHOL    C152291   8.442   4.238  -3.600
14009CHOL    C252292   8.427   4.149  -3.822
14010CHOL   ROH52293   6.078  20.802   1.884
14010CHOL    R152294   6.037  20.926   1.792
14010CHOL    R252295   6.090  21.145   1.854
14010CHOL    R352296   5.992  21.066   1.687
14010CHOL    R452297   6.055  21.253   1.773
14010CHOL    R552298   5.951  21.190   1.595
14010CHOL    C152299   5.890  21.376   1.456
14010CHOL    C252300   5.829  21.562   1.318
14011CHOL   ROH52301   7.123   8.617  23.628
14011CHOL    R152302   7.093   8.603  23.784
14011CHOL    R252303   7.267   8.608  23.940
14011CHOL    R352304   7.060   8.586  23.961
14011CHOL    R452305   7.240   8.595  24.077
14011CHOL    R552306   7.030   8.572  24.117
14011CHOL    C152307   6.985   8.550  24.352
14011CHOL    C252308   6.941   8.529  24.586
14012CHOL   ROH52309  10.334  -0.713  18.957
14012CHOL    R152310  10.347  -0.833  19.063
14012CHOL    R252311  10.383  -1.052  18.992
14012CHOL    R352312  10.362  -0.967  19.181
14012CHOL    R452313  10.395  -1.156  19.084
14012CHOL    R552314  10.375  -1.086  19.287
14012CHOL    C152315  10.395  -1.266  19.445
14012CHOL    C252316  10.414  -1.445  19.604
14013CHOL   ROH52317  22.251   8.996  16.453
14013CHOL    R152318  22.390   8.980  16.532
14013CHOL    R252319  22.593   9.013  16.423
14013CHOL    R352320  22.545   8.963  16.620
14013CHOL    R452321  22.715   8.999  16.492
14013CHOL    R552322  22.684   8.947  16.698
14013CHOL    C152323  22.892   8.923  16.816
14013CHOL    C252324  23.100   8.900  16.934
14014CHOL   ROH52325   5.122  10.009  23.112
14014CHOL    R152326   5.076  10.021  23.265
14014CHOL    R252327   5.226   9.984  23.439
14014CHOL    R352328   5.023  10.034  23.436
14014CHOL    R452329   5.185   9.994  23.572
14014CHOL    R552330   4.977  10.046  23.589
14014CHOL    C152331   4.907  10.064  23.818
14014CHOL    C252332   4.838  10.082  24.047
14015CHOL   ROH52333  11.105  -3.575  13.412
14015CHOL    R152334  11.121  -3.730  13.448
14015CHOL    R252335  11.293  -3.857  13.355
14015CHOL    R352336  11.140  -3.904  13.489
14015CHOL    R452337  11.308  -3.993  13.387
14015CHOL    R552338  11.156  -4.059  13.525
14015CHOL    C152339  11.181  -4.292  13.579
14015CHOL    C252340  11.206  -4.525  13.633
14016CHOL   ROH52341  10.068   0.015   0.012
14016CHOL    R152342  10.072  -0.099  -0.101
14016CHOL    R252343  10.209  -0.286  -0.078
14016CHOL    R352344  10.076  -0.226  -0.227
14016CHOL    R452345  10.213  -0.385  -0.176
14016CHOL    R552346  10.080  -0.340  -0.340
14016CHOL    C152347  10.086  -0.510  -0.509
14016CHOL    C252348  10.092  -0.681  -0.678
14017CHOL   ROH52349   4.036  13.803  -2.266
14017CHOL    R152350   3.966  13.846  -2.404
14017CHOL    R252351   3.774  13.977  -2.405
14017CHOL    R352352   3.888  13.893  -2.558
14017CHOL    R452353   3.713  14.015  -2.525
14017CHOL    R552354   3.818  13.936  -2.696
14017CHOL    C152355   3.714  14.000  -2.902
14017CHOL    C252356   3.610  14.064  -3.109
14018CHOL   ROH52357  -2.590  16.061  12.381
14018CHOL    R152358  -2.731  16.131  12.408
14018CHOL    R252359  -2.838  16.109  12.614
14018CHOL    R352360  -2.890  16.210  12.439
14018CHOL    R452361  -2.962  16.170  12.638
14018CHOL    R552362  -3.032  16.280  12.466
14018CHOL    C152363  -3.243  16.385  12.508
14018CHOL    C252364  -3.455  16.490  12.549
14019CHOL   ROH52365  21.806  16.383  13.694
14019CHOL    R152366  21.941  16.459  13.734
14019CHOL    R252367  22.002  16.658  13.629
14019CHOL    R352368  22.093  16.545  13.779
14019CHOL    R452369  22.120  16.725  13.664
14019CHOL    R552370  22.228  16.621  13.819
14019CHOL    C152371  22.431  16.735  13.878
14019CHOL    C252372  22.633  16.849  13.938
14020CHOL   ROH52373  -3.431  11.707  14.286
14020CHOL    R152374  -3.583  11.723  14.333
14020CHOL    R252375  -3.642  11.700  14.558
14020CHOL    R352376  -3.754  11.741  14.387
14020CHOL    R452377  -3.775  11.714  14.599
14020CHOL    R552378  -3.906  11.757  14.434
14020CHOL    C152379  -4.134  11.782  14.505
14020CHOL    C252380  -4.362  11.806  14.576
14021CHOL   ROH52381   5.804  17.774  -1.117
14021CHOL    R152382   5.760  17.862  -1.243
14021CHOL    R252383   5.895  17.877  -1.432
14021CHOL    R352384   5.710  17.960  -1.385
14021CHOL    R452385   5.857  17.954  -1.543
14021CHOL    R552386   5.665  18.048  -1.512
14021CHOL    C152387   5.599  18.180  -1.701
14021CHOL    C252388   5.533  18.311  -1.890
14022CHOL   ROH52389  23.477   6.494   9.794
14022CHOL    R152390  23.633   6.461   9.791
14022CHOL    R252391  23.740   6.400   9.593
14022CHOL    R352392  23.810   6.423   9.789
14022CHOL    R452393  23.877   6.371   9.591
14022CHOL    R552394  23.966   6.390   9.786
14022CHOL    C152395  24.201   6.340   9.782
14022CHOL    C252396  24.435   6.290   9.778
14023CHOL   ROH52397  -1.460  13.333  17.631
14023CHOL    R152398  -1.589  13.367  17.719
14023CHOL    R252399  -1.574  13.508  17.904
14023CHOL    R352400  -1.734  13.405  17.818
14023CHOL    R452401  -1.687  13.538  17.981
14023CHOL    R552402  -1.864  13.439  17.906
14023CHOL    C152403  -2.057  13.491  18.039
14023CHOL    C252404  -2.251  13.542  18.171
14024CHOL   ROH52405   4.551  11.908  22.753
14024CHOL    R152406   4.498  11.928  22.903
14024CHOL    R252407   4.558  12.115  23.027
14024CHOL    R352408   4.439  11.949  23.071
14024CHOL    R452409   4.512  12.132  23.159
14024CHOL    R552410   4.386  11.969  23.221
14024CHOL    C152411   4.307  11.998  23.446
14024CHOL    C252412   4.228  12.028  23.670
14025CHOL   ROH52413   8.383  21.711  17.589
14025CHOL    R152414   8.364  21.844  17.677
14025CHOL    R252415   8.549  21.962  17.755
14025CHOL    R352416   8.343  21.993  17.775
14025CHOL    R452417   8.532  22.078  17.832
14025CHOL    R552418   8.324  22.125  17.862
14025CHOL    C152419   8.296  22.324  17.994
14025CHOL    C252420   8.268  22.523  18.125
14026CHOL   ROH52421  16.513   0.488  17.846
14026CHOL    R152422  16.590   0.382  17.938
14026CHOL    R252423  16.677   0.185  17.848
14026CHOL    R352424  16.678   0.263  18.041
14026CHOL    R452425  16.744   0.093  17.928
14026CHOL    R552426  16.755   0.157  18.133
14026CHOL    C152427  16.871  -0.001  18.271
14026CHOL    C252428  16.987  -0.160  18.409
14027CHOL   ROH52429  14.158  16.715  21.485
14027CHOL    R152430  14.205  16.789  21.619
14027CHOL    R252431  14.331  16.677  21.780
14027CHOL    R352432  14.258  16.872  21.769
14027CHOL    R452433  14.372  16.741  21.897
14027CHOL    R552434  14.306  16.946  21.903
14027CHOL    C152435  14.376  17.057  22.104
14027CHOL    C252436  14.447  17.168  22.304
14028CHOL   ROH52437   6.055  18.855  20.085
14028CHOL    R152438   6.015  18.958  20.201
14028CHOL    R252439   5.975  18.885  20.418
14028CHOL    R352440   5.971  19.074  20.330
14028CHOL    R452441   5.940  18.975  20.519
14028CHOL    R552442   5.931  19.178  20.446
14028CHOL    C152443   5.871  19.332  20.619
14028CHOL    C252444   5.812  19.487  20.793
14029CHOL   ROH52445   6.878  23.246   6.127
14029CHOL    R152446   6.849  23.397   6.084
14029CHOL    R252447   6.895  23.472   5.868
14029CHOL    R352448   6.815  23.568   6.036
14029CHOL    R452449   6.869  23.605   5.831
14029CHOL    R552450   6.786  23.719   5.993
14029CHOL    C152451   6.742  23.946   5.929
14029CHOL    C252452   6.698  24.173   5.864
14030CHOL   ROH52453  -0.117  16.882   2.807
14030CHOL    R152454  -0.233  16.959   2.728
14030CHOL    R252455  -0.363  17.121   2.834
14030CHOL    R352456  -0.363  17.046   2.639
14030CHOL    R452457  -0.464  17.188   2.765
14030CHOL    R552458  -0.479  17.123   2.560
14030CHOL    C152459  -0.652  17.239   2.441
14030CHOL    C252460  -0.826  17.354   2.323
14031CHOL   ROH52461  -2.811  14.839  13.717
14031CHOL    R152462  -2.955  14.896  13.756
14031CHOL    R252463  -3.063  14.826  13.951
14031CHOL    R352464  -3.118  14.960  13.800
14031CHOL    R452465  -3.189  14.876  13.985
14031CHOL    R552466  -3.262  15.017  13.839
14031CHOL    C152467  -3.478  15.102  13.898
14031CHOL    C252468  -3.695  15.187  13.957
14032CHOL   ROH52469   8.603  20.649  18.989
14032CHOL    R152470   8.584  20.766  19.096
14032CHOL    R252471   8.564  20.719  19.324
14032CHOL    R352472   8.562  20.898  19.217
14032CHOL    R452473   8.547  20.821  19.417
14032CHOL    R552474   8.543  21.016  19.324
14032CHOL    C152475   8.514  21.191  19.485
14032CHOL    C252476   8.485  21.367  19.646
14033CHOL   ROH52477   9.069  18.437  -1.236
14033CHOL    R152478   9.063  18.538  -1.360
14033CHOL    R252479   9.247  18.669  -1.417
14033CHOL    R352480   9.056  18.652  -1.499
14033CHOL    R452481   9.242  18.758  -1.525
14033CHOL    R552482   9.050  18.754  -1.622
14033CHOL    C152483   9.040  18.905  -1.808
14033CHOL    C252484   9.031  19.057  -1.994
14034CHOL   ROH52485  10.698   4.238  22.747
14034CHOL    R152486  10.701   4.173  22.893
14034CHOL    R252487  10.894   4.177  23.023
14034CHOL    R352488  10.703   4.099  23.057
14034CHOL    R452489  10.897   4.119  23.151
14034CHOL    R552490  10.706   4.034  23.203
14034CHOL    C152491  10.710   3.936  23.423
14034CHOL    C252492  10.714   3.838  23.642
14035CHOL   ROH52493   2.847   1.481   1.367
14035CHOL    R152494   2.770   1.383   1.267
14035CHOL    R252495   2.617   1.226   1.346
14035CHOL    R352496   2.684   1.273   1.153
14035CHOL    R452497   2.550   1.141   1.258
14035CHOL    R552498   2.607   1.175   1.053
14035CHOL    C152499   2.492   1.028   0.902
14035CHOL    C252500   2.377   0.881   0.752
14036CHOL   ROH52501   1.621  19.371   3.585
14036CHOL    R152502   1.530  19.484   3.517
14036CHOL    R252503   1.604  19.599   3.328
14036CHOL    R352504   1.428  19.610   3.439
14036CHOL    R452505   1.525  19.698   3.268
14036CHOL    R552506   1.337  19.723   3.371
14036CHOL    C152507   1.201  19.892   3.268
14036CHOL    C252508   1.065  20.061   3.166
14037CHOL   ROH52509  12.128  -3.847  11.094
14037CHOL    R152510  12.149  -4.005  11.109
14037CHOL    R252511  12.193  -4.138  10.923
14037CHOL    R352512  12.174  -4.182  11.126
14037CHOL    R452513  12.212  -4.276  10.936
14037CHOL    R552514  12.195  -4.340  11.141
14037CHOL    C152515  12.227  -4.577  11.164
14037CHOL    C252516  12.259  -4.813  11.186
14038CHOL   ROH52517   5.157   0.821  19.542
14038CHOL    R152518   5.103   0.713  19.647
14038CHOL    R252519   5.074   0.770  19.872
14038CHOL    R352520   5.043   0.592  19.766
14038CHOL    R452521   5.027   0.675  19.964
14038CHOL    R552522   4.989   0.484  19.872
14038CHOL    C152523   4.908   0.323  20.030
14038CHOL    C252524   4.828   0.161  20.188
14039CHOL   ROH52525   9.539  24.012   9.959
14039CHOL    R152526   9.536  24.172   9.959
14039CHOL    R252527   9.716  24.295   9.876
14039CHOL    R352528   9.533  24.352   9.959
14039CHOL    R452529   9.714  24.435   9.876
14039CHOL    R552530   9.530  24.512   9.960
14039CHOL    C152531   9.526  24.752   9.960
14039CHOL    C252532   9.522  24.992   9.960
14040CHOL   ROH52533   8.048  20.712  18.804
14040CHOL    R152534   8.023  20.829  18.910
14040CHOL    R252535   8.033  20.789  19.139
14040CHOL    R352536   7.995  20.962  19.029
14040CHOL    R452537   8.011  20.891  19.232
14040CHOL    R552538   7.970  21.079  19.135
14040CHOL    C152539   7.933  21.255  19.293
14040CHOL    C252540   7.895  21.431  19.452
14041CHOL   ROH52541   6.493  23.432   7.267
14041CHOL    R152542   6.457  23.585   7.238
14041CHOL    R252543   6.457  23.743   7.410
14041CHOL    R352544   6.417  23.758   7.206
14041CHOL    R452545   6.425  23.877   7.385
14041CHOL    R552546   6.381  23.911   7.178
14041CHOL    C152547   6.327  24.141   7.135
14041CHOL    C252548   6.273  24.371   7.092
14042CHOL   ROH52549  23.268   9.810  14.254
14042CHOL    R152550  23.421   9.813  14.300
14042CHOL    R252551  23.593   9.765  14.148
14042CHOL    R352552  23.594   9.815  14.351
14042CHOL    R452553  23.727   9.768  14.188
14042CHOL    R552554  23.748   9.818  14.397
14042CHOL    C152555  23.978   9.822  14.465
14042CHOL    C252556  24.208   9.826  14.533
14043CHOL   ROH52557  18.498  16.651   1.045
14043CHOL    R152558  18.595  16.730   0.945
14043CHOL    R252559  18.826  16.700   0.953
14043CHOL    R352560  18.703  16.818   0.831
14043CHOL    R452561  18.910  16.769   0.865
14043CHOL    R552562  18.800  16.896   0.731
14043CHOL    C152563  18.945  17.014   0.580
14043CHOL    C252564  19.090  17.132   0.430
14044CHOL   ROH52565  -1.189  18.187  12.680
14044CHOL    R152566  -1.315  18.280  12.712
14044CHOL    R252567  -1.286  18.496  12.798
14044CHOL    R352568  -1.456  18.386  12.749
14044CHOL    R452569  -1.396  18.577  12.826
14044CHOL    R552570  -1.582  18.479  12.782
14044CHOL    C152571  -1.771  18.619  12.830
14044CHOL    C252572  -1.959  18.759  12.879
14045CHOL   ROH52573  23.281  12.516   6.436
14045CHOL    R152574  23.434  12.542   6.397
14045CHOL    R252575  23.495  12.587   6.176
14045CHOL    R352576  23.606  12.571   6.353
14045CHOL    R452577  23.629  12.610   6.142
14045CHOL    R552578  23.759  12.596   6.313
14045CHOL    C152579  23.988  12.635   6.255
14045CHOL    C252580  24.218  12.674   6.196
14046CHOL   ROH52581  -3.812   9.476  13.106
14046CHOL    R152582  -3.968   9.469  13.142
14046CHOL    R252583  -4.040   9.417  13.357
14046CHOL    R352584  -4.143   9.461  13.181
14046CHOL    R452585  -4.176   9.411  13.388
14046CHOL    R552586  -4.299   9.454  13.217
14046CHOL    C152587  -4.533   9.443  13.270
14046CHOL    C252588  -4.767   9.433  13.324
14047CHOL   ROH52589  -1.417  18.412  10.285
14047CHOL    R152590  -1.543  18.510  10.294
14047CHOL    R252591  -1.515  18.740  10.314
14047CHOL    R352592  -1.686  18.620  10.303
14047CHOL    R452593  -1.626  18.826  10.321
14047CHOL    R552594  -1.812  18.718  10.312
14047CHOL    C152595  -2.002  18.864  10.325
14047CHOL    C252596  -2.191  19.011  10.338
14048CHOL   ROH52597  -1.975   2.874  12.487
14048CHOL    R152598  -2.111   2.795  12.518
14048CHOL    R252599  -2.275   2.888  12.656
14048CHOL    R352600  -2.264   2.707  12.552
14048CHOL    R452601  -2.394   2.819  12.683
14048CHOL    R552602  -2.400   2.628  12.583
14048CHOL    C152603  -2.604   2.511  12.629
14048CHOL    C252604  -2.808   2.393  12.675
14049CHOL   ROH52605  -2.056  13.020   3.082
14049CHOL    R152606  -2.196  13.060   3.015
14049CHOL    R252607  -2.375  13.134   3.145
14049CHOL    R352608  -2.353  13.104   2.939
14049CHOL    R452609  -2.497  13.169   3.086
14049CHOL    R552610  -2.492  13.144   2.872
14049CHOL    C152611  -2.702  13.204   2.771
14049CHOL    C252612  -2.912  13.263   2.670
14050CHOL   ROH52613   2.075  13.900  -1.053
14050CHOL    R152614   1.987  13.942  -1.180
14050CHOL    R252615   1.759  13.988  -1.157
14050CHOL    R352616   1.887  13.989  -1.322
14050CHOL    R452617   1.682  14.024  -1.268
14050CHOL    R552618   1.799  14.030  -1.448
14050CHOL    C152619   1.666  14.093  -1.638
14050CHOL    C252620   1.533  14.156  -1.828
14051CHOL   ROH52621   1.368  12.578  20.751
14051CHOL    R152622   1.272  12.612  20.875
14051CHOL    R252623   1.348  12.592  21.094
14051CHOL    R352624   1.164  12.649  21.014
14051CHOL    R452625   1.264  12.621  21.202
14051CHOL    R552626   1.068  12.683  21.138
14051CHOL    C152627   0.925  12.733  21.323
14051CHOL    C252628   0.781  12.784  21.509
14052CHOL   ROH52629   9.446  24.008   9.683
14052CHOL    R152630   9.442  24.168   9.680
14052CHOL    R252631   9.618  24.291   9.588
14052CHOL    R352632   9.438  24.348   9.677
14052CHOL    R452633   9.615  24.431   9.586
14052CHOL    R552634   9.434  24.508   9.674
14052CHOL    C152635   9.428  24.748   9.670
14052CHOL    C252636   9.422  24.988   9.665
14053CHOL   ROH52637   9.027  -2.676  16.024
14053CHOL    R152638   9.015  -2.820  16.093
14053CHOL    R252639   9.200  -2.961  16.110
14053CHOL    R352640   9.002  -2.981  16.171
14053CHOL    R452641   9.190  -3.086  16.170
14053CHOL    R552642   8.990  -3.125  16.240
14053CHOL    C152643   8.972  -3.341  16.344
14053CHOL    C252644   8.954  -3.556  16.448
14054CHOL   ROH52645  19.073  17.379   2.374
14054CHOL    R152646  19.176  17.470   2.293
14054CHOL    R252647  19.181  17.467   2.059
14054CHOL    R352648  19.293  17.572   2.201
14054CHOL    R452649  19.272  17.546   1.988
14054CHOL    R552650  19.396  17.664   2.120
14054CHOL    C152651  19.551  17.800   1.997
14054CHOL    C252652  19.706  17.937   1.875
14055CHOL   ROH52653  11.043   4.023  22.633
14055CHOL    R152654  11.050   3.953  22.777
14055CHOL    R252655  11.240   3.974  22.911
14055CHOL    R352656  11.059   3.875  22.939
14055CHOL    R452657  11.247   3.913  23.036
14055CHOL    R552658  11.066   3.805  23.082
14055CHOL    C152659  11.077   3.700  23.298
14055CHOL    C252660  11.088   3.596  23.514
14056CHOL   ROH52661   0.729   8.393  20.492
14056CHOL    R152662   0.626   8.371  20.613
14056CHOL    R252663   0.698   8.378  20.835
14056CHOL    R352664   0.510   8.346  20.748
14056CHOL    R452665   0.608   8.359  20.940
14056CHOL    R552666   0.407   8.324  20.869
14056CHOL    C152667   0.253   8.291  21.050
14056CHOL    C252668   0.099   8.258  21.231
14057CHOL   ROH52669  11.600   9.052  -4.028
14057CHOL    R152670  11.616   9.041  -4.187
14057CHOL    R252671  11.599   9.229  -4.323
14057CHOL    R352672  11.634   9.028  -4.365
14057CHOL    R452673  11.614   9.219  -4.462
14057CHOL    R552674  11.651   9.017  -4.524
14057CHOL    C152675  11.675   8.999  -4.762
14057CHOL    C252676  11.699   8.982  -5.000
14058CHOL   ROH52677   9.428  18.435  -1.251
14058CHOL    R152678   9.425  18.536  -1.375
14058CHOL    R252679   9.607  18.674  -1.422
14058CHOL    R352680   9.422  18.650  -1.514
14058CHOL    R452681   9.605  18.763  -1.530
14058CHOL    R552682   9.419  18.751  -1.638
14058CHOL    C152683   9.415  18.903  -1.824
14058CHOL    C252684   9.410  19.054  -2.010
14059CHOL   ROH52685   0.775  20.059   6.492
14059CHOL    R152686   0.677  20.179   6.453
14059CHOL    R252687   0.760  20.392   6.408
14059CHOL    R352688   0.566  20.314   6.409
14059CHOL    R452689   0.673  20.497   6.374
14059CHOL    R552690   0.467  20.434   6.370
14059CHOL    C152691   0.320  20.614   6.312
14059CHOL    C252692   0.172  20.794   6.254
14060CHOL   ROH52693   6.163   9.447  -3.615
14060CHOL    R152694   6.123   9.441  -3.770
14060CHOL    R252695   5.977   9.278  -3.850
14060CHOL    R352696   6.078   9.434  -3.944
14060CHOL    R452697   5.942   9.273  -3.986
14060CHOL    R552698   6.038   9.428  -4.099
14060CHOL    C152699   5.978   9.420  -4.331
14060CHOL    C252700   5.918   9.411  -4.564
14061CHOL   ROH52701   5.213  21.910  15.738
14061CHOL    R152702   5.159  22.046  15.802
14061CHOL    R252703   5.261  22.138  15.991
14061CHOL    R352704   5.099  22.200  15.875
14061CHOL    R452705   5.215  22.258  16.047
14061CHOL    R552706   5.046  22.336  15.939
14061CHOL    C152707   4.965  22.540  16.035
14061CHOL    C252708   4.885  22.745  16.132
14062CHOL   ROH52709  13.141  -3.714  10.359
14062CHOL    R152710  13.178  -3.870  10.366
14062CHOL    R252711  13.260  -3.964  10.563
14062CHOL    R352712  13.220  -4.044  10.375
14062CHOL    R452713  13.293  -4.100  10.570
14062CHOL    R552714  13.258  -4.200  10.382
14062CHOL    C152715  13.313  -4.433  10.393
14062CHOL    C252716  13.369  -4.667  10.404
14063CHOL   ROH52717  13.096   7.939  -3.620
14063CHOL    R152718  13.138   7.914  -3.772
14063CHOL    R252719  13.142   8.088  -3.927
14063CHOL    R352720  13.185   7.885  -3.944
14063CHOL    R452721  13.179   8.066  -4.060
14063CHOL    R552722  13.227   7.860  -4.096
14063CHOL    C152723  13.290   7.821  -4.324
14063CHOL    C252724  13.353   7.783  -4.553
14064CHOL   ROH52725  16.573  21.626  14.016
14064CHOL    R152726  16.652  21.755  14.069
14064CHOL    R252727  16.786  21.881  13.925
14064CHOL    R352728  16.741  21.899  14.129
14064CHOL    R452729  16.855  21.993  13.972
14064CHOL    R552730  16.820  22.028  14.182
14064CHOL    C152731  16.939  22.221  14.261
14064CHOL    C252732  17.057  22.414  14.340
14065CHOL   ROH52733  17.067  17.056   0.149
14065CHOL    R152734  17.148  17.135   0.036
14065CHOL    R252735  17.363  17.068  -0.026
14065CHOL    R352736  17.240  17.223  -0.091
14065CHOL    R452737  17.434  17.137  -0.125
14065CHOL    R552738  17.321  17.302  -0.204
14065CHOL    C152739  17.443  17.420  -0.373
14065CHOL    C252740  17.565  17.538  -0.543
14066CHOL   ROH52741  13.226  17.554  -1.412
14066CHOL    R152742  13.261  17.638  -1.544
14066CHOL    R252743  13.435  17.794  -1.544
14066CHOL    R352744  13.300  17.733  -1.691
14066CHOL    R452745  13.465  17.868  -1.659
14066CHOL    R552746  13.336  17.817  -1.823
14066CHOL    C152747  13.388  17.943  -2.020
14066CHOL    C252748  13.441  18.069  -2.218
14067CHOL   ROH52749  -0.856  16.912   4.068
14067CHOL    R152750  -0.981  16.986   4.002
14067CHOL    R252751  -1.126  17.116   4.130
14067CHOL    R352752  -1.123  17.069   3.927
14067CHOL    R452753  -1.236  17.180   4.072
14067CHOL    R552754  -1.248  17.143   3.861
14067CHOL    C152755  -1.436  17.253   3.761
14067CHOL    C252756  -1.624  17.364   3.661
14068CHOL   ROH52757  23.635  12.686  10.321
14068CHOL    R152758  23.793  12.711  10.328
14068CHOL    R252759  23.916  12.757  10.135
14068CHOL    R352760  23.970  12.740  10.336
14068CHOL    R452761  24.054  12.779  10.142
14068CHOL    R552762  24.128  12.766  10.344
14068CHOL    C152763  24.365  12.804  10.354
14068CHOL    C252764  24.601  12.842  10.365
14069CHOL   ROH52765  -2.574  16.631   9.485
14069CHOL    R152766  -2.716  16.704   9.481
14069CHOL    R252767  -2.897  16.620   9.603
14069CHOL    R352768  -2.877  16.786   9.477
14069CHOL    R452769  -3.022  16.684   9.600
14069CHOL    R552770  -3.019  16.859   9.474
14069CHOL    C152771  -3.233  16.968   9.468
14069CHOL    C252772  -3.446  17.077   9.462
14070CHOL   ROH52773  -4.125  10.478  11.544
14070CHOL    R152774  -4.284  10.481  11.566
14070CHOL    R252775  -4.390  10.671  11.649
14070CHOL    R352776  -4.462  10.484  11.590
14070CHOL    R452777  -4.529  10.673  11.668
14070CHOL    R552778  -4.620  10.487  11.612
14070CHOL    C152779  -4.858  10.491  11.645
14070CHOL    C252780  -5.096  10.495  11.677
14071CHOL   ROH52781  -2.432  16.822  10.707
14071CHOL    R152782  -2.572  16.899  10.719
14071CHOL    R252783  -2.726  16.842  10.885
14071CHOL    R352784  -2.729  16.986  10.733
14071CHOL    R452785  -2.848  16.910  10.896
14071CHOL    R552786  -2.869  17.062  10.746
14071CHOL    C152787  -3.078  17.178  10.764
14071CHOL    C252788  -3.288  17.293  10.782
14072CHOL   ROH52789  23.166   5.444   9.360
14072CHOL    R152790  23.317   5.392   9.352
14072CHOL    R252791  23.453   5.444   9.169
14072CHOL    R352792  23.487   5.334   9.343
14072CHOL    R452793  23.585   5.399   9.163
14072CHOL    R552794  23.639   5.282   9.336
14072CHOL    C152795  23.865   5.205   9.324
14072CHOL    C252796  24.092   5.127   9.312
14073CHOL   ROH52797   5.087  19.975  18.558
14073CHOL    R152798   5.037  20.089  18.658
14073CHOL    R252799   5.140  20.298  18.664
14073CHOL    R352800   4.980  20.217  18.771
14073CHOL    R452801   5.096  20.397  18.752
14073CHOL    R552802   4.930  20.331  18.872
14073CHOL    C152803   4.855  20.502  19.022
14073CHOL    C252804   4.779  20.673  19.172
14074CHOL   ROH52805  23.744   8.274   9.999
14074CHOL    R152806  23.903   8.259   9.999
14074CHOL    R252807  24.032   8.350   9.827
14074CHOL    R352808  24.082   8.242   9.999
14074CHOL    R452809  24.172   8.337   9.827
14074CHOL    R552810  24.241   8.227   9.999
14074CHOL    C152811  24.480   8.204   9.998
14074CHOL    C252812  24.719   8.181   9.998
14075CHOL   ROH52813   1.860   1.294  17.567
14075CHOL    R152814   1.768   1.198  17.656
14075CHOL    R252815   1.855   1.090  17.844
14075CHOL    R352816   1.665   1.090  17.756
14075CHOL    R452817   1.775   1.006  17.922
14075CHOL    R552818   1.574   0.993  17.846
14075CHOL    C152819   1.436   0.849  17.979
14075CHOL    C252820   1.298   0.705  18.113
14076CHOL   ROH52821  -4.020   8.143  11.071
14076CHOL    R152822  -4.177   8.118  11.088
14076CHOL    R252823  -4.260   8.000  11.272
14076CHOL    R352824  -4.354   8.090  11.108
14076CHOL    R452825  -4.398   7.979  11.287
14076CHOL    R552826  -4.511   8.066  11.126
14076CHOL    C152827  -4.747   8.028  11.152
14076CHOL    C252828  -4.982   7.991  11.178
14077CHOL   ROH52829  20.171   6.170   1.159
14077CHOL    R152830  20.284   6.121   1.057
14077CHOL    R252831  20.279   6.183   0.833
14077CHOL    R352832  20.412   6.066   0.943
14077CHOL    R452833  20.379   6.140   0.744
14077CHOL    R552834  20.526   6.016   0.841
14077CHOL    C152835  20.696   5.943   0.689
14077CHOL    C252836  20.866   5.869   0.537
14078CHOL   ROH52837   7.132   8.235  -3.729
14078CHOL    R152838   7.104   8.214  -3.885
14078CHOL    R252839   6.927   8.081  -3.958
14078CHOL    R352840   7.071   8.191  -4.061
14078CHOL    R452841   6.902   8.063  -4.095
14078CHOL    R552842   7.043   8.170  -4.217
14078CHOL    C152843   7.000   8.140  -4.451
14078CHOL    C252844   6.958   8.109  -4.685
14079CHOL   ROH52845   4.763  22.606  13.380
14079CHOL    R152846   4.701  22.748  13.420
14079CHOL    R252847   4.646  22.798  13.641
14079CHOL    R352848   4.632  22.908  13.464
14079CHOL    R452849   4.592  22.922  13.676
14079CHOL    R552850   4.571  23.051  13.504
14079CHOL    C152851   4.478  23.264  13.564
14079CHOL    C252852   4.386  23.477  13.623
14080CHOL   ROH52853  23.370  13.590  11.269
14080CHOL    R152854  23.524  13.629  11.287
14080CHOL    R252855  23.662  13.661  11.102
14080CHOL    R352856  23.697  13.673  11.307
14080CHOL    R452857  23.797  13.695  11.118
14080CHOL    R552858  23.851  13.712  11.325
14080CHOL    C152859  24.083  13.771  11.353
14080CHOL    C252860  24.314  13.829  11.380
14081CHOL   ROH52861  -2.108   3.147   7.405
14081CHOL    R152862  -2.246   3.072   7.377
14081CHOL    R252863  -2.350   2.944   7.542
14081CHOL    R352864  -2.402   2.988   7.344
14081CHOL    R452865  -2.471   2.878   7.517
14081CHOL    R552866  -2.540   2.913   7.316
14081CHOL    C152867  -2.748   2.800   7.273
14081CHOL    C252868  -2.956   2.687   7.231
14082CHOL   ROH52869  11.028  10.251  -4.115
14082CHOL    R152870  11.037  10.253  -4.275
14082CHOL    R252871  10.876  10.363  -4.402
14082CHOL    R352872  11.047  10.255  -4.454
14082CHOL    R452873  10.884  10.365  -4.542
14082CHOL    R552874  11.056  10.257  -4.614
14082CHOL    C152875  11.069  10.260  -4.854
14082CHOL    C252876  11.083  10.263  -5.093
14083CHOL   ROH52877  12.922   3.754  -2.303
14083CHOL    R152878  12.954   3.682  -2.442
14083CHOL    R252879  13.131   3.533  -2.463
14083CHOL    R352880  12.989   3.601  -2.599
14083CHOL    R452881  13.159   3.470  -2.585
14083CHOL    R552882  13.021   3.530  -2.738
14083CHOL    C152883  13.068   3.422  -2.948
14083CHOL    C252884  13.115   3.314  -3.157
14084CHOL   ROH52885  18.492  -1.105  10.359
14084CHOL    R152886  18.588  -1.232  10.368
14084CHOL    R252887  18.812  -1.218  10.304
14084CHOL    R352888  18.697  -1.376  10.377
14084CHOL    R452889  18.896  -1.330  10.311
14084CHOL    R552890  18.793  -1.503  10.386
14084CHOL    C152891  18.937  -1.694  10.399
14084CHOL    C252892  19.082  -1.885  10.412
14085CHOL   ROH52893  12.789  -3.111   5.631
14085CHOL    R152894  12.830  -3.258   5.583
14085CHOL    R252895  12.917  -3.296   5.370
14085CHOL    R352896  12.875  -3.424   5.530
14085CHOL    R452897  12.952  -3.424   5.328
14085CHOL    R552898  12.916  -3.571   5.482
14085CHOL    C152899  12.977  -3.792   5.410
14085CHOL    C252900  13.038  -4.013   5.339
14086CHOL   ROH52901  12.295   6.786  -3.553
14086CHOL    R152902  12.320   6.746  -3.706
14086CHOL    R252903  12.268   6.894  -3.879
14086CHOL    R352904  12.349   6.701  -3.878
14086CHOL    R452905  12.290   6.859  -4.012
14086CHOL    R552906  12.374   6.661  -4.030
14086CHOL    C152907  12.412   6.601  -4.260
14086CHOL    C252908  12.450   6.541  -4.489
14087CHOL   ROH52909  23.594   7.167   9.563
14087CHOL    R152910  23.752   7.142   9.558
14087CHOL    R252911  23.902   7.320   9.550
14087CHOL    R352912  23.930   7.113   9.551
14087CHOL    R452913  24.040   7.298   9.545
14087CHOL    R552914  24.087   7.087   9.546
14087CHOL    C152915  24.324   7.049   9.538
14087CHOL    C252916  24.561   7.011   9.530
14088CHOL   ROH52917   6.806   2.522  21.468
14088CHOL    R152918   6.779   2.443  21.604
14088CHOL    R252919   6.927   2.278  21.679
14088CHOL    R352920   6.749   2.354  21.758
14088CHOL    R452921   6.904   2.209  21.798
14088CHOL    R552922   6.723   2.275  21.894
14088CHOL    C152923   6.682   2.156  22.099
14088CHOL    C252924   6.642   2.037  22.304
14089CHOL   ROH52925  22.761  15.180   8.316
14089CHOL    R152926  22.907  15.244   8.298
14089CHOL    R252927  23.092  15.109   8.253
14089CHOL    R352928  23.071  15.315   8.278
14089CHOL    R452929  23.219  15.165   8.237
14089CHOL    R552930  23.216  15.379   8.259
14089CHOL    C152931  23.435  15.475   8.232
14089CHOL    C252932  23.654  15.570   8.205
14090CHOL   ROH52933   8.095  -2.524   3.833
14090CHOL    R152934   8.075  -2.666   3.762
14090CHOL    R252935   8.257  -2.807   3.724
14090CHOL    R352936   8.054  -2.826   3.683
14090CHOL    R452937   8.240  -2.932   3.662
14090CHOL    R552938   8.034  -2.969   3.613
14090CHOL    C152939   8.005  -3.182   3.507
14090CHOL    C252940   7.975  -3.395   3.401
14091CHOL   ROH52941   2.124   2.446   1.061
14091CHOL    R152942   2.039   2.360   0.957
14091CHOL    R252943   1.851   2.240   1.026
14091CHOL    R352944   1.943   2.262   0.840
14091CHOL    R452945   1.776   2.164   0.935
14091CHOL    R552946   1.858   2.176   0.735
14091CHOL    C152947   1.730   2.046   0.579
14091CHOL    C252948   1.602   1.917   0.423
14092CHOL   ROH52949   0.203   0.369  13.463
14092CHOL    R152950   0.093   0.260  13.502
14092CHOL    R252951   0.119   0.124  13.690
14092CHOL    R352952  -0.031   0.136  13.546
14092CHOL    R452953   0.023   0.029  13.724
14092CHOL    R552954  -0.141   0.027  13.584
14092CHOL    C152955  -0.306  -0.137  13.643
14092CHOL    C252956  -0.471  -0.301  13.701
14093CHOL   ROH52957  15.427  22.758   8.704
14093CHOL    R152958  15.494  22.903   8.691
14093CHOL    R252959  15.694  22.933   8.576
14093CHOL    R352960  15.569  23.066   8.677
14093CHOL    R452961  15.753  23.060   8.565
14093CHOL    R552962  15.636  23.211   8.664
14093CHOL    C152963  15.736  23.428   8.646
14093CHOL    C252964  15.837  23.645   8.627
14094CHOL   ROH52965  22.484  14.266  14.339
14094CHOL    R152966  22.630  14.309  14.388
14094CHOL    R252967  22.767  14.444  14.256
14094CHOL    R352968  22.794  14.357  14.444
14094CHOL    R452969  22.895  14.481  14.299
14094CHOL    R552970  22.940  14.400  14.493
14094CHOL    C152971  23.160  14.464  14.567
14094CHOL    C252972  23.379  14.529  14.641
14095CHOL   ROH52973   2.505   9.989  22.008
14095CHOL    R152974   2.422   9.994  22.145
14095CHOL    R252975   2.510  10.098  22.334
14095CHOL    R352976   2.329  10.000  22.299
14095CHOL    R452977   2.437  10.102  22.454
14095CHOL    R552978   2.246  10.004  22.435
14095CHOL    C152979   2.122  10.012  22.641
14095CHOL    C252980   1.997  10.019  22.846
14096CHOL   ROH52981   1.869  21.491  10.032
14096CHOL    R152982   1.779  21.623  10.024
14096CHOL    R252983   1.877  21.832   9.991
14096CHOL    R352984   1.678  21.772  10.014
14096CHOL    R452985   1.798  21.948   9.984
14096CHOL    R552986   1.588  21.904  10.006
14096CHOL    C152987   1.454  22.102   9.994
14096CHOL    C252988   1.319  22.300   9.981
14097CHOL   ROH52989  10.705  12.155  -3.938
14097CHOL    R152990  10.714  12.184  -4.095
14097CHOL    R252991  10.818  12.032  -4.239
14097CHOL    R352992  10.724  12.216  -4.272
14097CHOL    R452993  10.826  12.057  -4.376
14097CHOL    R552994  10.733  12.244  -4.429
14097CHOL    C152995  10.747  12.287  -4.665
14097CHOL    C252996  10.761  12.330  -4.900
14098CHOL   ROH52997   5.789  -3.125  12.978
14098CHOL    R152998   5.742  -3.274  13.010
14098CHOL    R252999   5.845  -3.399  13.178
14098CHOL    R353000   5.689  -3.443  13.046
14098CHOL    R453001   5.804  -3.530  13.206
14098CHOL    R553002   5.642  -3.592  13.078
14098CHOL    C153003   5.571  -3.816  13.127
14098CHOL    C253004   5.501  -4.040  13.175
14099CHOL   ROH53005   8.879  16.765  22.261
14099CHOL    R153006   8.868  16.843  22.401
14099CHOL    R253007   9.026  17.003  22.462
14099CHOL    R353008   8.855  16.930  22.557
14099CHOL    R453009   9.016  17.071  22.584
14099CHOL    R553010   8.844  17.007  22.697
14099CHOL    C153011   8.827  17.124  22.906
14099CHOL    C253012   8.810  17.240  23.116
14100CHOL   ROH53013  21.999   5.985  15.745
14100CHOL    R153014  22.137   5.944  15.814
14100CHOL    R253015  22.301   6.103  15.858
14100CHOL    R353016  22.293   5.898  15.892
14100CHOL    R453017  22.422   6.067  15.919
14100CHOL    R553018  22.431   5.856  15.961
14100CHOL    C153019  22.638   5.795  16.065
14100CHOL    C253020  22.846   5.733  16.168
14101CHOL   ROH53021  10.993  17.123  -2.102
14101CHOL    R153022  11.008  17.203  -2.240
14101CHOL    R253023  11.217  17.280  -2.311
14101CHOL    R353024  11.026  17.293  -2.395
14101CHOL    R453025  11.230  17.349  -2.432
14101CHOL    R553026  11.041  17.372  -2.533
14101CHOL    C153027  11.064  17.492  -2.739
14101CHOL    C253028  11.087  17.612  -2.946
14102CHOL   ROH53029  22.896   6.743  14.105
14102CHOL    R153030  23.044   6.704  14.153
14102CHOL    R253031  23.207   6.868  14.185
14102CHOL    R353032  23.210   6.660  14.207
14102CHOL    R453033  23.336   6.834  14.227
14102CHOL    R553034  23.357   6.621  14.254
14102CHOL    C153035  23.579   6.562  14.326
14102CHOL    C253036  23.801   6.504  14.398
14103CHOL   ROH53037   9.910  18.741  -1.000
14103CHOL    R153038   9.911  18.844  -1.123
14103CHOL    R253039   9.914  18.767  -1.343
14103CHOL    R353040   9.913  18.959  -1.261
14103CHOL    R453041   9.915  18.857  -1.450
14103CHOL    R553042   9.914  19.062  -1.383
14103CHOL    C153043   9.916  19.215  -1.568
14103CHOL    C253044   9.918  19.369  -1.752
14104CHOL   ROH53045  10.829  23.912   8.408
14104CHOL    R153046  10.839  24.071   8.391
14104CHOL    R253047  11.013  24.191   8.489
14104CHOL    R353048  10.850  24.249   8.372
14104CHOL    R453049  11.021  24.330   8.474
14104CHOL    R553050  10.860  24.408   8.354
14104CHOL    C153051  10.875  24.646   8.329
14104CHOL    C253052  10.890  24.884   8.303
14105CHOL   ROH53053   6.877  21.911   3.156
14105CHOL    R153054   6.843  22.043   3.073
14105CHOL    R253055   6.855  22.254   3.173
14105CHOL    R353056   6.805  22.193   2.980
14105CHOL    R453057   6.825  22.370   3.100
14105CHOL    R553058   6.771  22.325   2.897
14105CHOL    C153059   6.719  22.524   2.772
14105CHOL    C253060   6.668  22.722   2.647
14106CHOL   ROH53061   7.431  13.030  -3.602
14106CHOL    R153062   7.405  13.064  -3.756
14106CHOL    R253063   7.582  13.086  -3.906
14106CHOL    R353064   7.375  13.103  -3.929
14106CHOL    R453065   7.559  13.116  -4.041
14106CHOL    R553066   7.349  13.137  -4.084
14106CHOL    C153067   7.310  13.188  -4.315
14106CHOL    C253068   7.270  13.240  -4.546
14107CHOL   ROH53069  14.467  -1.134  17.215
14107CHOL    R153070  14.519  -1.260  17.299
14107CHOL    R253071  14.732  -1.348  17.264
14107CHOL    R353072  14.577  -1.402  17.393
14107CHOL    R453073  14.777  -1.459  17.337
14107CHOL    R553074  14.629  -1.528  17.476
14107CHOL    C153075  14.707  -1.718  17.602
14107CHOL    C253076  14.785  -1.907  17.728
14108CHOL   ROH53077  20.049  16.581   2.835
14108CHOL    R153078  20.163  16.659   2.754
14108CHOL    R253079  20.141  16.700   2.526
14108CHOL    R353080  20.290  16.748   2.663
14108CHOL    R453081  20.240  16.768   2.455
14108CHOL    R553082  20.404  16.826   2.583
14108CHOL    C153083  20.574  16.944   2.461
14108CHOL    C253084  20.745  17.061   2.340
14109CHOL   ROH53085  12.886  18.281  -1.007
14109CHOL    R153086  12.916  18.373  -1.135
14109CHOL    R253087  13.069  18.549  -1.123
14109CHOL    R353088  12.950  18.475  -1.278
14109CHOL    R453089  13.095  18.629  -1.235
14109CHOL    R553090  12.980  18.567  -1.406
14109CHOL    C153091  13.025  18.704  -1.598
14109CHOL    C253092  13.070  18.842  -1.789
14110CHOL   ROH53093  13.176  -3.660  10.998
14110CHOL    R153094  13.213  -3.815  11.013
14110CHOL    R253095  13.223  -3.954  10.826
14110CHOL    R353096  13.255  -3.989  11.029
14110CHOL    R453097  13.256  -4.090  10.839
14110CHOL    R553098  13.292  -4.144  11.044
14110CHOL    C153099  13.348  -4.376  11.066
14110CHOL    C253100  13.404  -4.609  11.088
14111CHOL   ROH53101  -0.410   2.569  16.050
14111CHOL    R153102  -0.526   2.484  16.119
14111CHOL    R253103  -0.522   2.251  16.117
14111CHOL    R353104  -0.658   2.388  16.197
14111CHOL    R453105  -0.624   2.176  16.177
14111CHOL    R553106  -0.774   2.303  16.266
14111CHOL    C153107  -0.949   2.175  16.370
14111CHOL    C253108  -1.123   2.048  16.473
14112CHOL   ROH53109  17.635  20.963  13.818
14112CHOL    R153110  17.728  21.082  13.870
14112CHOL    R253111  17.884  21.047  14.040
14112CHOL    R353112  17.833  21.216  13.929
14112CHOL    R453113  17.965  21.151  14.086
14112CHOL    R553114  17.926  21.335  13.981
14112CHOL    C153115  18.066  21.514  14.059
14112CHOL    C253116  18.206  21.692  14.137
14113CHOL   ROH53117   2.695  11.306  -2.006
14113CHOL    R153118   2.610  11.322  -2.141
14113CHOL    R253119   2.417  11.453  -2.146
14113CHOL    R353120   2.514  11.339  -2.292
14113CHOL    R453121   2.343  11.467  -2.264
14113CHOL    R553122   2.429  11.355  -2.427
14113CHOL    C153123   2.301  11.379  -2.628
14113CHOL    C253124   2.174  11.402  -2.830
14114CHOL   ROH53125   4.276  12.228  -2.758
14114CHOL    R153126   4.207  12.253  -2.900
14114CHOL    R253127   4.115  12.460  -2.954
14114CHOL    R353128   4.129  12.281  -3.060
14114CHOL    R453129   4.055  12.482  -3.079
14114CHOL    R553130   4.060  12.306  -3.203
14114CHOL    C153131   3.957  12.343  -3.416
14114CHOL    C253132   3.854  12.381  -3.629
14115CHOL   ROH53133  -4.122  10.181  11.574
14115CHOL    R153134  -4.280  10.180  11.597
14115CHOL    R253135  -4.390  10.367  11.683
14115CHOL    R353136  -4.459  10.179  11.622
14115CHOL    R453137  -4.529  10.366  11.703
14115CHOL    R553138  -4.617  10.178  11.645
14115CHOL    C153139  -4.855  10.177  11.679
14115CHOL    C253140  -5.092  10.175  11.713
14116CHOL   ROH53141  20.450   2.187   4.917
14116CHOL    R153142  20.570   2.097   4.861
14116CHOL    R253143  20.787   2.182   4.846
14116CHOL    R353144  20.705   1.997   4.797
14116CHOL    R453145  20.892   2.104   4.797
14116CHOL    R553146  20.825   1.907   4.741
14116CHOL    C153147  21.005   1.773   4.657
14116CHOL    C253148  21.185   1.638   4.572
14117CHOL   ROH53149   7.789  23.833   8.668
14117CHOL    R153150   7.771  23.991   8.654
14117CHOL    R253151   7.739  24.126   8.842
14117CHOL    R353152   7.751  24.170   8.638
14117CHOL    R453153   7.723  24.265   8.829
14117CHOL    R553154   7.732  24.328   8.624
14117CHOL    C153155   7.705  24.566   8.602
14117CHOL    C253156   7.678  24.803   8.581
14118CHOL   ROH53157  -1.633   3.020   5.901
14118CHOL    R153158  -1.765   2.940   5.859
14118CHOL    R253159  -1.888   2.820   6.016
14118CHOL    R353160  -1.912   2.849   5.811
14118CHOL    R453161  -2.003   2.750   5.979
14118CHOL    R553162  -2.044   2.769   5.769
14118CHOL    C153163  -2.241   2.648   5.705
14118CHOL    C253164  -2.439   2.527   5.641
14119CHOL   ROH53165  13.348  10.847  -3.681
14119CHOL    R153166  13.390  10.859  -3.835
14119CHOL    R253167  13.276  10.741  -4.000
14119CHOL    R353168  13.438  10.872  -4.008
14119CHOL    R453169  13.312  10.751  -4.135
14119CHOL    R553170  13.480  10.884  -4.162
14119CHOL    C153171  13.543  10.902  -4.393
14119CHOL    C253172  13.607  10.920  -4.624
14120CHOL   ROH53173  22.598   6.523   5.011
14120CHOL    R153174  22.745   6.488   4.958
14120CHOL    R253175  22.861   6.634   4.819
14120CHOL    R353176  22.910   6.448   4.899
14120CHOL    R453177  22.989   6.603   4.772
14120CHOL    R553178  23.057   6.413   4.846
14120CHOL    C153179  23.277   6.359   4.767
14120CHOL    C253180  23.498   6.306   4.688
14121CHOL   ROH53181   6.109  23.281   6.999
14121CHOL    R153182   6.067  23.432   6.967
14121CHOL    R253183   6.049  23.590   7.138
14121CHOL    R353184   6.019  23.602   6.932
14121CHOL    R453185   6.012  23.722   7.111
14121CHOL    R553186   5.976  23.753   6.901
14121CHOL    C153187   5.913  23.980   6.853
14121CHOL    C253188   5.849  24.206   6.806
14122CHOL   ROH53189   2.966   6.246  -1.775
14122CHOL    R153190   2.885   6.202  -1.906
14122CHOL    R253191   2.969   6.041  -2.051
14122CHOL    R353192   2.793   6.153  -2.052
14122CHOL    R453193   2.898   6.002  -2.165
14122CHOL    R553194   2.711   6.109  -2.183
14122CHOL    C153195   2.589   6.043  -2.379
14122CHOL    C253196   2.467   5.977  -2.575
14123CHOL   ROH53197   6.568  17.082  21.647
14123CHOL    R153198   6.532  17.168  21.777
14123CHOL    R253199   6.668  17.344  21.846
14123CHOL    R353200   6.491  17.265  21.923
14123CHOL    R453201   6.636  17.420  21.959
14123CHOL    R553202   6.455  17.351  22.053
14123CHOL    C153203   6.401  17.480  22.248
14123CHOL    C253204   6.347  17.609  22.443
14124CHOL   ROH53205   4.822  16.843  21.157
14124CHOL    R153206   4.763  16.924  21.282
14124CHOL    R253207   4.829  16.874  21.500
14124CHOL    R353208   4.696  17.015  21.422
14124CHOL    R453209   4.777  16.945  21.609
14124CHOL    R553210   4.637  17.096  21.546
14124CHOL    C153211   4.548  17.217  21.733
14124CHOL    C253212   4.459  17.339  21.920
14125CHOL   ROH53213  14.951  13.177  22.701
14125CHOL    R153214  15.008  13.216  22.845
14125CHOL    R253215  15.049  13.438  22.902
14125CHOL    R353216  15.071  13.260  23.008
14125CHOL    R453217  15.098  13.472  23.029
14125CHOL    R553218  15.128  13.299  23.152
14125CHOL    C153219  15.213  13.357  23.369
14125CHOL    C253220  15.298  13.415  23.586
14126CHOL   ROH53221  19.324  19.596  13.522
14126CHOL    R153222  19.431  19.706  13.568
14126CHOL    R253223  19.640  19.642  13.650
14126CHOL    R353224  19.552  19.829  13.619
14126CHOL    R453225  19.734  19.738  13.690
14126CHOL    R553226  19.660  19.938  13.664
14126CHOL    C153227  19.821  20.103  13.733
14126CHOL    C253228  19.982  20.267  13.801
14127CHOL   ROH53229   4.395   0.979   0.742
14127CHOL    R153230   4.325   0.879   0.638
14127CHOL    R253231   4.213   0.689   0.712
14127CHOL    R353232   4.246   0.767   0.522
14127CHOL    R453233   4.152   0.601   0.621
14127CHOL    R553234   4.176   0.668   0.418
14127CHOL    C153235   4.072   0.518   0.262
14127CHOL    C253236   3.967   0.368   0.107
14128CHOL   ROH53237  10.049  -1.731  17.707
14128CHOL    R153238  10.052  -1.863  17.798
14128CHOL    R253239  10.182  -2.047  17.739
14128CHOL    R353240  10.055  -2.010  17.900
14128CHOL    R453241  10.185  -2.162  17.818
14128CHOL    R553242  10.058  -2.142  17.992
14128CHOL    C153243  10.062  -2.339  18.128
14128CHOL    C253244  10.067  -2.537  18.265
14129CHOL   ROH53245  19.235  -0.368  11.515
14129CHOL    R153246  19.341  -0.486  11.534
14129CHOL    R253247  19.422  -0.606  11.350
14129CHOL    R353248  19.461  -0.619  11.555
14129CHOL    R453249  19.514  -0.709  11.367
14129CHOL    R553250  19.567  -0.737  11.574
14129CHOL    C153251  19.726  -0.914  11.602
14129CHOL    C253252  19.886  -1.091  11.631
14130CHOL   ROH53253   0.556  16.570   1.647
14130CHOL    R153254   0.449  16.644   1.554
14130CHOL    R253255   0.480  16.866   1.489
14130CHOL    R353256   0.328  16.728   1.450
14130CHOL    R453257   0.386  16.931   1.408
14130CHOL    R553258   0.221  16.802   1.357
14130CHOL    C153259   0.060  16.914   1.219
14130CHOL    C253260  -0.101  17.026   1.080
14131CHOL   ROH53261   8.669  23.083   4.841
14131CHOL    R153262   8.656  23.232   4.785
14131CHOL    R253263   8.801  23.311   4.620
14131CHOL    R353264   8.642  23.400   4.722
14131CHOL    R453265   8.790  23.442   4.571
14131CHOL    R553266   8.630  23.549   4.665
14131CHOL    C153267   8.611  23.773   4.581
14131CHOL    C253268   8.592  23.997   4.497
14132CHOL   ROH53269  20.675   0.985  10.523
14132CHOL    R153270  20.798   0.883  10.527
14132CHOL    R253271  21.013   0.957  10.579
14132CHOL    R353272  20.937   0.769  10.531
14132CHOL    R453273  21.121   0.868  10.582
14132CHOL    R553274  21.060   0.667  10.535
14132CHOL    C153275  21.246   0.514  10.541
14132CHOL    C253276  21.431   0.362  10.547
14133CHOL   ROH53277   6.242  15.143  -2.643
14133CHOL    R153278   6.200  15.203  -2.785
14133CHOL    R253279   6.162  15.432  -2.812
14133CHOL    R353280   6.152  15.271  -2.945
14133CHOL    R453281   6.125  15.485  -2.936
14133CHOL    R553282   6.110  15.332  -3.087
14133CHOL    C153283   6.047  15.422  -3.300
14133CHOL    C253284   5.983  15.512  -3.513
14134CHOL   ROH53285  16.954  11.082  -2.109
14134CHOL    R153286  17.034  11.092  -2.247
14134CHOL    R253287  16.938  11.192  -2.435
14134CHOL    R353288  17.124  11.102  -2.403
14134CHOL    R453289  17.008  11.200  -2.556
14134CHOL    R553290  17.204  11.112  -2.541
14134CHOL    C153291  17.324  11.126  -2.748
14134CHOL    C253292  17.444  11.141  -2.956
14135CHOL   ROH53293  11.726  -2.687   4.041
14135CHOL    R153294  11.746  -2.829   3.970
14135CHOL    R253295  11.846  -2.845   3.760
14135CHOL    R353296  11.769  -2.989   3.890
14135CHOL    R453297  11.864  -2.969   3.698
14135CHOL    R553298  11.789  -3.130   3.819
14135CHOL    C153299  11.819  -3.343   3.712
14135CHOL    C253300  11.849  -3.556   3.605
14136CHOL   ROH53301   3.905   2.993  20.598
14136CHOL    R153302   3.829   2.918  20.717
14136CHOL    R253303   3.768   3.031  20.912
14136CHOL    R353304   3.743   2.833  20.851
14136CHOL    R453305   3.702   2.966  21.016
14136CHOL    R553306   3.667   2.758  20.970
14136CHOL    C153307   3.553   2.645  21.149
14136CHOL    C253308   3.439   2.532  21.327
14137CHOL   ROH53309   5.423  -3.297  11.033
14137CHOL    R153310   5.372  -3.448  11.046
14137CHOL    R253311   5.387  -3.563  11.248
14137CHOL    R353312   5.314  -3.618  11.061
14137CHOL    R453313   5.342  -3.695  11.260
14137CHOL    R553314   5.262  -3.769  11.073
14137CHOL    C153315   5.185  -3.996  11.093
14137CHOL    C253316   5.108  -4.222  11.112
14138CHOL   ROH53317  20.398  19.280  10.773
14138CHOL    R153318  20.519  19.383  10.790
14138CHOL    R253319  20.740  19.317  10.750
14138CHOL    R353320  20.656  19.499  10.809
14138CHOL    R453321  20.846  19.407  10.765
14138CHOL    R553322  20.777  19.601  10.826
14138CHOL    C153323  20.960  19.756  10.852
14138CHOL    C253324  21.142  19.910  10.878
14139CHOL   ROH53325  -1.895  17.590  11.306
14139CHOL    R153326  -2.027  17.678  11.325
14139CHOL    R253327  -2.099  17.742  11.538
14139CHOL    R353328  -2.176  17.777  11.347
14139CHOL    R453329  -2.214  17.819  11.555
14139CHOL    R553330  -2.309  17.865  11.367
14139CHOL    C153331  -2.507  17.996  11.396
14139CHOL    C253332  -2.705  18.128  11.425
14140CHOL   ROH53333  -3.563   9.207  14.027
14140CHOL    R153334  -3.717   9.198  14.071
14140CHOL    R253335  -3.795   9.017  14.197
14140CHOL    R353336  -3.889   9.187  14.120
14140CHOL    R453337  -3.929   9.009  14.235
14140CHOL    R553338  -4.043   9.177  14.164
14140CHOL    C153339  -4.273   9.163  14.230
14140CHOL    C253340  -4.504   9.149  14.296
  20.00000  20.00000  20.00000
