CG metabolite in water t=   0.00000 step= 0
    5
    1DR1P  RIB1    1   3.717   3.472   1.540
    1DR1P  RIB2    2   3.441   3.426   1.594
    1DR1P  RIB3    3   3.571   3.376   1.894
    1DR1P    P1    4   3.687   3.782   1.480
    1DR1P  RIB4    5   3.581   3.426   1.674
   4.77193   4.77193   3.37426   0.00000   0.00000   0.00000   0.00000   2.38596   2.38596
