CG metabolite in water t=   0.00000 step= 0
    5
    1DR5P  RIB1    1   3.924   3.609   1.666
    1DR5P  RIB2    2   3.624   3.729   1.786
    1DR5P  RIB3    3   3.614   3.489   1.616
    1DR5P    P1    4   3.294   3.559   1.626
    1DR5P  RIB4    5   3.724   3.609   1.686
   4.81227   4.81227   3.40279   0.00000   0.00000   0.00000   0.00000   2.40613   2.40613
