CG metabolite in water t=   0.00000 step= 0
    5
    1F6P   FUC1    1   3.760   3.565   2.097
    1F6P   FUC2    2   3.820   3.825   1.857
    1F6P   FUC3    3   3.570   3.645   1.707
    1F6P     P1    4   3.570   3.715   1.387
    1F6P   FUC4    5   3.720   3.675   1.887
   4.92728   4.92728   3.48411   0.00000   0.00000   0.00000   0.00000   2.46364   2.46364
