CG metabolite in water t=   0.00000 step= 0
   24
    1FAD   ADE1    1   2.382   2.545   2.496
    1FAD   ADE2    2   2.442   2.795   2.416
    1FAD   ADE3    3   2.332   2.997   2.486
    1FAD   ADE4    4   2.160   3.007   2.646
    1FAD   ADE5    5   2.190   2.695   2.636
    1FAD   ADE6    6   2.312   2.745   2.526
    1FAD   RIB1    7   2.352   2.525   2.206
    1FAD   RIB2    8   2.272   2.405   2.036
    1FAD   RIB3    9   2.150   2.245   2.236
    1FAD   RIB4   10   2.252   2.395   2.156
    1FAD     P1   11   2.382   2.015   2.186
    1FAD     P2   12   2.532   1.915   2.376
    1FAD   ALC3   13   2.432   2.105   2.596
    1FAD   ALC2   14   2.612   2.115   2.786
    1FAD   ALC1   15   2.762   2.255   2.646
    1FAD   FLV1   16   2.722   2.855   2.706
    1FAD   FLV2   17   2.682   2.605   2.886
    1FAD   FLV3   18   2.722   2.645   2.626
    1FAD   FLV4   19   2.772   2.635   2.356
    1FAD   FLV5   20   2.752   2.415   2.496
    1FAD   FLV6   21   2.762   2.525   2.426
    1FAD   FLV7   22   2.742   2.535   2.106
    1FAD   FLV8   23   2.732   2.285   2.186
    1FAD   FLV9   24   2.752   2.455   2.276
   4.92214   4.92214   4.92214
