CG metabolite in water t=   0.00000 step= 0
    6
    1FBP     P1    1   4.004   3.974   1.378
    1FBP   FUC1    2   3.824   3.804   1.558
    1FBP   FUC2    3   3.624   3.654   1.778
    1FBP   FUC3    4   3.874   3.734   1.968
    1FBP     P2    5   3.954   3.934   2.218
    1FBP   FUC4    6   3.774   3.724   1.768
   5.08594   5.08594   3.59630   0.00000   0.00000   0.00000   0.00000   2.54298   2.54298
