CG metabolite in water t=   0.00000 step= 0
   13
    1FMN-  FLV1    1   3.558   4.343   1.755
    1FMN-  FLV2    2   3.858   4.343   1.875
    1FMN-  FLV3    3   3.678   4.173   1.835
    1FMN-  FLV4    4   3.548   3.933   1.835
    1FMN-  FLV5    5   3.748   3.923   1.935
    1FMN-  FLV6    6   3.648   3.933   1.885
    1FMN-  FLV7    7   3.468   3.653   1.835
    1FMN-  FLV8    8   3.718   3.593   1.905
    1FMN-  FLV9    9   3.628   3.763   1.865
    1FMN-  ALC1   10   3.978   3.923   1.985
    1FMN-  ALC2   11   4.228   3.863   1.975
    1FMN-  ALC3   12   4.258   3.983   1.785
    1FMN-    P1   13   4.468   3.733   1.845
   5.29020   5.29020   3.74074   0.00000   0.00000   0.00000   0.00000   2.64509   2.64509
