CG metabolite in water t=   0.00000 step= 0
    5
    1G1P   GLU1    1   3.717   3.697   1.606
    1G1P   GLU2    2   3.517   3.567   1.856
    1G1P   GLU3    3   3.300   3.453   1.575
    1G1P     P1    4   3.850   3.463   1.515
    1G1P   GLU4    5   3.517   3.577   1.676
   4.76683   4.76683   3.37065   0.00000   0.00000   0.00000   0.00000   2.38341   2.38341
