CG metabolite in water t=   0.00000 step= 0
    5
    1G6P   GLU1    1   3.465   3.390   1.893
    1G6P   GLU2    2   3.795   3.530   1.863
    1G6P   GLU3    3   3.605   3.720   1.723
    1G6P     P1    4   3.805   3.880   1.533
    1G6P   GLU4    5   3.625   3.550   1.833
   4.84606   4.84606   3.42668   0.00000   0.00000   0.00000   0.00000   2.42303   2.42303
