CG metabolite in water t=   0.00000 step= 0
    6
    1GN6P  GLU1    1   3.792   3.842   1.595
    1GN6P  GLU2    2   3.792   3.822   1.975
    1GN6P  GLU3    3   4.072   3.972   1.855
    1GN6P    P1    4   4.312   4.002   2.075
    1GN6P  AMD1    5   3.472   3.782   1.635
    1GN6P  GLU4    6   3.882   3.882   1.805
   5.18902   5.18902   3.66919   0.00000   0.00000   0.00000   0.00000   2.59451   2.59451
