CG metabolite in water t=   0.00000 step= 0
    5
    1M6P   MAN1    1   3.370   3.635   1.599
    1M6P   MAN2    2   3.690   3.435   1.599
    1M6P   MAN3    3   3.740   3.795   1.559
    1M6P     P1    4   3.880   3.815   1.859
    1M6P   MAN4    5   3.600   3.615   1.589
   4.83332   4.83332   3.41768   0.00000   0.00000   0.00000   0.00000   2.41666   2.41666
