CG metabolite in water t=   0.00000 step= 0
    5
    1MANA  MAN1    1   3.430   3.455   1.720
    1MANA  MAN2    2   3.800   3.455   1.610
    1MANA  MAN3    3   3.760   3.625   1.950
    1MANA  AMD1    4   3.390   3.735   1.440
    1MANA  MAN4    5   3.660   3.515   1.760
   4.79382   4.79382   3.38974   0.00000   0.00000   0.00000   0.00000   2.39691   2.39691
