CG metabolite in water t=   0.00000 step= 0
    6
    1MN6P  MAN1    1   3.475   3.485   1.956
    1MN6P  MAN2    2   3.605   3.855   1.946
    1MN6P  MAN3    3   3.475   3.715   1.636
    1MN6P  AMD1    4   3.825   3.445   1.976
    1MN6P    P1    5   3.725   3.855   1.466
    1MN6P  MAN4    6   3.515   3.685   1.846
   4.86682   4.86682   3.44136   0.00000   0.00000   0.00000   0.00000   2.43341   2.43341
