CG metabolite in water t=   0.00000 step= 0
    9
    1NICR  CAC1    1   3.569   4.239   1.775
    1NICR  ARO1    2   3.769   3.899   1.715
    1NICR  ARO2    3   3.889   4.039   1.635
    1NICR  ARO3    4   3.699   4.069   1.705
    1NICR  RIB1    5   3.749   3.679   1.855
    1NICR  RIB2    6   3.869   3.599   2.005
    1NICR  RIB3    7   4.079   3.679   1.835
    1NICR    P1    8   4.109   3.439   1.615
    1NICR  RIB4    9   3.899   3.659   1.895
   5.11849   5.11849   3.61932   0.00000   0.00000   0.00000   0.00000   2.55925   2.55925
