/usr/local/bin/polyply gen_coords -p topol.top -o POPC.gro -name POPC -box 10 10 10 -back_fudge 1
12
    1POPC   NC3    1   6.124   4.379   2.081
    1POPC   PO4    2   5.940   4.199   1.769
    1POPC   GL1    3   6.026   4.279   1.345
    1POPC   GL2    4   5.715   4.316   1.311
    1POPC   C1A    5   6.310   4.523   1.096
    1POPC   D2A    6   6.630   4.797   0.817
    1POPC   C3A    7   6.986   5.107   0.870
    1POPC   C4A    8   7.361   5.433   0.926
    1POPC   C1B    9   5.542   4.184   1.005
    1POPC   C2B   10   5.349   4.035   0.663
    1POPC   C3B   11   5.123   3.862   0.263
    1POPC   C4B   12   4.893   3.686  -0.144
10.0 10.0 10.0
