CG metabolite in water t=   0.00000 step= 0
    7
    1PRP-  RIB1    1   3.978   4.073   1.863
    1PRP-  RIB2    2   4.118   4.083   1.673
    1PRP-  RIB3    3   4.028   3.853   1.633
    1PRP-    P1    4   3.678   4.023   1.933
    1PRP-    P2    5   3.508   3.853   2.033
    1PRP-    P3    6   4.268   3.693   1.813
    1PRP-  RIB4    7   4.038   4.003   1.723
   5.18448   5.18448   3.66598   0.00000   0.00000   0.00000   0.00000   2.59224   2.59224
