CG metabolite in water t=   0.00000 step= 0
    7
    1PRPP  RIB1    1   3.860   3.930   1.954
    1PRPP  RIB2    2   4.040   3.730   1.904
    1PRPP  RIB3    3   3.860   3.650   1.714
    1PRPP    P1    4   3.970   4.160   1.824
    1PRPP    P2    5   3.850   4.410   1.784
    1PRPP    P3    6   3.740   3.370   1.734
    1PRPP  RIB4    7   3.920   3.770   1.854
   5.18640   5.18640   3.66734   0.00000   0.00000   0.00000   0.00000   2.59320   2.59320
