CG metabolite in water t=   0.00000 step= 0
    5
    1R1P   RIB1    1   3.461   3.621   1.805
    1R1P   RIB2    2   3.711   3.701   1.785
    1R1P   RIB3    3   3.821   3.431   1.675
    1R1P     P1    4   3.351   3.741   1.575
    1R1P   RIB4    5   3.661   3.581   1.755
   4.78067   4.78067   3.38044   0.00000   0.00000   0.00000   0.00000   2.39033   2.39033
