CG metabolite in water t=   0.00000 step= 0
    5
    1R5P   RIB1    1   3.594   3.319   1.826
    1R5P   RIB2    2   3.724   3.539   1.756
    1R5P   RIB3    3   3.514   3.609   1.586
    1R5P     P1    4   3.584   3.919   1.646
    1R5P   RIB4    5   3.614   3.489   1.726
   4.82485   4.82485   3.41168   0.00000   0.00000   0.00000   0.00000   2.41242   2.41242
