CG metabolite in water t=   0.00000 step= 0
   13
    1RBF-  FLV1    1   3.433   4.196   1.911
    1RBF-  FLV2    2   3.733   4.256   1.841
    1RBF-  FLV3    3   3.583   4.036   1.861
    1RBF-  FLV4    4   3.473   3.776   1.861
    1RBF-  FLV5    5   3.743   3.846   1.761
    1RBF-  FLV6    6   3.613   3.816   1.811
    1RBF-  FLV7    7   3.463   3.509   1.751
    1RBF-  FLV8    8   3.714   3.518   1.670
    1RBF-  FLV9    9   3.593   3.649   1.771
    1RBF-  ALC1   10   3.963   3.896   1.801
    1RBF-  ALC2   11   4.133   3.966   1.961
    1RBF-  ALC3   12   4.253   3.986   1.771
    1RBF-  ALC4   13   4.333   4.096   1.991
   5.17710   5.17710   3.66076   0.00000   0.00000   0.00000   0.00000   2.58855   2.58855
