/usr/local/bin/polyply gen_coords -p topol.top -o TLN.gro -name TLN -box 10 10 10 -back_fudge 1
15
    1TLN    GL1    1   9.473   7.792   8.008
    1TLN    C1A    2   9.733   8.112   8.187
    1TLN    D2A    3  10.025   8.471   8.389
    1TLN    D3A    4  10.203   8.867   8.239
    1TLN    D4A    5  10.145   9.306   8.081
    1TLN    GL2    6   9.604   7.539   7.873
    1TLN    C1B    7   9.579   7.483   7.427
    1TLN    D2B    8   9.551   7.420   6.927
    1TLN    D3B    9   9.384   7.093   6.649
    1TLN    D4B   10   9.301   6.930   6.217
    1TLN    GL3   11   9.386   7.410   8.061
    1TLN    C1C   12   9.508   7.220   8.450
    1TLN    D2C   13   9.646   7.007   8.887
    1TLN    D3C   14   9.426   6.779   9.221
    1TLN    D4C   15   9.037   6.572   9.384
10.0 10.0 10.0
