/usr/local/bin/polyply gen_coords -p topol.top -o TOCL.gro -name TOCL -box 10 10 10 -back_fudge 1
23
    1TOCL   GLC    1   6.600   7.874   6.517
    1TOCL  PO41    2   6.258   7.876   6.382
    1TOCL  GL11    3   6.228   7.598   6.042
    1TOCL  GL21    4   6.181   7.853   5.864
    1TOCL  C1A1    5   6.027   7.210   5.938
    1TOCL  D2A1    6   5.802   6.773   5.820
    1TOCL  C3A1    7   5.441   6.609   5.559
    1TOCL  C4A1    8   5.061   6.436   5.283
    1TOCL  C1B1    9   6.088   8.249   6.057
    1TOCL  D2B1   10   5.985   8.694   6.274
    1TOCL  C3B1   11   5.613   8.945   6.428
    1TOCL  C4B1   12   5.221   9.210   6.591
    1TOCL  PO42   13   6.851   7.604   6.522
    1TOCL  GL12   14   6.964   7.495   6.111
    1TOCL  GL22   15   6.975   7.198   6.215
    1TOCL  C1A2   16   7.247   7.631   5.789
    1TOCL  D2A2   17   7.566   7.784   5.428
    1TOCL  C3A2   18   8.030   7.860   5.360
    1TOCL  C4A2   19   8.518   7.939   5.288
    1TOCL  C1B2   20   7.007   7.115   6.656
    1TOCL  D2B2   21   7.043   7.022   7.152
    1TOCL  C3B2   22   7.373   6.950   7.485
    1TOCL  C4B2   23   7.721   6.875   7.836
10.0 10.0 10.0
